
Running Job 1 of 2 19nt_mm_min_distance_cutoff5_nowat_optimized_spade_wb97x-v_631gd.in
qchem 19nt_mm_min_distance_cutoff5_nowat_optimized_spade_wb97x-v_631gd.in_712624.0 ./qchem712624/ 1
srun -n 1 /cm/shared/apps/spack/0.17.3/cpu/b/opt/spack/linux-rocky8-zen2/gcc-10.2.0/qchem-6.0-rytxnwjazd34ekd2gqyi5ufsaimxsd3r/exe/qcprog.exe 19nt_mm_min_distance_cutoff5_nowat_optimized_spade_wb97x-v_631gd.in_712624.0 ./qchem712624/

                  Welcome to Q-Chem
     A Quantum Leap Into The Future Of Chemistry


 Q-Chem 6.0, Q-Chem, Inc., Pleasanton, CA (2022)

 License issued to: University of California, San Diego (site)

 E. Epifanovsky,  A. T. B. Gilbert,  Xintian Feng,  Joonho Lee,  Yuezhi Mao,  
 N. Mardirossian,  P. Pokhilko,  A. White,  M. Wormit,  M. P. Coons,  
 A. L. Dempwolff,  Zhengting Gan,  D. Hait,  P. R. Horn,  L. D. Jacobson,  
 I. Kaliman,  J. Kussmann,  A. W. Lange,  Ka Un Lao,  D. S. Levine,  Jie Liu,  
 S. C. McKenzie,  A. F. Morrison,  K. Nanda,  F. Plasser,  D. R. Rehn,  
 M. L. Vidal,  Zhi-Qiang You,  Ying Zhu,  B. Alam,  B. Albrecht,  
 A. Aldossary,  E. Alguire,  J. H. Andersen,  V. Athavale,  D. Barton,  
 K. Begam,  A. Behn,  N. Bellonzi,  Y. A. Bernard,  E. J. Berquist,  
 H. Burton,  A. Carreras,  K. Carter-Fenk,  Romit Chakraborty,  
 Chandrima Chakravarty,  Junhan Chen,  A. D. Chien,  K. D. Closser,  
 V. Cofer-Shabica,  L. Cunha,  S. Dasgupta,  Jia Deng,  M. de Wergifosse,  
 M. Diedenhofen,  Hainam Do,  S. Ehlert,  Po-Tung Fang,  S. Fatehi,  
 Qingguo Feng,  T. Friedhoff,  B. Ganoe,  J. Gayvert,  Qinghui Ge,  
 G. Gidofalvi,  M. Goldey,  J. Gomes,  C. Gonzalez-Espinoza,  S. Gulania,  
 A. Gunina,  J. A. Gyamfi,  M. W. D. Hanson-Heine,  P. H. P. Harbach,  
 A. W. Hauser,  M. F. Herbst,  M. Hernandez Vera,  M. Hodecker,  
 Z. C. Holden,  S. Houck,  Xunkun Huang,  Kerwin Hui,  B. C. Huynh,  
 K. Ikeda,  M. Ivanov,  Hyunjun Ji,  Zuxin Jin,  Hanjie Jiang,  B. Kaduk,  
 S. Kaehler,  R. Kang,  K. Khistyaev,  Jaehoon Kim,  Yongbin Kim,  
 P. Klunzinger,  Z. Koczor-Benda,  Joong Hoon Koh,  D. Kosenkov,  
 Saikiran Kotaru,  L. Koulias,  T. Kowalczyk,  C. M. Krauter,  K. Kue,  
 A. Kunitsa,  T. Kus,  A. Landau,  K. V. Lawler,  D. Lefrancois,  S. Lehtola,  
 Rain Li,  Shaozhi Li,  Yi-Pei Li,  Jiashu Liang,  M. Liebenthal,  
 Hung-Hsuan Lin,  You-Sheng Lin,  Fenglai Liu,  Kuan-Yu Liu,  
 M. Loipersberger,  A. Luenser,  C. Malbon,  A. Manjanath,  P. Manohar,  
 E. Mansoor,  S. F. Manzer,  Shan-Ping Mao,  A. V. Marenich,  T. Markovich,  
 S. Mason,  F. Matz,  S. A. Maurer,  P. F. McLaughlin,  M. F. S. J. Menger,  
 J.-M. Mewes,  S. A. Mewes,  P. Morgante,  Mohammad Mostafanejad,  
 J. W. Mullinax,  K. J. Oosterbaan,  G. Paran,  V. Parravicini,  
 Alexander C. Paul,  Suranjan K. Paul,  F. Pavosevic,  Zheng Pei,  S. Prager,  
 E. I. Proynov,  E. Ramos,  B. Rana,  A. E. Rask,  A. Rettig,  R. M. Richard,  
 F. Rob,  E. Rossomme,  T. Scheele,  M. Scheurer,  M. Schneider,  
 P. E. Schneider,  N. Sergueev,  S. M. Sharada,  Hengyuan Shen,  
 W. Skomorowski,  D. W. Small,  C. J. Stein,  Yingli Su,  Yu-Chuan Su,  
 E. J. Sundstrom,  Zhen Tao,  J. Thirman,  Hung-Yi Tsai,  T. Tsuchimochi,  
 N. M. Tubman,  C. Utku,  S. P. Veccham,  O. Vydrov,  J. Wenzel,  
 Jonathan Wong,  J. Witte,  A. Yamada,  Chou-Hsun Yang,  Kun Yao,  
 S. Yeganeh,  S. R. Yost,  A. Zech,  F. Zeller,  Igor Ying Zhang,  
 Xing Zhang,  Yu Zhang,  D. Zuev,  A. Aspuru-Guzik,  A. T. Bell,  
 N. A. Besley,  K. B. Bravaya,  B. R. Brooks,  D. Casanova,  Jeng-Da Chai,  
 Hsing-Ta Chen,  S. Coriani,  C. J. Cramer,  A. E. DePrince, III,  
 R. A. DiStasio Jr.,  A. Dreuw,  B. D. Dunietz,  T. R. Furlani,  
 W. A. Goddard III,  S. Grimme,  S. Hammes-Schiffer,  T. Head-Gordon,  
 W. J. Hehre,  Chao-Ping Hsu,  T.-C. Jagau,  Yousung Jung,  A. Klamt,  
 Jing Kong,  D. S. Lambrecht,  Xiangyuan Li,  WanZhen Liang,  N. J. Mayhall,  
 C. W. McCurdy,  J. B. Neaton,  T. Neudecker,  C. Ochsenfeld,  
 J. A. Parkhill,  R. Peverati,  V. A. Rassolov,  Haisheng Ren,  Yihan Shao,  
 L. V. Slipchenko,  R. P. Steele,  J. E. Subotnik,  A. J. W. Thom,  
 A. Tkatchenko,  D. G. Truhlar,  T. Van Voorhis,  Fan Wang,  
 T. A. Wesolowski,  K. B. Whaley,  H. L. Woodcock III,  P. M. Zimmerman,  
 S. Faraji,  P. M. W. Gill,  M. Head-Gordon,  J. M. Herbert,  A. I. Krylov

 Contributors to earlier versions of Q-Chem not listed above: 
 R. D. Adamson,  B. Austin,  R. Baer,  J. Baker,  G. J. O. Beran,  
 K. Brandhorst,  S. T. Brown,  E. F. C. Byrd,  Arup K. Chakraborty,  
 G. K. L. Chan,  Chun-Min Chang,  Yunqing Chen,  C.-L. Cheng,  
 Siu Hung Chien,  D. M. Chipman,  D. L. Crittenden,  H. Dachsel,  
 R. J. Doerksen,  A. D. Dutoi,  R. G. Edgar,  J. Fosso-Tande,  
 L. Fusti-Molnar,  D. Ghosh,  A. Ghysels,  A. Golubeva-Zadorozhnaya,  
 J. Gonthier,  M. S. Gordon,  S. R. Gwaltney,  G. Hawkins,  J. E. Herr,  
 A. Heyden,  S. Hirata,  E. G. Hohenstein,  G. Kedziora,  F. J. Keil,  
 C. Kelley,  Jihan Kim,  R. A. King,  R. Z. Khaliullin,  P. P. Korambath,  
 W. Kurlancheek,  A. Laurent,  A. M. Lee,  M. S. Lee,  S. V. Levchenko,  
 Ching Yeh Lin,  D. Liotard,  E. Livshits,  R. C. Lochan,  I. Lotan,  
 L. A. Martinez-Martinez,  P. E. Maslen,  N. Nair,  D. P. O'Neill,  
 D. Neuhauser,  E. Neuscamman,  C. M. Oana,  R. Olivares-Amaya,  R. Olson,  
 T. M. Perrine,  B. Peters,  P. A. Pieniazek,  A. Prociuk,  Y. M. Rhee,  
 J. Ritchie,  M. A. Rohrdanz,  E. Rosta,  N. J. Russ,  H. F. Schaefer III,  
 M. W. Schmidt,  N. E. Schultz,  S. Sharma,  N. Shenvi,  C. D. Sherrill,  
 A. C. Simmonett,  A. Sodt,  T. Stein,  D. Stuck,  K. S. Thanthiriwatte,  
 V. Vanovschi,  L. Vogt,  Tao Wang,  A. Warshel,  M. A. Watson,  
 C. F. Williams,  Q. Wu,  X. Xu,  Jun Yang,  W. Zhang,  Yan Zhao

   Please cite Q-Chem as follows:
  "Software for the frontiers of quantum chemistry:
   An overview of developments in the Q-Chem 5 package"
   J. Chem. Phys. 155, 084801 (2021)
   https://doi.org/10.1063/5.0055522 (open access)

 Q-Chem 6.0.2 for Intel X86 EM64T Linux

 Parts of Q-Chem use Armadillo 9.900.5 (Nocturnal Misbehaviour).
 http://arma.sourceforge.net/

 Q-Chem begins on Tue Aug  6 12:59:09 2024  

 Host: 
0

     Scratch files written to ./qchem712624//
 Dec722 |scratch|qcdevops|jenkins|workspace|build_RNUM    
 Processing $rem in /cm/shared/apps/spack/0.17.3/cpu/b/opt/spack/linux-rocky8-zen2/gcc-10.2.0/qchem-6.0-rytxnwjazd34ekd2gqyi5ufsaimxsd3r/config/preferences:
 Processing $rem in /home/hklem/.qchemrc:
 No nuclear gradient supported for projection-based embedding or EMFT. Set max ideriv = 0.

 Checking the input file for inconsistencies... 	...done.

--------------------------------------------------------------
User input:
--------------------------------------------------------------
$molecule
-1 1
--
0 1
C    2.02100    -1.76900   1.39200
O    3.06000    -2.35100   1.77000
C    1.87000    -0.34500   1.48500
C    0.67600    0.26100    1.24900
C    -0.49700   -0.47900   0.63800
C    -0.05300   -1.79200   -0.01200
C    0.85200    -2.58700   0.91800
C    0.43900    1.65700    1.70700
C    -0.43900   2.49700    0.78300
C    -1.70100   1.74200    0.37300
C    -1.28400   0.43300    -0.33200
C    -2.58600   2.56300    -0.55400
C    -3.82400   1.80200    -1.07000
C    -3.35600   0.57300    -1.84900
C    -2.45000   -0.32200   -0.99300
C    -3.16400   3.89200    -0.05400
C    -4.30100   4.19500    -1.06400
C    -4.46000   2.92000    -1.92200
C    -4.79400   1.38300    0.04800
O    -5.82200   2.73500    -2.27300
H    2.70500    0.21600    1.89500
H    -1.16900   -0.71100   1.48300
H    0.48200    -1.56900   -0.94700
H    -0.91900   -2.40500   -0.27800
H    0.28700    -2.87900   1.81400
H    1.21500    -3.51300   0.46000
H    1.38900    2.15600    1.91200
H    -0.06300   1.53600    2.69000
H    0.12200    2.76700    -0.12200
H    -0.69200   3.43400    1.29000
H    -2.26000   1.49600    1.28800
H    -0.58900   0.72600    -1.13800
H    -1.97500   2.79100    -1.44700
H    -2.80000   0.90000    -2.73900
H    -4.20700   -0.02200   -2.20400
H    -3.05100   -0.82700   -0.22500
H    -2.04900   -1.11200   -1.63600
H    -2.41900   4.68800    -0.01300
H    -3.54800   3.78200    0.96600
H    -4.06700   5.06400    -1.68700
H    -5.25200   4.40400    -0.56500
H    -3.86100   3.02100    -2.84500
H    -5.24600   2.24500    0.54600
H    -5.60600   0.77300    -0.36200
H    -4.29500   0.78500    0.81500
H    -5.89700   1.86500    -2.68500
--
-1 1
H    7.28800    -7.64700   -3.59200
C    6.55700    -7.24400   -2.87600
H    5.99000    -8.08300   -2.46700
C    7.29700    -6.50900   -1.74500
H    8.05600    -7.18800   -1.33900
H    7.84500    -5.64600   -2.14600
C    6.36500    -6.06400   -0.64700
C    6.14900    -6.84300   0.49100
H    6.70000    -7.77200   0.61800
C    5.24000    -6.45500   1.46600
H    5.07100    -7.06300   2.34900
C    4.52200    -5.27000   1.31100
O    3.61900    -4.93700   2.27900
H    3.28500    -4.02500   2.10100
C    4.72100    -4.48000   0.18100
H    4.16500    -3.55800   0.05400
C    5.63600    -4.88500   -0.78000
H    5.77400    -4.27300   -1.66500
C    5.53800    -6.40300   -3.66700
O    4.37200    -6.75200   -3.77200
N    6.01500    -5.27100   -4.27200
H    7.00200    -5.07000   -4.21000
C    5.21000    -4.45300   -5.17700
H    4.16700    -4.68400   -4.94900
C    5.47700    -2.94600   -5.05200
H    6.52300    -2.76300   -5.34500
C    4.58400    -2.20100   -6.05100
H    4.75000    -1.12000   -5.98200
H    3.52300    -2.38800   -5.84900
H    4.78500    -2.51500   -7.08200
C    5.31200    -2.40100   -3.62400
H    6.12500    -2.79300   -3.00000
H    5.46400    -1.31500   -3.64700
C    3.97000    -2.71100   -2.96600
H    3.91800    -2.24100   -1.97800
H    3.82000    -3.78800   -2.83700
H    3.13200    -2.31900   -3.55200
H    5.38600    -4.76800   -6.21600
H    1.17100    -6.95000   -4.45900
C    0.46900    -6.11600   -4.35000
H    -0.41700   -6.48500   -3.81800
C    1.12500    -4.96300   -3.58200
H    2.01900    -4.66200   -4.14400
C    0.19900    -3.74800   -3.48900
H    -0.16200   -3.43600   -4.47500
H    -0.67600   -3.97500   -2.87100
H    0.71600    -2.89400   -3.03400
C    1.58000    -5.41400   -2.19100
H    2.00700    -4.57600   -1.62600
H    2.34800    -6.19000   -2.26100
H    0.73500    -5.81000   -1.61100
H    0.15400    -5.79700   -5.35100
H    0.29800    1.20900    8.82600
C    0.12400    1.63700    7.83200
H    0.94300    2.32000    7.60500
C    0.09600    0.51600    6.78000
H    -0.80400   -0.08800   6.90900
H    0.97700    -0.12100   6.92200
C    0.15000    1.10700    5.36200
O    1.16200    1.85000    5.15100
O    -0.76300   0.85100    4.55400
C    -1.24500   2.31000    7.89000
O    -2.25800   1.65000    8.10900
N    -1.32100   3.65000    7.68100
C    -2.62300   4.31100    7.66100
H    -3.14700   4.06700    6.72900
H    -3.23800   3.96000    8.49300
C    -2.27400   5.79900    7.73300
H    -3.02900   6.42500    7.25000
H    -2.18600   6.11600    8.78000
C    -0.91000   5.87300    7.03800
H    -0.33300   6.76400    7.30400
H    -1.04300   5.86600    5.95200
C    -0.21400   4.58100    7.48000
H    0.47600    4.21300    6.71400
H    0.34700    4.72700    8.41500
H    -4.10300   -7.81100   2.97100
C    -4.28500   -6.73200   3.00700
H    -3.89900   -6.36100   3.96300
C    -3.59800   -6.02700   1.83300
H    -4.03800   -6.38000   0.89200
H    -3.79700   -4.94900   1.88100
C    -2.10900   -6.27300   1.83200
C    -1.58400   -7.46400   1.32100
H    -2.25700   -8.19200   0.87100
C    -0.22600   -7.74100   1.36500
H    0.17700    -8.66000   0.95300
C    0.65500    -6.82300   1.94600
O    1.96400    -7.14100   1.98800
H    2.48400    -6.35400   2.24600
C    0.14700    -5.63100   2.46900
H    0.82200    -4.92100   2.93900
C    -1.21800   -5.36500   2.40200
H    -1.59500   -4.43200   2.81700
H    -5.37300   -6.57500   2.99000
H    -9.50500   -4.81500   4.10300
C    -9.45200   -5.31300   3.12500
H    -8.74400   -6.14400   3.23600
C    -10.83100  -5.81900   2.71800
H    -10.75300  -6.34000   1.75600
H    -11.46400  -4.94100   2.55100
C    -11.43700  -6.74600   3.77200
H    -10.75700  -7.57200   4.00200
H    -11.57900  -6.20100   4.71400
C    -12.77600  -7.39600   3.44100
O    -13.17600  -8.37000   4.05400
N    -13.50900  -6.81500   2.45000
H    -13.19700  -6.01600   1.92500
H    -14.40500  -7.22100   2.23000
C    -8.91400   -4.28000   2.11300
O    -9.66300   -3.62900   1.40600
N    -7.54700   -4.12400   2.04400
H    -6.98100   -4.59200   2.73700
C    -6.93800   -3.00500   1.31900
H    -6.02800   -2.69900   1.84000
H    -7.62900   -2.15900   1.31900
C    -6.56000   -3.25200   -0.15000
O    -6.15500   -2.31000   -0.81800
N    -6.68500   -4.51900   -0.60800
H    -7.02900   -5.21000   0.04300
C    -6.36100   -4.92400   -1.97200
H    -6.35900   -4.01300   -2.57500
C    -5.02500   -5.66000   -2.08000
H    -5.08000   -6.57700   -1.47500
H    -4.89900   -5.98600   -3.12200
C    -3.79300   -4.85200   -1.65200
H    -3.95500   -4.51200   -0.62100
C    -2.55400   -5.74900   -1.66800
H    -1.69000   -5.24400   -1.22400
H    -2.71200   -6.67300   -1.10300
H    -2.29300   -6.02400   -2.69700
C    -3.57700   -3.61500   -2.52500
H    -3.46300   -3.89500   -3.58100
H    -4.40200   -2.90200   -2.43000
H    -2.66100   -3.09500   -2.22600
H    -7.17200   -5.56200   -2.33900
H    -6.55900   -2.12700   -6.96500
C    -5.54600   -1.72800   -6.84300
H    -5.53100   -0.71800   -7.27000
C    -5.13100   -1.70800   -5.36700
H    -5.14400   -2.74500   -5.00300
C    -3.70700   -1.17100   -5.20000
H    -2.99000   -1.75200   -5.79200
H    -3.64700   -0.12500   -5.52900
H    -3.38700   -1.20900   -4.15300
C    -6.12000   -0.90700   -4.51500
H    -6.07400   0.16200    -4.77200
H    -7.15100   -1.24200   -4.67900
H    -5.90500   -1.01700   -3.44600
H    -4.86300   -2.34700   -7.43600
H    0.67600    -1.11100   -8.67900
C    1.11800    -0.85600   -7.71000
H    0.75500    0.13800    -7.42800
C    0.75800    -1.89000   -6.64500
H    1.20400    -1.63600   -5.67700
H    1.11100    -2.89000   -6.91800
H    -0.32600   -1.94600   -6.49700
H    2.20400    -0.79100   -7.84300
H    11.60400   1.86600    -0.65000
C    11.17000   1.97000    -1.65000
H    11.96700   2.28000    -2.33300
C    10.53300   0.65800    -2.11300
H    11.30000   -0.12400   -2.15600
H    10.14300   0.77200    -3.13200
C    9.40200    0.19500    -1.19300
H    8.57200    0.91200    -1.21300
H    9.75900    0.12500    -0.15900
S    8.79700    -1.44500   -1.71300
C    7.55600    -1.74500   -0.42600
H    7.99100    -1.60800   0.56900
H    6.68700    -1.09400   -0.54400
H    7.23200    -2.78400   -0.51000
H    10.42900   2.77700    -1.60900
H    6.85600    3.77500    -4.34900
C    6.12700    3.62500    -5.15200
H    6.56400    4.00400    -6.08200
C    5.74700    2.14400    -5.28300
H    5.04900    2.01800    -6.11900
H    6.64400    1.56300    -5.53600
C    5.13000    1.59300    -4.01800
C    3.79400    1.18700    -3.96900
H    3.18400    1.24200    -4.86900
C    3.23200    0.71700    -2.78200
H    2.19000    0.41000    -2.76300
C    4.00100    0.64900    -1.62500
H    3.57900    0.29200    -0.69100
C    5.33300    1.05500    -1.66100
H    5.91700    1.02500    -0.74800
C    5.89100    1.51300    -2.84800
H    6.93500    1.82100    -2.86900
H    5.24500    4.22900    -4.91400
H    0.28100    2.59600    -6.28000
C    -0.71200   2.71000    -5.82500
H    -1.42900   2.15400    -6.44000
C    -0.70300   2.19600    -4.38200
H    -1.71200   2.34300    -3.97000
C    -0.38500   0.70000    -4.34200
H    0.62200    0.51400    -4.73700
H    -1.09200   0.12000    -4.94600
H    -0.42100   0.30700    -3.31900
C    0.27800    2.98600    -3.51200
H    1.30700    2.86700    -3.87100
H    0.25300    2.63800    -2.47300
H    0.04300    4.05600    -3.51100
H    -0.98100   3.77200    -5.86900
H    -7.62000   3.72800    -7.51600
C    -7.42100   2.67100    -7.31400
H    -7.76000   2.08700    -8.17700
C    -5.93500   2.42200    -7.04500
H    -5.34300   2.69700    -7.92700
H    -5.77400   1.34900    -6.88900
C    -5.37600   3.14400    -5.81800
H    -5.97200   2.92300    -4.92500
H    -4.34900   2.80900    -5.62500
S    -5.35800   4.95400    -6.05700
C    -4.80700   5.44700    -4.40200
H    -5.46500   5.02300    -3.64000
H    -3.77700   5.12600    -4.21200
H    -4.85100   6.53800    -4.34700
H    -8.02600   2.37800    -6.44800
H    -2.34900   7.45400    -4.53600
C    -1.42000   7.63300    -3.98400
H    -1.38100   8.70100    -3.74400
C    -1.35200   6.76200    -2.72900
H    -1.54700   5.71600    -3.00300
H    -2.16200   7.04200    -2.04100
C    -0.02100   6.82100    -1.96400
H    0.76700    6.45000    -2.63800
C    0.35400    8.24400    -1.54100
H    0.48300    8.91400    -2.39800
H    -0.42300   8.67100    -0.89200
H    1.29200    8.24000    -0.97400
C    -0.07200   5.90800    -0.74000
H    -0.32700   4.88000    -1.02000
H    -0.82500   6.25600    -0.02100
H    0.88600    5.88000    -0.21300
H    -0.58400   7.41200    -4.65900
H    3.02800    6.06800    -1.55100
C    3.78500    5.89300    -0.77600
H    3.42000    6.34800    0.15200
C    4.03700    4.39500    -0.57500
H    4.39700    3.97100    -1.52400
C    5.11600    4.15600    0.48400
H    5.27400    3.08500    0.65000
H    6.07200    4.60700    0.19100
H    4.81800    4.60200    1.44200
C    2.74300    3.67400    -0.20400
H    2.92200    2.60900    -0.01900
H    2.00600    3.75700    -1.01100
H    2.29600    4.10500    0.70200
H    4.70100    6.41900    -1.07100
H    7.76300    1.60600    1.45100
C    7.48400    1.59100    2.51000
H    6.67400    2.31200    2.64800
C    7.04400    0.20100    2.94500
H    7.85400    -0.53300   2.85400
H    6.74400    0.19500    4.00100
C    5.85500    -0.31400   2.17200
O    5.24300    0.32300    1.33500
O    5.52600    -1.55200   2.52400
H    4.64900    -1.77500   2.12000
H    8.34600    1.92100    3.09800
H    7.27700    -3.14500   8.66300
C    7.04100    -2.53900   7.78200
H    7.96100    -2.42000   7.19700
C    5.94100    -3.18900   6.94300
H    6.26300    -4.19500   6.63900
H    5.03700    -3.31300   7.55100
C    5.59000    -2.40700   5.67600
H    6.48000    -2.26600   5.05400
H    4.87200    -2.96300   5.06700
S    4.86000    -0.75800   6.01700
C    3.26100    -0.91100   5.16800
H    2.64600    -1.68700   5.63300
H    3.41000    -1.14300   4.11100
H    2.74300    0.05100    5.24800
H    6.73200    -1.54700   8.12900
H    3.71000    2.14400    5.89100
C    4.09600    2.81500    5.12100
H    5.15400    3.01700    5.33100
C    3.90800    2.20900    3.73800
H    4.24400    2.87600    2.93600
H    2.85300    1.97000    3.58400
H    4.47500    1.27900    3.64900
H    3.54200    3.75500    5.22200
H    2.51300    7.98200    4.12300
C    1.80700    8.40900    3.40300
H    2.24300    9.32800    2.99400
C    1.49400    7.39400    2.29500
H    0.83000    7.85500    1.55300
H    2.42400    7.15600    1.76400
C    0.87300    6.13400    2.81700
C    1.53100    5.02600    3.29400
H    2.59500    4.82700    3.32600
N    0.64900    4.10100    3.77700
H    0.88200    3.18700    4.22900
C    -0.61900   4.58700    3.61700
C    -1.84700   3.99100    3.93400
H    -1.87900   2.99000    4.35700
C    -2.99100   4.72100    3.65900
H    -3.96300   4.29200    3.88900
C    -2.92400   6.00500    3.07400
H    -3.84500   6.54500    2.86900
C    -1.70800   6.58100    2.75000
H    -1.66800   7.56900    2.29500
C    -0.52500   5.87100    3.01900
H    0.89600    8.67300    3.95100
H    -2.81700   12.22400   -3.12000
C    -3.59900   11.50900   -2.84500
H    -3.85700   10.93900   -3.74300
C    -3.12600   10.59300   -1.71200
H    -2.74600   11.21100   -0.88700
H    -2.27300   9.99300    -2.05800
C    -4.19800   9.64400    -1.15300
H    -5.02700   10.26400   -0.77700
C    -4.76100   8.70800    -2.22700
H    -3.95400   8.13900    -2.70200
H    -5.46400   7.98900    -1.79200
H    -5.29100   9.25800    -3.01200
C    -3.64000   8.84100    0.02700
H    -2.80800   8.20000    -0.28900
H    -3.26700   9.50100    0.81800
H    -4.40500   8.18900    0.46300
H    -4.48500   12.08000   -2.54300
$end

$rem
JOBTYPE  SP
METHOD  WB97X-V
BASIS  6-31G(D)
SYMMETRY  FALSE
SYM_IGNORE  TRUE
MEM_TOTAL  12000
MEM_STATIC  4000
BASIS_LIN_DEP_THRESH  6
THRESH  14
SCF_CONVERGENCE  8
FD_MAT_VEC_PROD  FALSE
XC_GRID  000075000302
NL_GRID  1
MAX_SCF_CYCLES  200
ENV_METHOD  WB97X-V
GEN_SCFMAN_EMBED  TRUE
SPADE_PARTITION  TRUE
EMBEDDING_EARLY_STOP  TRUE
$end

--------------------------------------------------------------
 ----------------------------------------------------------------
             Standard Nuclear Orientation (Angstroms)
    I     Atom           X                Y                Z
 ----------------------------------------------------------------
    1      C       2.0210000000    -1.7690000000     1.3920000000
    2      O       3.0600000000    -2.3510000000     1.7700000000
    3      C       1.8700000000    -0.3450000000     1.4850000000
    4      C       0.6760000000     0.2610000000     1.2490000000
    5      C      -0.4970000000    -0.4790000000     0.6380000000
    6      C      -0.0530000000    -1.7920000000    -0.0120000000
    7      C       0.8520000000    -2.5870000000     0.9180000000
    8      C       0.4390000000     1.6570000000     1.7070000000
    9      C      -0.4390000000     2.4970000000     0.7830000000
   10      C      -1.7010000000     1.7420000000     0.3730000000
   11      C      -1.2840000000     0.4330000000    -0.3320000000
   12      C      -2.5860000000     2.5630000000    -0.5540000000
   13      C      -3.8240000000     1.8020000000    -1.0700000000
   14      C      -3.3560000000     0.5730000000    -1.8490000000
   15      C      -2.4500000000    -0.3220000000    -0.9930000000
   16      C      -3.1640000000     3.8920000000    -0.0540000000
   17      C      -4.3010000000     4.1950000000    -1.0640000000
   18      C      -4.4600000000     2.9200000000    -1.9220000000
   19      C      -4.7940000000     1.3830000000     0.0480000000
   20      O      -5.8220000000     2.7350000000    -2.2730000000
   21      H       2.7050000000     0.2160000000     1.8950000000
   22      H      -1.1690000000    -0.7110000000     1.4830000000
   23      H       0.4820000000    -1.5690000000    -0.9470000000
   24      H      -0.9190000000    -2.4050000000    -0.2780000000
   25      H       0.2870000000    -2.8790000000     1.8140000000
   26      H       1.2150000000    -3.5130000000     0.4600000000
   27      H       1.3890000000     2.1560000000     1.9120000000
   28      H      -0.0630000000     1.5360000000     2.6900000000
   29      H       0.1220000000     2.7670000000    -0.1220000000
   30      H      -0.6920000000     3.4340000000     1.2900000000
   31      H      -2.2600000000     1.4960000000     1.2880000000
   32      H      -0.5890000000     0.7260000000    -1.1380000000
   33      H      -1.9750000000     2.7910000000    -1.4470000000
   34      H      -2.8000000000     0.9000000000    -2.7390000000
   35      H      -4.2070000000    -0.0220000000    -2.2040000000
   36      H      -3.0510000000    -0.8270000000    -0.2250000000
   37      H      -2.0490000000    -1.1120000000    -1.6360000000
   38      H      -2.4190000000     4.6880000000    -0.0130000000
   39      H      -3.5480000000     3.7820000000     0.9660000000
   40      H      -4.0670000000     5.0640000000    -1.6870000000
   41      H      -5.2520000000     4.4040000000    -0.5650000000
   42      H      -3.8610000000     3.0210000000    -2.8450000000
   43      H      -5.2460000000     2.2450000000     0.5460000000
   44      H      -5.6060000000     0.7730000000    -0.3620000000
   45      H      -4.2950000000     0.7850000000     0.8150000000
   46      H      -5.8970000000     1.8650000000    -2.6850000000
   47      H       7.2880000000    -7.6470000000    -3.5920000000
   48      C       6.5570000000    -7.2440000000    -2.8760000000
   49      H       5.9900000000    -8.0830000000    -2.4670000000
   50      C       7.2970000000    -6.5090000000    -1.7450000000
   51      H       8.0560000000    -7.1880000000    -1.3390000000
   52      H       7.8450000000    -5.6460000000    -2.1460000000
   53      C       6.3650000000    -6.0640000000    -0.6470000000
   54      C       6.1490000000    -6.8430000000     0.4910000000
   55      H       6.7000000000    -7.7720000000     0.6180000000
   56      C       5.2400000000    -6.4550000000     1.4660000000
   57      H       5.0710000000    -7.0630000000     2.3490000000
   58      C       4.5220000000    -5.2700000000     1.3110000000
   59      O       3.6190000000    -4.9370000000     2.2790000000
   60      H       3.2850000000    -4.0250000000     2.1010000000
   61      C       4.7210000000    -4.4800000000     0.1810000000
   62      H       4.1650000000    -3.5580000000     0.0540000000
   63      C       5.6360000000    -4.8850000000    -0.7800000000
   64      H       5.7740000000    -4.2730000000    -1.6650000000
   65      C       5.5380000000    -6.4030000000    -3.6670000000
   66      O       4.3720000000    -6.7520000000    -3.7720000000
   67      N       6.0150000000    -5.2710000000    -4.2720000000
   68      H       7.0020000000    -5.0700000000    -4.2100000000
   69      C       5.2100000000    -4.4530000000    -5.1770000000
   70      H       4.1670000000    -4.6840000000    -4.9490000000
   71      C       5.4770000000    -2.9460000000    -5.0520000000
   72      H       6.5230000000    -2.7630000000    -5.3450000000
   73      C       4.5840000000    -2.2010000000    -6.0510000000
   74      H       4.7500000000    -1.1200000000    -5.9820000000
   75      H       3.5230000000    -2.3880000000    -5.8490000000
   76      H       4.7850000000    -2.5150000000    -7.0820000000
   77      C       5.3120000000    -2.4010000000    -3.6240000000
   78      H       6.1250000000    -2.7930000000    -3.0000000000
   79      H       5.4640000000    -1.3150000000    -3.6470000000
   80      C       3.9700000000    -2.7110000000    -2.9660000000
   81      H       3.9180000000    -2.2410000000    -1.9780000000
   82      H       3.8200000000    -3.7880000000    -2.8370000000
   83      H       3.1320000000    -2.3190000000    -3.5520000000
   84      H       5.3860000000    -4.7680000000    -6.2160000000
   85      H       1.1710000000    -6.9500000000    -4.4590000000
   86      C       0.4690000000    -6.1160000000    -4.3500000000
   87      H      -0.4170000000    -6.4850000000    -3.8180000000
   88      C       1.1250000000    -4.9630000000    -3.5820000000
   89      H       2.0190000000    -4.6620000000    -4.1440000000
   90      C       0.1990000000    -3.7480000000    -3.4890000000
   91      H      -0.1620000000    -3.4360000000    -4.4750000000
   92      H      -0.6760000000    -3.9750000000    -2.8710000000
   93      H       0.7160000000    -2.8940000000    -3.0340000000
   94      C       1.5800000000    -5.4140000000    -2.1910000000
   95      H       2.0070000000    -4.5760000000    -1.6260000000
   96      H       2.3480000000    -6.1900000000    -2.2610000000
   97      H       0.7350000000    -5.8100000000    -1.6110000000
   98      H       0.1540000000    -5.7970000000    -5.3510000000
   99      H       0.2980000000     1.2090000000     8.8260000000
  100      C       0.1240000000     1.6370000000     7.8320000000
  101      H       0.9430000000     2.3200000000     7.6050000000
  102      C       0.0960000000     0.5160000000     6.7800000000
  103      H      -0.8040000000    -0.0880000000     6.9090000000
  104      H       0.9770000000    -0.1210000000     6.9220000000
  105      C       0.1500000000     1.1070000000     5.3620000000
  106      O       1.1620000000     1.8500000000     5.1510000000
  107      O      -0.7630000000     0.8510000000     4.5540000000
  108      C      -1.2450000000     2.3100000000     7.8900000000
  109      O      -2.2580000000     1.6500000000     8.1090000000
  110      N      -1.3210000000     3.6500000000     7.6810000000
  111      C      -2.6230000000     4.3110000000     7.6610000000
  112      H      -3.1470000000     4.0670000000     6.7290000000
  113      H      -3.2380000000     3.9600000000     8.4930000000
  114      C      -2.2740000000     5.7990000000     7.7330000000
  115      H      -3.0290000000     6.4250000000     7.2500000000
  116      H      -2.1860000000     6.1160000000     8.7800000000
  117      C      -0.9100000000     5.8730000000     7.0380000000
  118      H      -0.3330000000     6.7640000000     7.3040000000
  119      H      -1.0430000000     5.8660000000     5.9520000000
  120      C      -0.2140000000     4.5810000000     7.4800000000
  121      H       0.4760000000     4.2130000000     6.7140000000
  122      H       0.3470000000     4.7270000000     8.4150000000
  123      H      -4.1030000000    -7.8110000000     2.9710000000
  124      C      -4.2850000000    -6.7320000000     3.0070000000
  125      H      -3.8990000000    -6.3610000000     3.9630000000
  126      C      -3.5980000000    -6.0270000000     1.8330000000
  127      H      -4.0380000000    -6.3800000000     0.8920000000
  128      H      -3.7970000000    -4.9490000000     1.8810000000
  129      C      -2.1090000000    -6.2730000000     1.8320000000
  130      C      -1.5840000000    -7.4640000000     1.3210000000
  131      H      -2.2570000000    -8.1920000000     0.8710000000
  132      C      -0.2260000000    -7.7410000000     1.3650000000
  133      H       0.1770000000    -8.6600000000     0.9530000000
  134      C       0.6550000000    -6.8230000000     1.9460000000
  135      O       1.9640000000    -7.1410000000     1.9880000000
  136      H       2.4840000000    -6.3540000000     2.2460000000
  137      C       0.1470000000    -5.6310000000     2.4690000000
  138      H       0.8220000000    -4.9210000000     2.9390000000
  139      C      -1.2180000000    -5.3650000000     2.4020000000
  140      H      -1.5950000000    -4.4320000000     2.8170000000
  141      H      -5.3730000000    -6.5750000000     2.9900000000
  142      H      -9.5050000000    -4.8150000000     4.1030000000
  143      C      -9.4520000000    -5.3130000000     3.1250000000
  144      H      -8.7440000000    -6.1440000000     3.2360000000
  145      C     -10.8310000000    -5.8190000000     2.7180000000
  146      H     -10.7530000000    -6.3400000000     1.7560000000
  147      H     -11.4640000000    -4.9410000000     2.5510000000
  148      C     -11.4370000000    -6.7460000000     3.7720000000
  149      H     -10.7570000000    -7.5720000000     4.0020000000
  150      H     -11.5790000000    -6.2010000000     4.7140000000
  151      C     -12.7760000000    -7.3960000000     3.4410000000
  152      O     -13.1760000000    -8.3700000000     4.0540000000
  153      N     -13.5090000000    -6.8150000000     2.4500000000
  154      H     -13.1970000000    -6.0160000000     1.9250000000
  155      H     -14.4050000000    -7.2210000000     2.2300000000
  156      C      -8.9140000000    -4.2800000000     2.1130000000
  157      O      -9.6630000000    -3.6290000000     1.4060000000
  158      N      -7.5470000000    -4.1240000000     2.0440000000
  159      H      -6.9810000000    -4.5920000000     2.7370000000
  160      C      -6.9380000000    -3.0050000000     1.3190000000
  161      H      -6.0280000000    -2.6990000000     1.8400000000
  162      H      -7.6290000000    -2.1590000000     1.3190000000
  163      C      -6.5600000000    -3.2520000000    -0.1500000000
  164      O      -6.1550000000    -2.3100000000    -0.8180000000
  165      N      -6.6850000000    -4.5190000000    -0.6080000000
  166      H      -7.0290000000    -5.2100000000     0.0430000000
  167      C      -6.3610000000    -4.9240000000    -1.9720000000
  168      H      -6.3590000000    -4.0130000000    -2.5750000000
  169      C      -5.0250000000    -5.6600000000    -2.0800000000
  170      H      -5.0800000000    -6.5770000000    -1.4750000000
  171      H      -4.8990000000    -5.9860000000    -3.1220000000
  172      C      -3.7930000000    -4.8520000000    -1.6520000000
  173      H      -3.9550000000    -4.5120000000    -0.6210000000
  174      C      -2.5540000000    -5.7490000000    -1.6680000000
  175      H      -1.6900000000    -5.2440000000    -1.2240000000
  176      H      -2.7120000000    -6.6730000000    -1.1030000000
  177      H      -2.2930000000    -6.0240000000    -2.6970000000
  178      C      -3.5770000000    -3.6150000000    -2.5250000000
  179      H      -3.4630000000    -3.8950000000    -3.5810000000
  180      H      -4.4020000000    -2.9020000000    -2.4300000000
  181      H      -2.6610000000    -3.0950000000    -2.2260000000
  182      H      -7.1720000000    -5.5620000000    -2.3390000000
  183      H      -6.5590000000    -2.1270000000    -6.9650000000
  184      C      -5.5460000000    -1.7280000000    -6.8430000000
  185      H      -5.5310000000    -0.7180000000    -7.2700000000
  186      C      -5.1310000000    -1.7080000000    -5.3670000000
  187      H      -5.1440000000    -2.7450000000    -5.0030000000
  188      C      -3.7070000000    -1.1710000000    -5.2000000000
  189      H      -2.9900000000    -1.7520000000    -5.7920000000
  190      H      -3.6470000000    -0.1250000000    -5.5290000000
  191      H      -3.3870000000    -1.2090000000    -4.1530000000
  192      C      -6.1200000000    -0.9070000000    -4.5150000000
  193      H      -6.0740000000     0.1620000000    -4.7720000000
  194      H      -7.1510000000    -1.2420000000    -4.6790000000
  195      H      -5.9050000000    -1.0170000000    -3.4460000000
  196      H      -4.8630000000    -2.3470000000    -7.4360000000
  197      H       0.6760000000    -1.1110000000    -8.6790000000
  198      C       1.1180000000    -0.8560000000    -7.7100000000
  199      H       0.7550000000     0.1380000000    -7.4280000000
  200      C       0.7580000000    -1.8900000000    -6.6450000000
  201      H       1.2040000000    -1.6360000000    -5.6770000000
  202      H       1.1110000000    -2.8900000000    -6.9180000000
  203      H      -0.3260000000    -1.9460000000    -6.4970000000
  204      H       2.2040000000    -0.7910000000    -7.8430000000
  205      H      11.6040000000     1.8660000000    -0.6500000000
  206      C      11.1700000000     1.9700000000    -1.6500000000
  207      H      11.9670000000     2.2800000000    -2.3330000000
  208      C      10.5330000000     0.6580000000    -2.1130000000
  209      H      11.3000000000    -0.1240000000    -2.1560000000
  210      H      10.1430000000     0.7720000000    -3.1320000000
  211      C       9.4020000000     0.1950000000    -1.1930000000
  212      H       8.5720000000     0.9120000000    -1.2130000000
  213      H       9.7590000000     0.1250000000    -0.1590000000
  214      S       8.7970000000    -1.4450000000    -1.7130000000
  215      C       7.5560000000    -1.7450000000    -0.4260000000
  216      H       7.9910000000    -1.6080000000     0.5690000000
  217      H       6.6870000000    -1.0940000000    -0.5440000000
  218      H       7.2320000000    -2.7840000000    -0.5100000000
  219      H      10.4290000000     2.7770000000    -1.6090000000
  220      H       6.8560000000     3.7750000000    -4.3490000000
  221      C       6.1270000000     3.6250000000    -5.1520000000
  222      H       6.5640000000     4.0040000000    -6.0820000000
  223      C       5.7470000000     2.1440000000    -5.2830000000
  224      H       5.0490000000     2.0180000000    -6.1190000000
  225      H       6.6440000000     1.5630000000    -5.5360000000
  226      C       5.1300000000     1.5930000000    -4.0180000000
  227      C       3.7940000000     1.1870000000    -3.9690000000
  228      H       3.1840000000     1.2420000000    -4.8690000000
  229      C       3.2320000000     0.7170000000    -2.7820000000
  230      H       2.1900000000     0.4100000000    -2.7630000000
  231      C       4.0010000000     0.6490000000    -1.6250000000
  232      H       3.5790000000     0.2920000000    -0.6910000000
  233      C       5.3330000000     1.0550000000    -1.6610000000
  234      H       5.9170000000     1.0250000000    -0.7480000000
  235      C       5.8910000000     1.5130000000    -2.8480000000
  236      H       6.9350000000     1.8210000000    -2.8690000000
  237      H       5.2450000000     4.2290000000    -4.9140000000
  238      H       0.2810000000     2.5960000000    -6.2800000000
  239      C      -0.7120000000     2.7100000000    -5.8250000000
  240      H      -1.4290000000     2.1540000000    -6.4400000000
  241      C      -0.7030000000     2.1960000000    -4.3820000000
  242      H      -1.7120000000     2.3430000000    -3.9700000000
  243      C      -0.3850000000     0.7000000000    -4.3420000000
  244      H       0.6220000000     0.5140000000    -4.7370000000
  245      H      -1.0920000000     0.1200000000    -4.9460000000
  246      H      -0.4210000000     0.3070000000    -3.3190000000
  247      C       0.2780000000     2.9860000000    -3.5120000000
  248      H       1.3070000000     2.8670000000    -3.8710000000
  249      H       0.2530000000     2.6380000000    -2.4730000000
  250      H       0.0430000000     4.0560000000    -3.5110000000
  251      H      -0.9810000000     3.7720000000    -5.8690000000
  252      H      -7.6200000000     3.7280000000    -7.5160000000
  253      C      -7.4210000000     2.6710000000    -7.3140000000
  254      H      -7.7600000000     2.0870000000    -8.1770000000
  255      C      -5.9350000000     2.4220000000    -7.0450000000
  256      H      -5.3430000000     2.6970000000    -7.9270000000
  257      H      -5.7740000000     1.3490000000    -6.8890000000
  258      C      -5.3760000000     3.1440000000    -5.8180000000
  259      H      -5.9720000000     2.9230000000    -4.9250000000
  260      H      -4.3490000000     2.8090000000    -5.6250000000
  261      S      -5.3580000000     4.9540000000    -6.0570000000
  262      C      -4.8070000000     5.4470000000    -4.4020000000
  263      H      -5.4650000000     5.0230000000    -3.6400000000
  264      H      -3.7770000000     5.1260000000    -4.2120000000
  265      H      -4.8510000000     6.5380000000    -4.3470000000
  266      H      -8.0260000000     2.3780000000    -6.4480000000
  267      H      -2.3490000000     7.4540000000    -4.5360000000
  268      C      -1.4200000000     7.6330000000    -3.9840000000
  269      H      -1.3810000000     8.7010000000    -3.7440000000
  270      C      -1.3520000000     6.7620000000    -2.7290000000
  271      H      -1.5470000000     5.7160000000    -3.0030000000
  272      H      -2.1620000000     7.0420000000    -2.0410000000
  273      C      -0.0210000000     6.8210000000    -1.9640000000
  274      H       0.7670000000     6.4500000000    -2.6380000000
  275      C       0.3540000000     8.2440000000    -1.5410000000
  276      H       0.4830000000     8.9140000000    -2.3980000000
  277      H      -0.4230000000     8.6710000000    -0.8920000000
  278      H       1.2920000000     8.2400000000    -0.9740000000
  279      C      -0.0720000000     5.9080000000    -0.7400000000
  280      H      -0.3270000000     4.8800000000    -1.0200000000
  281      H      -0.8250000000     6.2560000000    -0.0210000000
  282      H       0.8860000000     5.8800000000    -0.2130000000
  283      H      -0.5840000000     7.4120000000    -4.6590000000
  284      H       3.0280000000     6.0680000000    -1.5510000000
  285      C       3.7850000000     5.8930000000    -0.7760000000
  286      H       3.4200000000     6.3480000000     0.1520000000
  287      C       4.0370000000     4.3950000000    -0.5750000000
  288      H       4.3970000000     3.9710000000    -1.5240000000
  289      C       5.1160000000     4.1560000000     0.4840000000
  290      H       5.2740000000     3.0850000000     0.6500000000
  291      H       6.0720000000     4.6070000000     0.1910000000
  292      H       4.8180000000     4.6020000000     1.4420000000
  293      C       2.7430000000     3.6740000000    -0.2040000000
  294      H       2.9220000000     2.6090000000    -0.0190000000
  295      H       2.0060000000     3.7570000000    -1.0110000000
  296      H       2.2960000000     4.1050000000     0.7020000000
  297      H       4.7010000000     6.4190000000    -1.0710000000
  298      H       7.7630000000     1.6060000000     1.4510000000
  299      C       7.4840000000     1.5910000000     2.5100000000
  300      H       6.6740000000     2.3120000000     2.6480000000
  301      C       7.0440000000     0.2010000000     2.9450000000
  302      H       7.8540000000    -0.5330000000     2.8540000000
  303      H       6.7440000000     0.1950000000     4.0010000000
  304      C       5.8550000000    -0.3140000000     2.1720000000
  305      O       5.2430000000     0.3230000000     1.3350000000
  306      O       5.5260000000    -1.5520000000     2.5240000000
  307      H       4.6490000000    -1.7750000000     2.1200000000
  308      H       8.3460000000     1.9210000000     3.0980000000
  309      H       7.2770000000    -3.1450000000     8.6630000000
  310      C       7.0410000000    -2.5390000000     7.7820000000
  311      H       7.9610000000    -2.4200000000     7.1970000000
  312      C       5.9410000000    -3.1890000000     6.9430000000
  313      H       6.2630000000    -4.1950000000     6.6390000000
  314      H       5.0370000000    -3.3130000000     7.5510000000
  315      C       5.5900000000    -2.4070000000     5.6760000000
  316      H       6.4800000000    -2.2660000000     5.0540000000
  317      H       4.8720000000    -2.9630000000     5.0670000000
  318      S       4.8600000000    -0.7580000000     6.0170000000
  319      C       3.2610000000    -0.9110000000     5.1680000000
  320      H       2.6460000000    -1.6870000000     5.6330000000
  321      H       3.4100000000    -1.1430000000     4.1110000000
  322      H       2.7430000000     0.0510000000     5.2480000000
  323      H       6.7320000000    -1.5470000000     8.1290000000
  324      H       3.7100000000     2.1440000000     5.8910000000
  325      C       4.0960000000     2.8150000000     5.1210000000
  326      H       5.1540000000     3.0170000000     5.3310000000
  327      C       3.9080000000     2.2090000000     3.7380000000
  328      H       4.2440000000     2.8760000000     2.9360000000
  329      H       2.8530000000     1.9700000000     3.5840000000
  330      H       4.4750000000     1.2790000000     3.6490000000
  331      H       3.5420000000     3.7550000000     5.2220000000
  332      H       2.5130000000     7.9820000000     4.1230000000
  333      C       1.8070000000     8.4090000000     3.4030000000
  334      H       2.2430000000     9.3280000000     2.9940000000
  335      C       1.4940000000     7.3940000000     2.2950000000
  336      H       0.8300000000     7.8550000000     1.5530000000
  337      H       2.4240000000     7.1560000000     1.7640000000
  338      C       0.8730000000     6.1340000000     2.8170000000
  339      C       1.5310000000     5.0260000000     3.2940000000
  340      H       2.5950000000     4.8270000000     3.3260000000
  341      N       0.6490000000     4.1010000000     3.7770000000
  342      H       0.8820000000     3.1870000000     4.2290000000
  343      C      -0.6190000000     4.5870000000     3.6170000000
  344      C      -1.8470000000     3.9910000000     3.9340000000
  345      H      -1.8790000000     2.9900000000     4.3570000000
  346      C      -2.9910000000     4.7210000000     3.6590000000
  347      H      -3.9630000000     4.2920000000     3.8890000000
  348      C      -2.9240000000     6.0050000000     3.0740000000
  349      H      -3.8450000000     6.5450000000     2.8690000000
  350      C      -1.7080000000     6.5810000000     2.7500000000
  351      H      -1.6680000000     7.5690000000     2.2950000000
  352      C      -0.5250000000     5.8710000000     3.0190000000
  353      H       0.8960000000     8.6730000000     3.9510000000
  354      H      -2.8170000000    12.2240000000    -3.1200000000
  355      C      -3.5990000000    11.5090000000    -2.8450000000
  356      H      -3.8570000000    10.9390000000    -3.7430000000
  357      C      -3.1260000000    10.5930000000    -1.7120000000
  358      H      -2.7460000000    11.2110000000    -0.8870000000
  359      H      -2.2730000000     9.9930000000    -2.0580000000
  360      C      -4.1980000000     9.6440000000    -1.1530000000
  361      H      -5.0270000000    10.2640000000    -0.7770000000
  362      C      -4.7610000000     8.7080000000    -2.2270000000
  363      H      -3.9540000000     8.1390000000    -2.7020000000
  364      H      -5.4640000000     7.9890000000    -1.7920000000
  365      H      -5.2910000000     9.2580000000    -3.0120000000
  366      C      -3.6400000000     8.8410000000     0.0270000000
  367      H      -2.8080000000     8.2000000000    -0.2890000000
  368      H      -3.2670000000     9.5010000000     0.8180000000
  369      H      -4.4050000000     8.1890000000     0.4630000000
  370      H      -4.4850000000    12.0800000000    -2.5430000000
 ----------------------------------------------------------------
 Nuclear Repulsion Energy =       43529.86766887 hartrees
 There are      579 alpha and      579 beta electrons
 Requested basis set is 6-31G(d)
 There are 1033 shells and 2637 basis functions

 Total QAlloc Memory Limit  12000 MB
 Mega-Array Size      3911 MB
 MEM_STATIC part      4000 MB

 A cutoff of  1.0D-14 yielded 124292 shell pairs
 There are    775311 function pairs
 Smallest overlap matrix eigenvalue = 3.47E-04

 Scale SEOQF with 1.000000e-02/1.000000e-02/1.000000e-02

 Standard Electronic Orientation quadrupole field applied
 Nucleus-field energy     =     0.0000000981 hartrees
 Guess from superposition of atomic densities
 Warning:  Energy on first SCF cycle will be non-variational
 SAD guess density has 1157.000003 electrons

 -----------------------------------------------------------------------
  General SCF calculation program by
  Eric Jon Sundstrom, Paul Horn, Yuezhi Mao, Dmitri Zuev, Alec White,
  David Stuck, Shaama M.S., Shane Yost, Joonho Lee, David Small,
  Daniel Levine, Susi Lehtola, Hugh Burton, Evgeny Epifanovsky,
  Bang C. Huynh
 -----------------------------------------------------------------------
=================================================
        Doing projection-based embedding         
      F. Manby et al. JCTC, 8, 2564 (2012)       
=================================================

****************************************************
   Low-level SCF calculation for the whole system   
****************************************************
----------------------------------------------
 Summary of the low-level theory: 
 Exchange:     0.1670 Hartree-Fock + 1.0000 wB97X-V + LR-HF
 Correlation:  1.0000 wB97X-V
 Using Euler-Maclaurin-Lebedev (75,302) quadrature formula
 Nonlocal Correlation:  VV10 with C = 0.0100 and b = 6.00 and scale = 1.00000
 Grid used for NLC:  SG-1 standard quadrature
----------------------------------------------
 using 8 threads for integral computing
 -------------------------------------------------------
 OpenMP Integral computing Module                
 Release: version 1.0, May 2013, Q-Chem Inc. Pittsburgh 
 -------------------------------------------------------
 A restricted SCF calculation will be
 performed using DIIS
 SCF converges when DIIS error is below 1.0e-08
 ---------------------------------------
  Cycle       Energy         DIIS error
 ---------------------------------------
    1   -7362.1842652631      1.50e-02  
    2   -7320.6498238826      1.37e-03  
    3   -7320.8124643863      1.48e-03  
    4   -7322.1550983756      2.39e-04  
    5   -7322.1914705935      9.96e-05  
    6   -7322.1984232469      2.57e-05  
    7   -7322.1989212382      6.97e-06  
    8   -7322.1989748288      2.86e-06  
    9   -7322.1989839793      1.34e-06  
   10   -7322.1989864164      4.95e-07  
   11   -7322.1989867960      1.94e-07  
   12   -7322.1989868773      7.89e-08  
   13   -7322.1989868895      3.38e-08  
   14   -7322.1989868928      1.75e-08  
   15   -7322.1989868935      6.87e-09  Convergence criterion met
 ---------------------------------------
 SCF time:   CPU 103910.10s  wall 14315.00s 
 SCF   energy in the final basis set =    -7322.1989868935
 Total energy in the final basis set =    -7322.1989868935

****************************************************
             Start embedding calculation            
****************************************************
----------------------------------------------
 Summary of the high-level theory: 
 Exchange:     0.1670 Hartree-Fock + 1.0000 wB97X-V + LR-HF
 Correlation:  1.0000 wB97X-V
 Using Euler-Maclaurin-Lebedev (75,302) quadrature formula
 Nonlocal Correlation:  VV10 with C = 0.0100 and b = 6.00 and scale = 1.00000
 Grid used for NLC:  SG-1 standard quadrature
----------------------------------------------
Doing R-in-R Embedding Calculation
Number of fragments: 2
Embedded fragment(s): 1 
NOcc for each fragment
           75
          504
NBasis for each fragment
          352
         2285
Variational space of the embedded problem: 
NOcc (active)  = 75
NOcc (fixed)   = 504
NVir (total)   = 2058
Read converged orbitals from disk
=========================================================
       Doing SPADE partition for the orbital space       
     D. Claudino and N. Mayhall JCTC 15, 1053 (2019)     
=========================================================
SPADE singular values:
 1.0000 1.0000 1.0000 1.0000 1.0000 1.0000 1.0000 1.0000 1.0000 1.0000
 1.0000 1.0000 1.0000 1.0000 1.0000 1.0000 1.0000 1.0000 1.0000 1.0000
 1.0000 1.0000 1.0000 1.0000 1.0000 1.0000 1.0000 1.0000 1.0000 1.0000
 1.0000 1.0000 1.0000 1.0000 1.0000 1.0000 1.0000 1.0000 1.0000 1.0000
 1.0000 1.0000 1.0000 0.9999 0.9999 0.9999 0.9999 0.9999 0.9998 0.9998
 0.9998 0.9997 0.9996 0.9995 0.9994 0.9993 0.9992 0.9992 0.9992 0.9989
 0.9987 0.9986 0.9984 0.9982 0.9981 0.9979 0.9976 0.9975 0.9972 0.9967
 0.9960 0.9954 0.9948 0.9762 0.9736 0.1700 0.0940 0.0878 0.0808 0.0793
 0.0752 0.0738 0.0718 0.0684 0.0652 0.0641 0.0621 0.0600 0.0584 0.0552
 0.0512 0.0481 0.0448 0.0441 0.0415 0.0406 0.0371 0.0342 0.0331 0.0306
 0.0292 0.0278 0.0262 0.0250 0.0231 0.0219 0.0209 0.0199 0.0166 0.0157
 0.0152 0.0143 0.0139 0.0136 0.0123 0.0115 0.0113 0.0096 0.0094 0.0086
 0.0082 0.0074 0.0071 0.0069 0.0063 0.0059 0.0057 0.0051 0.0048 0.0047
 0.0044 0.0042 0.0041 0.0040 0.0038 0.0037 0.0034 0.0033 0.0032 0.0029
 0.0029 0.0028 0.0026 0.0025 0.0024 0.0023 0.0022 0.0021 0.0020 0.0019
 0.0018 0.0017 0.0017 0.0016 0.0016 0.0015 0.0015 0.0014 0.0014 0.0013
 0.0013 0.0012 0.0012 0.0012 0.0011 0.0011 0.0011 0.0010 0.0010 0.0010
 0.0009 0.0009 0.0009 0.0008 0.0008 0.0008 0.0008 0.0008 0.0007 0.0007
 0.0007 0.0007 0.0007 0.0006 0.0006 0.0006 0.0006 0.0006 0.0006 0.0005
 0.0005 0.0005 0.0005 0.0005 0.0005 0.0005 0.0004 0.0004 0.0004 0.0004
 0.0004 0.0004 0.0004 0.0004 0.0004 0.0004 0.0003 0.0003 0.0003 0.0003
 0.0003 0.0003 0.0003 0.0003 0.0003 0.0003 0.0003 0.0002 0.0002 0.0002
 0.0002 0.0002 0.0002 0.0002 0.0002 0.0002 0.0002 0.0002 0.0002 0.0002
 0.0002 0.0002 0.0002 0.0002 0.0002 0.0001 0.0001 0.0001 0.0001 0.0001
 0.0001 0.0001 0.0001 0.0001 0.0001 0.0001 0.0001 0.0001 0.0001 0.0001
 0.0001 0.0001 0.0001 0.0001 0.0001 0.0001 0.0001 0.0001 0.0001 0.0001
 0.0001 0.0001 0.0001 0.0001 0.0001 0.0001 0.0001 0.0001 0.0001 0.0001
 0.0001 0.0001 0.0001 0.0001 0.0001 0.0000 0.0000 0.0000 0.0000 0.0000
 0.0000 0.0000 0.0000 0.0000 0.0000 0.0000 0.0000 0.0000 0.0000 0.0000
 0.0000 0.0000 0.0000 0.0000 0.0000 0.0000 0.0000 0.0000 0.0000 0.0000
 0.0000 0.0000 0.0000 0.0000 0.0000 0.0000 0.0000 0.0000 0.0000 0.0000
 0.0000 0.0000 0.0000 0.0000 0.0000 0.0000 0.0000 0.0000 0.0000 0.0000
 0.0000 0.0000 0.0000 0.0000 0.0000 0.0000 0.0000 0.0000 0.0000 0.0000
 0.0000 0.0000 0.0000 0.0000 0.0000 0.0000 0.0000 0.0000 0.0000 0.0000
 0.0000 0.0000 0.0000 0.0000 0.0000 0.0000 0.0000 0.0000 0.0000 0.0000
 0.0000 0.0000
Early stop requested; no embedded SCF will be performed

 504 environment occs will be part of frozen-core in future post-HF calculations
 
 --------------------------------------------------------------
 
                    Orbital Energies (a.u.)
 --------------------------------------------------------------
 
 Alpha MOs
 -- Occupied --
-88.8112 -88.8072 -88.7870 -19.1996 -19.1977 -19.1809 -19.1745 -19.1548
-19.1544 -19.1544 -19.1411 -19.0909 -19.0676 -19.0638 -14.4318 -14.4136
-14.4119 -14.3978 -14.3576 -14.3540 -10.3626 -10.3508 -10.3466 -10.3446
-10.3302 -10.2916 -10.2855 -10.2825 -10.2794 -10.2756 -10.2735 -10.2641
-10.2599 -10.2595 -10.2593 -10.2575 -10.2539 -10.2442 -10.2441 -10.2423
-10.2415 -10.2413 -10.2405 -10.2372 -10.2367 -10.2365 -10.2359 -10.2353
-10.2347 -10.2341 -10.2330 -10.2328 -10.2325 -10.2314 -10.2314 -10.2312
-10.2309 -10.2307 -10.2304 -10.2300 -10.2290 -10.2271 -10.2264 -10.2261
-10.2256 -10.2247 -10.2244 -10.2241 -10.2235 -10.2234 -10.2233 -10.2230
-10.2229 -10.2221 -10.2219 -10.2217 -10.2214 -10.2202 -10.2201 -10.2199
-10.2199 -10.2196 -10.2192 -10.2191 -10.2179 -10.2172 -10.2172 -10.2170
-10.2162 -10.2157 -10.2157 -10.2152 -10.2149 -10.2147 -10.2139 -10.2132
-10.2126 -10.2120 -10.2105 -10.2100 -10.2090 -10.2083 -10.2077 -10.2077
-10.2064 -10.2054 -10.2036 -10.2023 -10.2014 -10.2001 -10.2000 -10.1992
-10.1953 -10.1949 -10.1927 -10.1926 -10.1922 -10.1907 -10.1893 -10.1880
-10.1856 -10.1845 -10.1750 -10.1714 -10.1712  -7.9777  -7.9740  -7.9528
 -5.9357  -5.9320  -5.9315  -5.9279  -5.9241  -5.9204  -5.9108  -5.9065
 -5.8995  -1.1633  -1.1427  -1.1285  -1.1250  -1.1217  -1.1129  -1.1076
 -1.0679  -1.0628  -1.0449  -1.0280  -1.0135  -1.0089  -0.9987  -0.9961
 -0.9805  -0.9513  -0.9365  -0.9345  -0.9341  -0.9151  -0.8990  -0.8978
 -0.8948  -0.8928  -0.8919  -0.8891  -0.8852  -0.8845  -0.8835  -0.8734
 -0.8727  -0.8684  -0.8676  -0.8654  -0.8621  -0.8522  -0.8519  -0.8499
 -0.8450  -0.8416  -0.8393  -0.8374  -0.8256  -0.8227  -0.8209  -0.8176
 -0.8149  -0.8125  -0.8106  -0.8083  -0.8052  -0.8015  -0.8006  -0.7976
 -0.7951  -0.7935  -0.7916  -0.7827  -0.7718  -0.7708  -0.7660  -0.7649
 -0.7624  -0.7617  -0.7583  -0.7572  -0.7568  -0.7554  -0.7516  -0.7461
 -0.7456  -0.7454  -0.7391  -0.7388  -0.7326  -0.7300  -0.7280  -0.7202
 -0.7168  -0.7097  -0.7064  -0.7044  -0.6995  -0.6973  -0.6924  -0.6923
 -0.6910  -0.6870  -0.6857  -0.6827  -0.6781  -0.6736  -0.6735  -0.6697
 -0.6662  -0.6582  -0.6573  -0.6537  -0.6522  -0.6512  -0.6461  -0.6456
 -0.6420  -0.6383  -0.6376  -0.6374  -0.6337  -0.6304  -0.6293  -0.6283
 -0.6275  -0.6262  -0.6207  -0.6185  -0.6153  -0.6135  -0.6123  -0.6059
 -0.6034  -0.6009  -0.5939  -0.5846  -0.5843  -0.5776  -0.5736  -0.5699
 -0.5635  -0.5623  -0.5575  -0.5491  -0.5479  -0.5438  -0.5424  -0.5414
 -0.5411  -0.5384  -0.5339  -0.5329  -0.5324  -0.5321  -0.5315  -0.5269
 -0.5267  -0.5259  -0.5255  -0.5223  -0.5210  -0.5208  -0.5199  -0.5186
 -0.5150  -0.5144  -0.5132  -0.5115  -0.5114  -0.5096  -0.5074  -0.5073
 -0.5062  -0.5050  -0.5045  -0.5033  -0.5024  -0.5008  -0.4996  -0.4995
 -0.4989  -0.4984  -0.4980  -0.4974  -0.4948  -0.4937  -0.4924  -0.4917
 -0.4892  -0.4878  -0.4876  -0.4866  -0.4863  -0.4854  -0.4848  -0.4819
 -0.4818  -0.4801  -0.4789  -0.4782  -0.4778  -0.4766  -0.4752  -0.4746
 -0.4734  -0.4734  -0.4721  -0.4710  -0.4694  -0.4692  -0.4687  -0.4686
 -0.4669  -0.4664  -0.4652  -0.4652  -0.4642  -0.4625  -0.4614  -0.4610
 -0.4597  -0.4586  -0.4571  -0.4562  -0.4554  -0.4548  -0.4542  -0.4529
 -0.4517  -0.4511  -0.4502  -0.4489  -0.4481  -0.4460  -0.4455  -0.4448
 -0.4444  -0.4439  -0.4427  -0.4410  -0.4408  -0.4394  -0.4388  -0.4385
 -0.4379  -0.4373  -0.4371  -0.4353  -0.4350  -0.4342  -0.4340  -0.4337
 -0.4331  -0.4313  -0.4310  -0.4304  -0.4278  -0.4266  -0.4263  -0.4241
 -0.4239  -0.4232  -0.4211  -0.4196  -0.4192  -0.4191  -0.4184  -0.4180
 -0.4177  -0.4156  -0.4151  -0.4142  -0.4137  -0.4125  -0.4120  -0.4107
 -0.4105  -0.4094  -0.4070  -0.4062  -0.4054  -0.4053  -0.4026  -0.4019
 -0.4013  -0.3998  -0.3991  -0.3986  -0.3979  -0.3969  -0.3966  -0.3957
 -0.3945  -0.3944  -0.3932  -0.3921  -0.3910  -0.3886  -0.3883  -0.3880
 -0.3879  -0.3875  -0.3848  -0.3839  -0.3830  -0.3809  -0.3802  -0.3799
 -0.3795  -0.3786  -0.3784  -0.3768  -0.3761  -0.3756  -0.3746  -0.3741
 -0.3733  -0.3725  -0.3710  -0.3703  -0.3699  -0.3695  -0.3694  -0.3673
 -0.3669  -0.3661  -0.3654  -0.3635  -0.3627  -0.3623  -0.3620  -0.3606
 -0.3599  -0.3587  -0.3578  -0.3576  -0.3563  -0.3562  -0.3549  -0.3547
 -0.3529  -0.3513  -0.3504  -0.3494  -0.3494  -0.3481  -0.3464  -0.3459
 -0.3457  -0.3444  -0.3420  -0.3400  -0.3382  -0.3319  -0.3314  -0.3304
 -0.3180  -0.3128  -0.3092  -0.3082  -0.3023  -0.2978  -0.2909  -0.2868
 -0.2849  -0.2825  -0.2802  -0.2700  -0.2613  -0.2586  -0.2518  -0.2484
 -0.2407  -0.2401  -0.2379  -0.2376  -0.2303  -0.2227  -0.2177  -0.1940
-10.2817 -10.2643 -11.5677 -10.4202 -10.3153  -9.9944  -8.8475 -13.1964
-11.7927 -10.0336  -9.9714 -10.2900  -9.3882  -9.8281  -9.5672  -9.7648
 -8.6509  -8.8590  -3.7663  -8.8891  -2.9264  -1.7980  -1.4497  -0.9635
 -1.1108  -1.0319  -6.7891  -8.2209  -1.9487  -1.9493  -1.5562  -1.2305
 -0.9557  -1.1424  -0.7289  -0.7999  -0.9012  -0.9973  -0.7848  -0.8697
 -0.8819  -0.8154  -0.6340  -0.5081  -0.4850  -0.8437  -0.5304  -0.5329
 -0.5279  -0.5505  -1.6081  -0.4569  -0.4950  -0.4829  -0.5093  -0.4719
 -0.4697  -0.5008  -0.4534  -0.4351  -0.4947  -0.4700  -0.4249  -0.4433
 -0.4295  -0.4335  -0.4265  -0.4380  -0.3927  -0.4311  -0.3993  -0.3905
 -0.3808  -0.3826  -0.6226
 -- Virtual --
  0.0816   0.1342   0.1373   0.1379   0.1417   0.1422   0.1479   0.1496
  0.1537   0.1577   0.1623   0.1656   0.1673   0.1705   0.1715   0.1722
  0.1757   0.1764   0.1853   0.1923   0.1940   0.1954   0.1972   0.1984
  0.1992   0.2013   0.2035   0.2045   0.2063   0.2087   0.2106   0.2115
  0.2124   0.2175   0.2181   0.2192   0.2216   0.2240   0.2251   0.2267
  0.2284   0.2291   0.2320   0.2330   0.2343   0.2349   0.2363   0.2382
  0.2386   0.2396   0.2412   0.2423   0.2447   0.2459   0.2464   0.2474
  0.2484   0.2494   0.2498   0.2503   0.2512   0.2526   0.2543   0.2544
  0.2555   0.2572   0.2586   0.2596   0.2600   0.2615   0.2629   0.2634
  0.2635   0.2657   0.2675   0.2676   0.2683   0.2696   0.2702   0.2709
  0.2727   0.2731   0.2750   0.2752   0.2765   0.2777   0.2784   0.2798
  0.2808   0.2818   0.2830   0.2834   0.2838   0.2850   0.2867   0.2868
  0.2873   0.2893   0.2903   0.2908   0.2911   0.2921   0.2923   0.2932
  0.2939   0.2946   0.2953   0.2957   0.2959   0.2966   0.2977   0.2989
  0.2991   0.2995   0.2997   0.3001   0.3011   0.3029   0.3035   0.3041
  0.3048   0.3048   0.3054   0.3060   0.3065   0.3085   0.3093   0.3097
  0.3106   0.3117   0.3117   0.3123   0.3127   0.3149   0.3156   0.3162
  0.3165   0.3173   0.3187   0.3194   0.3199   0.3201   0.3207   0.3219
  0.3223   0.3228   0.3235   0.3241   0.3246   0.3255   0.3263   0.3271
  0.3279   0.3283   0.3285   0.3293   0.3306   0.3313   0.3318   0.3323
  0.3328   0.3332   0.3344   0.3346   0.3352   0.3356   0.3361   0.3362
  0.3366   0.3379   0.3382   0.3399   0.3402   0.3410   0.3412   0.3415
  0.3421   0.3438   0.3442   0.3445   0.3452   0.3457   0.3465   0.3469
  0.3476   0.3481   0.3488   0.3497   0.3502   0.3508   0.3519   0.3524
  0.3531   0.3541   0.3547   0.3552   0.3565   0.3572   0.3578   0.3588
  0.3595   0.3601   0.3605   0.3613   0.3621   0.3634   0.3635   0.3646
  0.3650   0.3658   0.3677   0.3682   0.3694   0.3699   0.3709   0.3715
  0.3729   0.3739   0.3741   0.3758   0.3762   0.3776   0.3779   0.3788
  0.3791   0.3805   0.3811   0.3815   0.3819   0.3833   0.3843   0.3850
  0.3853   0.3860   0.3873   0.3877   0.3882   0.3891   0.3895   0.3903
  0.3915   0.3924   0.3932   0.3940   0.3948   0.3954   0.3967   0.3970
  0.3983   0.3984   0.3996   0.4002   0.4009   0.4018   0.4028   0.4039
  0.4045   0.4050   0.4056   0.4064   0.4074   0.4084   0.4094   0.4101
  0.4111   0.4126   0.4132   0.4133   0.4139   0.4160   0.4164   0.4168
  0.4181   0.4192   0.4201   0.4221   0.4230   0.4239   0.4253   0.4264
  0.4269   0.4272   0.4288   0.4298   0.4310   0.4328   0.4335   0.4344
  0.4353   0.4360   0.4375   0.4383   0.4390   0.4402   0.4411   0.4425
  0.4429   0.4439   0.4445   0.4453   0.4462   0.4465   0.4495   0.4511
  0.4519   0.4524   0.4538   0.4540   0.4545   0.4561   0.4592   0.4594
  0.4605   0.4607   0.4616   0.4624   0.4640   0.4651   0.4667   0.4682
  0.4701   0.4701   0.4712   0.4736   0.4748   0.4775   0.4796   0.4807
  0.4833   0.4840   0.4861   0.4873   0.4883   0.4888   0.4912   0.4917
  0.4933   0.4949   0.4964   0.4993   0.5022   0.5027   0.5056   0.5058
  0.5069   0.5073   0.5105   0.5128   0.5142   0.5148   0.5151   0.5206
  0.5219   0.5252   0.5261   0.5312   0.5320   0.5332   0.5388   0.5406
  0.5434   0.5458   0.5462   0.5490   0.5523   0.5541   0.5570   0.5598
  0.5634   0.5658   0.5672   0.5697   0.5703   0.5744   0.5763   0.5798
  0.5832   0.5920   0.5937   0.5973   0.6032   0.6086   0.6119   0.6197
  0.6232   0.6274   0.6284   0.6338   0.6362   0.6377   0.6393   0.6422
  0.6446   0.6457   0.6500   0.6502   0.6521   0.6525   0.6532   0.6544
  0.6562   0.6567   0.6585   0.6591   0.6607   0.6618   0.6639   0.6653
  0.6659   0.6665   0.6675   0.6683   0.6695   0.6696   0.6721   0.6724
  0.6729   0.6737   0.6746   0.6767   0.6772   0.6781   0.6790   0.6800
  0.6800   0.6821   0.6825   0.6837   0.6839   0.6849   0.6889   0.6892
  0.6903   0.6904   0.6913   0.6923   0.6927   0.6933   0.6940   0.6963
  0.6979   0.6985   0.7002   0.7010   0.7017   0.7027   0.7047   0.7054
  0.7070   0.7073   0.7082   0.7087   0.7105   0.7115   0.7118   0.7128
  0.7139   0.7144   0.7154   0.7165   0.7176   0.7191   0.7201   0.7203
  0.7212   0.7230   0.7242   0.7255   0.7266   0.7271   0.7286   0.7299
  0.7314   0.7316   0.7334   0.7351   0.7363   0.7385   0.7385   0.7399
  0.7411   0.7419   0.7425   0.7434   0.7454   0.7459   0.7463   0.7482
  0.7493   0.7499   0.7507   0.7517   0.7533   0.7537   0.7549   0.7576
  0.7591   0.7595   0.7603   0.7612   0.7621   0.7640   0.7654   0.7669
  0.7679   0.7685   0.7700   0.7727   0.7746   0.7753   0.7759   0.7761
  0.7778   0.7787   0.7794   0.7804   0.7807   0.7828   0.7836   0.7840
  0.7863   0.7876   0.7887   0.7894   0.7897   0.7913   0.7925   0.7928
  0.7943   0.7954   0.7958   0.7974   0.7977   0.8012   0.8019   0.8043
  0.8049   0.8051   0.8073   0.8078   0.8098   0.8109   0.8118   0.8139
  0.8144   0.8153   0.8158   0.8171   0.8190   0.8209   0.8215   0.8221
  0.8244   0.8248   0.8262   0.8265   0.8284   0.8289   0.8293   0.8312
  0.8321   0.8327   0.8330   0.8339   0.8342   0.8354   0.8362   0.8367
  0.8383   0.8386   0.8388   0.8412   0.8425   0.8438   0.8439   0.8448
  0.8452   0.8453   0.8464   0.8482   0.8488   0.8502   0.8508   0.8518
  0.8527   0.8537   0.8543   0.8562   0.8566   0.8575   0.8586   0.8594
  0.8599   0.8613   0.8625   0.8633   0.8640   0.8643   0.8655   0.8674
  0.8692   0.8693   0.8705   0.8708   0.8728   0.8732   0.8748   0.8756
  0.8771   0.8779   0.8790   0.8809   0.8814   0.8831   0.8841   0.8860
  0.8871   0.8886   0.8888   0.8901   0.8913   0.8917   0.8933   0.8938
  0.8948   0.8952   0.8964   0.8977   0.8988   0.9010   0.9012   0.9045
  0.9050   0.9058   0.9067   0.9077   0.9101   0.9104   0.9107   0.9115
  0.9129   0.9149   0.9163   0.9166   0.9174   0.9187   0.9203   0.9210
  0.9224   0.9236   0.9256   0.9263   0.9289   0.9296   0.9305   0.9340
  0.9351   0.9355   0.9370   0.9375   0.9391   0.9418   0.9432   0.9447
  0.9457   0.9484   0.9503   0.9509   0.9519   0.9522   0.9526   0.9545
  0.9555   0.9560   0.9584   0.9595   0.9618   0.9627   0.9639   0.9653
  0.9657   0.9663   0.9672   0.9683   0.9690   0.9712   0.9723   0.9737
  0.9751   0.9767   0.9777   0.9786   0.9808   0.9814   0.9831   0.9839
  0.9865   0.9883   0.9892   0.9899   0.9911   0.9929   0.9952   0.9964
  0.9978   0.9980   0.9990   1.0001   1.0034   1.0051   1.0055   1.0060
  1.0082   1.0101   1.0108   1.0116   1.0130   1.0140   1.0146   1.0156
  1.0163   1.0169   1.0183   1.0193   1.0216   1.0235   1.0242   1.0245
  1.0252   1.0256   1.0260   1.0270   1.0281   1.0285   1.0292   1.0305
  1.0308   1.0312   1.0336   1.0350   1.0356   1.0369   1.0374   1.0380
  1.0383   1.0399   1.0405   1.0410   1.0431   1.0433   1.0437   1.0441
  1.0451   1.0456   1.0462   1.0469   1.0479   1.0496   1.0507   1.0508
  1.0517   1.0522   1.0533   1.0543   1.0553   1.0558   1.0561   1.0570
  1.0575   1.0586   1.0601   1.0603   1.0613   1.0619   1.0631   1.0634
  1.0644   1.0654   1.0656   1.0662   1.0668   1.0670   1.0678   1.0692
  1.0698   1.0710   1.0720   1.0727   1.0731   1.0742   1.0755   1.0757
  1.0763   1.0767   1.0771   1.0786   1.0790   1.0794   1.0812   1.0818
  1.0822   1.0830   1.0840   1.0847   1.0854   1.0862   1.0870   1.0872
  1.0879   1.0883   1.0889   1.0896   1.0903   1.0917   1.0923   1.0941
  1.0948   1.0957   1.0963   1.0972   1.0982   1.0994   1.0997   1.1001
  1.1010   1.1022   1.1030   1.1034   1.1041   1.1044   1.1059   1.1063
  1.1073   1.1087   1.1101   1.1110   1.1118   1.1123   1.1140   1.1146
  1.1156   1.1167   1.1179   1.1180   1.1197   1.1202   1.1209   1.1222
  1.1222   1.1234   1.1246   1.1250   1.1256   1.1259   1.1276   1.1282
  1.1287   1.1293   1.1297   1.1315   1.1324   1.1329   1.1333   1.1350
  1.1366   1.1375   1.1376   1.1382   1.1395   1.1403   1.1412   1.1415
  1.1434   1.1442   1.1457   1.1467   1.1470   1.1488   1.1493   1.1501
  1.1512   1.1527   1.1532   1.1536   1.1548   1.1554   1.1567   1.1579
  1.1581   1.1594   1.1604   1.1610   1.1614   1.1645   1.1654   1.1659
  1.1675   1.1686   1.1700   1.1703   1.1731   1.1739   1.1744   1.1757
  1.1771   1.1780   1.1792   1.1800   1.1802   1.1829   1.1833   1.1842
  1.1860   1.1867   1.1876   1.1890   1.1895   1.1909   1.1931   1.1932
  1.1942   1.1961   1.1972   1.1991   1.2002   1.2005   1.2017   1.2037
  1.2050   1.2072   1.2076   1.2099   1.2115   1.2121   1.2129   1.2137
  1.2150   1.2172   1.2174   1.2187   1.2195   1.2210   1.2218   1.2256
  1.2266   1.2269   1.2285   1.2298   1.2329   1.2332   1.2352   1.2364
  1.2397   1.2411   1.2425   1.2435   1.2438   1.2441   1.2451   1.2471
  1.2495   1.2500   1.2518   1.2532   1.2542   1.2550   1.2556   1.2572
  1.2593   1.2601   1.2605   1.2613   1.2625   1.2647   1.2666   1.2678
  1.2707   1.2711   1.2726   1.2757   1.2771   1.2799   1.2814   1.2825
  1.2836   1.2843   1.2865   1.2893   1.2913   1.2939   1.2958   1.2967
  1.2978   1.2982   1.3002   1.3043   1.3058   1.3061   1.3082   1.3094
  1.3109   1.3136   1.3140   1.3163   1.3170   1.3195   1.3211   1.3235
  1.3247   1.3269   1.3276   1.3307   1.3319   1.3337   1.3353   1.3395
  1.3404   1.3441   1.3464   1.3476   1.3493   1.3508   1.3528   1.3552
  1.3555   1.3560   1.3587   1.3621   1.3641   1.3644   1.3672   1.3693
  1.3739   1.3750   1.3761   1.3785   1.3802   1.3825   1.3848   1.3872
  1.3890   1.3909   1.3922   1.3931   1.3973   1.3995   1.4006   1.4016
  1.4034   1.4060   1.4081   1.4095   1.4103   1.4117   1.4131   1.4153
  1.4162   1.4212   1.4229   1.4255   1.4276   1.4304   1.4318   1.4349
  1.4364   1.4377   1.4395   1.4400   1.4416   1.4443   1.4464   1.4488
  1.4504   1.4513   1.4533   1.4573   1.4605   1.4675   1.4676   1.4698
  1.4716   1.4737   1.4775   1.4803   1.4825   1.4855   1.4875   1.4927
  1.4937   1.4945   1.4998   1.5010   1.5031   1.5064   1.5090   1.5105
  1.5115   1.5127   1.5167   1.5211   1.5223   1.5262   1.5279   1.5323
  1.5338   1.5364   1.5372   1.5402   1.5428   1.5438   1.5470   1.5491
  1.5503   1.5512   1.5531   1.5542   1.5557   1.5568   1.5592   1.5626
  1.5636   1.5668   1.5698   1.5719   1.5728   1.5734   1.5750   1.5780
  1.5828   1.5842   1.5858   1.5877   1.5886   1.5915   1.5934   1.5955
  1.5966   1.5990   1.6005   1.6017   1.6042   1.6058   1.6073   1.6083
  1.6092   1.6097   1.6132   1.6156   1.6157   1.6181   1.6199   1.6204
  1.6218   1.6220   1.6247   1.6266   1.6280   1.6288   1.6299   1.6302
  1.6310   1.6343   1.6348   1.6357   1.6373   1.6389   1.6402   1.6411
  1.6421   1.6431   1.6448   1.6465   1.6484   1.6506   1.6526   1.6554
  1.6558   1.6587   1.6608   1.6621   1.6628   1.6633   1.6647   1.6667
  1.6677   1.6703   1.6713   1.6729   1.6765   1.6775   1.6792   1.6809
  1.6839   1.6852   1.6861   1.6889   1.6914   1.6916   1.6942   1.6953
  1.6968   1.6985   1.7010   1.7036   1.7056   1.7069   1.7101   1.7111
  1.7136   1.7167   1.7198   1.7238   1.7257   1.7287   1.7298   1.7363
  1.7385   1.7391   1.7416   1.7442   1.7457   1.7489   1.7516   1.7551
  1.7575   1.7608   1.7651   1.7707   1.7756   1.7763   1.7785   1.7836
  1.7891   1.7905   1.7924   1.7930   1.7957   1.7986   1.7987   1.8014
  1.8066   1.8117   1.8153   1.8154   1.8174   1.8195   1.8271   1.8302
  1.8372   1.8391   1.8409   1.8448   1.8502   1.8513   1.8539   1.8554
  1.8559   1.8591   1.8606   1.8628   1.8641   1.8655   1.8676   1.8704
  1.8745   1.8750   1.8787   1.8792   1.8803   1.8836   1.8850   1.8853
  1.8869   1.8881   1.8892   1.8929   1.8943   1.8948   1.8961   1.8971
  1.8992   1.9001   1.9013   1.9045   1.9068   1.9081   1.9091   1.9102
  1.9113   1.9145   1.9174   1.9198   1.9205   1.9226   1.9228   1.9282
  1.9291   1.9324   1.9356   1.9364   1.9366   1.9411   1.9416   1.9420
  1.9479   1.9497   1.9517   1.9523   1.9541   1.9556   1.9561   1.9582
  1.9596   1.9615   1.9620   1.9638   1.9680   1.9688   1.9699   1.9718
  1.9728   1.9753   1.9769   1.9784   1.9805   1.9837   1.9845   1.9861
  1.9866   1.9874   1.9894   1.9907   1.9910   1.9918   1.9939   1.9959
  1.9976   1.9997   2.0014   2.0094   2.0108   2.0114   2.0126   2.0133
  2.0158   2.0160   2.0172   2.0193   2.0223   2.0229   2.0273   2.0299
  2.0309   2.0319   2.0339   2.0355   2.0375   2.0401   2.0419   2.0427
  2.0463   2.0482   2.0497   2.0505   2.0519   2.0537   2.0546   2.0560
  2.0608   2.0623   2.0634   2.0656   2.0686   2.0702   2.0708   2.0710
  2.0749   2.0760   2.0768   2.0781   2.0782   2.0802   2.0821   2.0827
  2.0869   2.0907   2.0929   2.0945   2.0945   2.0954   2.0963   2.0979
  2.0985   2.0995   2.1010   2.1012   2.1032   2.1052   2.1061   2.1080
  2.1094   2.1106   2.1117   2.1132   2.1148   2.1152   2.1165   2.1179
  2.1186   2.1195   2.1232   2.1235   2.1257   2.1267   2.1267   2.1281
  2.1290   2.1305   2.1316   2.1323   2.1346   2.1359   2.1366   2.1372
  2.1381   2.1383   2.1398   2.1407   2.1418   2.1425   2.1440   2.1445
  2.1457   2.1473   2.1481   2.1512   2.1522   2.1541   2.1550   2.1556
  2.1566   2.1587   2.1601   2.1615   2.1642   2.1654   2.1660   2.1691
  2.1714   2.1723   2.1736   2.1738   2.1769   2.1775   2.1792   2.1806
  2.1824   2.1839   2.1844   2.1856   2.1860   2.1875   2.1891   2.1898
  2.1926   2.1935   2.1939   2.1943   2.1960   2.1965   2.1977   2.1994
  2.2001   2.2013   2.2027   2.2038   2.2067   2.2075   2.2085   2.2092
  2.2115   2.2131   2.2146   2.2150   2.2158   2.2188   2.2215   2.2218
  2.2226   2.2248   2.2255   2.2302   2.2306   2.2327   2.2351   2.2353
  2.2364   2.2376   2.2419   2.2447   2.2469   2.2491   2.2506   2.2522
  2.2532   2.2575   2.2590   2.2597   2.2614   2.2639   2.2645   2.2659
  2.2680   2.2711   2.2729   2.2749   2.2766   2.2777   2.2785   2.2790
  2.2803   2.2834   2.2867   2.2891   2.2909   2.2915   2.2934   2.2937
  2.2946   2.2968   2.2995   2.3008   2.3022   2.3048   2.3052   2.3081
  2.3101   2.3116   2.3127   2.3169   2.3201   2.3204   2.3246   2.3254
  2.3271   2.3289   2.3301   2.3313   2.3327   2.3337   2.3364   2.3367
  2.3396   2.3411   2.3420   2.3431   2.3449   2.3457   2.3464   2.3474
  2.3489   2.3511   2.3532   2.3595   2.3609   2.3651   2.3683   2.3704
  2.3707   2.3796   2.3809   2.3839   2.3844   2.3902   2.3921   2.3927
  2.3951   2.3972   2.4030   2.4051   2.4059   2.4062   2.4070   2.4110
  2.4142   2.4164   2.4172   2.4179   2.4200   2.4205   2.4212   2.4214
  2.4223   2.4242   2.4258   2.4263   2.4269   2.4286   2.4324   2.4327
  2.4355   2.4364   2.4370   2.4384   2.4401   2.4418   2.4446   2.4454
  2.4462   2.4463   2.4482   2.4489   2.4505   2.4523   2.4529   2.4546
  2.4548   2.4561   2.4567   2.4577   2.4583   2.4591   2.4596   2.4617
  2.4623   2.4627   2.4643   2.4648   2.4654   2.4682   2.4691   2.4715
  2.4729   2.4735   2.4745   2.4752   2.4762   2.4773   2.4793   2.4800
  2.4804   2.4826   2.4839   2.4848   2.4861   2.4880   2.4886   2.4897
  2.4898   2.4924   2.4935   2.4936   2.4954   2.4979   2.5007   2.5010
  2.5026   2.5037   2.5045   2.5060   2.5071   2.5095   2.5120   2.5133
  2.5139   2.5145   2.5151   2.5195   2.5233   2.5239   2.5247   2.5257
  2.5273   2.5282   2.5287   2.5292   2.5324   2.5354   2.5381   2.5396
  2.5411   2.5421   2.5452   2.5456   2.5460   2.5477   2.5479   2.5494
  2.5517   2.5531   2.5582   2.5603   2.5607   2.5649   2.5674   2.5692
  2.5704   2.5708   2.5757   2.5773   2.5841   2.5870   2.5897   2.5920
  2.5946   2.5963   2.6016   2.6022   2.6060   2.6096   2.6102   2.6118
  2.6178   2.6189   2.6195   2.6253   2.6269   2.6296   2.6392   2.6431
  2.6471   2.6490   2.6505   2.6536   2.6589   2.6611   2.6707   2.6729
  2.6740   2.6777   2.6790   2.6800   2.6809   2.6814   2.6826   2.6843
  2.6856   2.6892   2.6898   2.6920   2.6925   2.6932   2.6952   2.6976
  2.6995   2.7006   2.7020   2.7034   2.7063   2.7091   2.7126   2.7160
  2.7178   2.7187   2.7221   2.7228   2.7253   2.7275   2.7283   2.7323
  2.7382   2.7426   2.7450   2.7452   2.7503   2.7529   2.7550   2.7584
  2.7650   2.7664   2.7682   2.7697   2.7714   2.7729   2.7739   2.7778
  2.7808   2.7834   2.7861   2.7922   2.7929   2.7939   2.7952   2.7966
  2.7973   2.8001   2.8037   2.8054   2.8121   2.8165   2.8205   2.8235
  2.8246   2.8262   2.8276   2.8299   2.8357   2.8416   2.8416   2.8421
  2.8431   2.8442   2.8446   2.8461   2.8480   2.8537   2.8546   2.8563
  2.8594   2.8609   2.8647   2.8664   2.8688   2.8712   2.8764   2.8794
  2.8807   2.8814   2.8867   2.8884   2.8948   2.8954   2.8995   2.9016
  2.9021   2.9028   2.9058   2.9075   2.9089   2.9099   2.9106   2.9141
  2.9190   2.9219   2.9284   2.9325   2.9363   2.9375   2.9387   2.9419
  2.9440   2.9445   2.9488   2.9498   2.9506   2.9560   2.9595   2.9602
  2.9662   2.9686   2.9708   2.9734   2.9764   2.9815   2.9854   2.9883
  2.9981   2.9999   3.0068   3.0139   3.0259   3.0308   3.0487   3.0529
  3.0653   3.0663   3.0786   3.0832   3.0844   3.0866   3.0899   3.0910
  3.0949   3.1000   3.1025   3.1148   3.1165   3.1283   3.1367   3.1504
  3.1532   3.1681   3.1710   3.1830   3.1863   3.1924   3.1937   3.2010
  3.2096   3.2194   3.2343   3.2420   3.2432   3.2479   3.2532   3.2686
  3.2710   3.2790   3.2884   3.3101   3.3135   3.3167   3.3233   3.3239
  3.3662   3.3730   3.3952   3.4225   3.4734   3.5996   3.6039   3.6160
  3.6591   3.9671   4.1175   4.1205   4.1293   4.1438   4.1461   4.1841
  4.1941   4.2104   4.2142   4.2300   4.2309   4.2371   4.2591   4.2773
  4.2848   4.2942   4.3125   4.3190   4.3234   4.3240   4.3279   4.3286
  4.3337   4.3359   4.3417   4.3443   4.3447   4.3480   4.3489   4.3532
  4.3540   4.3685   4.3704   4.3722   4.3741   4.3784   4.3792   4.3814
  4.3835   4.3926   4.3953   4.3974   4.4013   4.4036   4.4086   4.4151
  4.4190   4.4219   4.4251   4.4347   4.4371   4.4404   4.4436   4.4463
  4.4515   4.4549   4.4613   4.4661   4.4690   4.4734   4.4758   4.4799
  4.4873   4.4888   4.4931   4.4984   4.5030   4.5046   4.5116   4.5155
  4.5159   4.5212   4.5233   4.5250   4.5269   4.5313   4.5333   4.5359
  4.5409   4.5469   4.5512   4.5545   4.5593   4.5625   4.5629   4.5672
  4.5775   4.5814   4.5856   4.5884   4.5924   4.5994   4.6054   4.6084
  4.6139   4.6170   4.6216   4.6247   4.6325   4.6400   4.6426   4.6459
  4.6492   4.6569   4.6632   4.6673   4.6698   4.6777   4.6802   4.6844
  4.7025   4.7041   4.7076   4.7224   4.7297   4.7332   4.7530   4.7553
  4.7576   4.7690   4.7756   4.7835   4.7864   4.7959   4.7971   4.8011
  4.8105   4.8138   4.8185   4.8228   4.8317   4.8355   4.8389   4.8558
  4.8813   4.9094   4.9176   4.9254   4.9577   4.9636   4.9687   5.0058
  5.0315   5.0479
 --------------------------------------------------------------
 
          Ground-State Mulliken Net Atomic Charges

     Atom                 Charge (a.u.)
  ----------------------------------------
      1 C                     0.477155
      2 O                    -0.590208
      3 C                    -0.279251
      4 C                     0.170156
      5 C                    -0.183643
      6 C                    -0.317135
      7 C                    -0.394347
      8 C                    -0.401132
      9 C                    -0.311966
     10 C                    -0.128899
     11 C                    -0.138480
     12 C                    -0.134731
     13 C                    -0.017636
     14 C                    -0.310765
     15 C                    -0.307581
     16 C                    -0.307016
     17 C                    -0.328605
     18 C                     0.134449
     19 C                    -0.471456
     20 O                    -0.644467
     21 H                     0.201865
     22 H                     0.188866
     23 H                     0.157738
     24 H                     0.168076
     25 H                     0.195573
     26 H                     0.191602
     27 H                     0.175365
     28 H                     0.261713
     29 H                     0.145010
     30 H                     0.194036
     31 H                     0.157991
     32 H                     0.133757
     33 H                     0.123686
     34 H                     0.141878
     35 H                     0.150293
     36 H                     0.152351
     37 H                     0.155468
     38 H                     0.167133
     39 H                     0.168142
     40 H                     0.149852
     41 H                     0.164341
     42 H                     0.115545
     43 H                     0.161555
     44 H                     0.160734
     45 H                     0.157486
     46 H                     0.401510
     47 H                     0.159980
     48 C                    -0.375362
     49 H                     0.192713
     50 C                    -0.372313
     51 H                     0.161280
     52 H                     0.154036
     53 C                     0.112874
     54 C                    -0.199554
     55 H                     0.143506
     56 C                    -0.179008
     57 H                     0.164032
     58 C                     0.331640
     59 O                    -0.733766
     60 H                     0.465831
     61 C                    -0.213054
     62 H                     0.170698
     63 C                    -0.201090
     64 H                     0.167371
     65 C                     0.587987
     66 O                    -0.503116
     67 N                    -0.635100
     68 H                     0.332684
     69 C                    -0.136758
     70 H                     0.209102
     71 C                    -0.143755
     72 H                     0.134582
     73 C                    -0.477174
     74 H                     0.160430
     75 H                     0.163242
     76 H                     0.144218
     77 C                    -0.285488
     78 H                     0.150900
     79 H                     0.174097
     80 C                    -0.493525
     81 H                     0.158525
     82 H                     0.177124
     83 H                     0.150874
     84 H                     0.148381
     85 H                     0.169506
     86 C                    -0.467498
     87 H                     0.144870
     88 C                    -0.110442
     89 H                     0.143633
     90 C                    -0.478432
     91 H                     0.149340
     92 H                     0.151770
     93 H                     0.146357
     94 C                    -0.481153
     95 H                     0.140520
     96 H                     0.191893
[...]
          361         362         363         364         365         366
    1  -2.8139033  -1.7853839  -0.2858624  -2.8563461  -2.3821015  -0.9431028
    2   2.5979771   0.7891186   0.2520552  -0.2280085   1.8823412   1.1563592
    3   0.9457796  -0.8138357  -1.4441538   0.3498794  -1.9311674   1.0026887
          367         368         369         370
    1   0.2373353  -0.2903978  -2.5547426  -2.0976770
    2   0.4169753   2.6312477   0.1431747   2.8194633
    3   0.0727507   2.0038663   1.3096622  -0.1368619
 EField
            1           2           3           4           5           6
    1  -0.0210498  -0.0404714  -0.0108448  -0.0077794  -0.0033068  -0.0052550
    2   0.0172190   0.0295482   0.0162146   0.0110577   0.0074136   0.0039520
    3  -0.0031078  -0.0107904   0.0051618   0.0107420   0.0074874   0.0016817
            7           8           9          10          11          12
    1  -0.0142001  -0.0071408   0.0002872   0.0021060  -0.0010073   0.0020936
    2   0.0047772   0.0035427   0.0021220   0.0024157   0.0034635   0.0006732
    3  -0.0025736   0.0165450   0.0121814   0.0097135   0.0069284   0.0070496
           13          14          15          16          17          18
    1   0.0017862  -0.0010900  -0.0018896   0.0049296   0.0047660   0.0031974
    2  -0.0013403  -0.0008582   0.0015326   0.0001784  -0.0013835  -0.0025232
    3   0.0045766   0.0039655   0.0038824   0.0083753   0.0058130   0.0051143
           19          20          21          22          23          24
    1   0.0029715   0.0023622  -0.0053233  -0.0004224  -0.0052841  -0.0019675
    2  -0.0018264  -0.0046261   0.0189434   0.0102978   0.0020063   0.0026137
    3   0.0018994   0.0052677   0.0026158   0.0091418   0.0015107   0.0018309
           25          26          27          28          29          30
    1  -0.0118641  -0.0164843  -0.0108880  -0.0120232  -0.0004605   0.0002204
    2   0.0053457  -0.0016776   0.0019024  -0.0062393   0.0011592   0.0001178
    3  -0.0021051  -0.0072428   0.0079267   0.0298608   0.0123133   0.0112851
           31          32          33          34          35          36
    1   0.0058358  -0.0026613   0.0001932  -0.0008998  -0.0017706  -0.0022528
    2   0.0029416   0.0025912   0.0000276  -0.0012902  -0.0011271   0.0024405
    3   0.0101168   0.0081785   0.0068215   0.0044593   0.0060597   0.0015330
           37          38          39          40          41          42
    1  -0.0024796   0.0034005   0.0085124   0.0046177   0.0047981   0.0017207
    2   0.0032290  -0.0015665   0.0011152  -0.0012346  -0.0020166  -0.0023839
    3   0.0039877   0.0097132   0.0080120   0.0060269   0.0045803   0.0057593
           43          44          45          46          47          48
    1   0.0048952   0.0021475   0.0036663   0.0019586   0.0215023  -0.0025348
    2  -0.0010999  -0.0058207   0.0006485  -0.0053071  -0.0154802  -0.0027359
    3   0.0021079   0.0001299   0.0013273   0.0049293  -0.0214475   0.0018235
           49          50          51          52          53          54
    1  -0.0204413   0.0012080   0.0247505   0.0194451  -0.0043920  -0.0031025
    2  -0.0260213  -0.0002991  -0.0198932   0.0262407  -0.0007190   0.0048801
    3   0.0104584   0.0012361   0.0122120  -0.0098753   0.0019243  -0.0032264
           55          56          57          58          59          60
    1   0.0192097   0.0037910  -0.0053506   0.0248736  -0.0233440  -0.0136668
    2  -0.0335791  -0.0026536  -0.0250112  -0.0199450  -0.0714197  -0.0056939
    3   0.0041488  -0.0064706   0.0307496  -0.0257819   0.0893928   0.0051889
           61          62          63          64          65          66
    1   0.0078439  -0.0147030   0.0026480   0.0039546  -0.0042313  -0.1051408
    2  -0.0129671   0.0253104  -0.0064698   0.0187801  -0.0104004  -0.0370678
    3  -0.0106944  -0.0246259  -0.0004060  -0.0355327   0.0045666  -0.0090252
           67          68          69          70          71          72
    1  -0.0093717   0.0436121  -0.0144229  -0.0337718  -0.0013113   0.0316382
    2   0.0018578   0.0097304   0.0119455  -0.0101158   0.0017754   0.0084973
    3   0.0062521   0.0023284  -0.0107095   0.0064567   0.0025107  -0.0088904
           73          74          75          76          77          78
    1  -0.0002785   0.0036436  -0.0330057   0.0050081   0.0004582   0.0255673
    2   0.0001103   0.0332442  -0.0037089  -0.0080581   0.0033403  -0.0077343
    3   0.0018116   0.0022639   0.0050811  -0.0318311  -0.0025866   0.0161857
           79          80          81          82          83          84
    1   0.0048955  -0.0010130  -0.0043819  -0.0080175  -0.0285867   0.0038457
    2   0.0349556  -0.0004278   0.0173396  -0.0330472   0.0134831  -0.0115391
    3   0.0001548  -0.0026999   0.0237565   0.0016938  -0.0181360  -0.0318288
           85          86          87          88          89          90
    1   0.0215960   0.0015654  -0.0262456   0.0001554   0.0272360  -0.0003561
    2  -0.0239398   0.0022631  -0.0108521   0.0004492   0.0078394  -0.0031390
    3  -0.0030223   0.0027771   0.0160321  -0.0002951  -0.0171176   0.0007654
           91          92          93          94          95          96
    1  -0.0121767  -0.0283126   0.0131245  -0.0015427   0.0095647   0.0234448
    2   0.0110583  -0.0050752   0.0276463  -0.0013129   0.0242017  -0.0236854
    3  -0.0291682   0.0194270   0.0148460  -0.0035714   0.0164398  -0.0044681
           97          98          99         100         101         102
    1  -0.0265192  -0.0099743   0.0050114   0.0022145   0.0262275  -0.0062690
    2  -0.0120526   0.0093172  -0.0137610   0.0001247   0.0194399  -0.0001843
    3   0.0186860  -0.0301202   0.0289541  -0.0045553  -0.0134047  -0.0083391
          103         104         105         106         107         108
    1  -0.0317454   0.0249870  -0.0063953   0.0717561  -0.0744136   0.0017644
    2  -0.0149255  -0.0179501   0.0006312   0.0490567  -0.0218208  -0.0115611
    3  -0.0005248   0.0021866  -0.0053742  -0.0130524  -0.0732953  -0.0016668
          109         110         111         112         113         114
    1  -0.0894560  -0.0006474  -0.0149027  -0.0139883  -0.0179567   0.0011095
    2  -0.0614820  -0.0062546   0.0051519  -0.0113324  -0.0164911  -0.0008987
    3   0.0176611  -0.0025435  -0.0023243  -0.0318993   0.0245111  -0.0019849
          115         116         117         118         119         120
    1  -0.0225534   0.0021445  -0.0018126   0.0172030  -0.0034566   0.0129938
    2   0.0186729   0.0091874  -0.0007471   0.0270183  -0.0020210   0.0096667
    3  -0.0169120   0.0308051  -0.0051446   0.0062095  -0.0361761  -0.0073554
          121         122         123         124         125         126
    1   0.0199236   0.0162428   0.0061376   0.0028679   0.0119921   0.0006764
    2  -0.0137938   0.0027241  -0.0317575   0.0007627   0.0106540   0.0012597
    3  -0.0276888   0.0282649   0.0003109  -0.0001432   0.0283396  -0.0013802
          127         128         129         130         131         132
    1  -0.0127296  -0.0048610   0.0053134   0.0045638  -0.0229856  -0.0049071
    2  -0.0076073   0.0357493   0.0002551   0.0077432  -0.0241485   0.0050635
    3  -0.0303836  -0.0008654   0.0006687   0.0032119  -0.0155549   0.0010182
          133         134         135         136         137         138
    1   0.0137881  -0.0298993   0.0485279   0.0265879  -0.0105487   0.0131643
    2  -0.0312766   0.0046667  -0.1000593   0.0327476  -0.0029442   0.0244495
    3  -0.0147602  -0.0017092  -0.0233493   0.0110386  -0.0030204   0.0179367
          139         140         141         142         143         144
    1  -0.0003161  -0.0135458  -0.0315915  -0.0017149  -0.0015914   0.0198160
    2  -0.0053076   0.0357330   0.0030531   0.0144927  -0.0012762  -0.0274271
    3  -0.0043783   0.0133130   0.0002475   0.0301822  -0.0001283   0.0045042
          145         146         147         148         149         150
    1  -0.0021931   0.0024079  -0.0144669   0.0023384   0.0192686  -0.0038487
    2   0.0014302  -0.0141309   0.0303175  -0.0008841  -0.0269784   0.0152440
    3  -0.0020595  -0.0306458  -0.0079105  -0.0000151   0.0087426   0.0299750
          151         152         153         154         155         156
    1   0.0072669  -0.0343487   0.0020537   0.0142341  -0.0394555  -0.0126629
    2  -0.0061550  -0.0904702  -0.0035877   0.0358723  -0.0194847   0.0002251
    3   0.0102542   0.0582938   0.0055631  -0.0238290  -0.0082414   0.0006270
          157         158         159         160         161         162
    1  -0.0705385  -0.0026222   0.0260255   0.0046318   0.0308017  -0.0215284
    2   0.0593616  -0.0088635  -0.0195990   0.0174440   0.0154640   0.0276722
    3  -0.0654785  -0.0146941   0.0296724  -0.0085241   0.0148314  -0.0016654
          163         164         165         166         167         168
    1   0.0028147   0.0374691   0.0017756  -0.0160844   0.0066432   0.0008553
    2   0.0107269   0.0904513   0.0052299  -0.0278026  -0.0011664   0.0316460
    3   0.0022244  -0.0578307  -0.0032908   0.0296286  -0.0181595  -0.0183615
          169         170         171         172         173         174
    1   0.0039825   0.0008154   0.0054026   0.0011579  -0.0042214  -0.0017660
    2   0.0042536  -0.0277219  -0.0102133   0.0027334   0.0139019   0.0028868
    3   0.0016062   0.0171270  -0.0313418   0.0012091   0.0327813   0.0007763
          175         176         177         178         179         180
    1   0.0265934  -0.0017314   0.0098062  -0.0016944   0.0043939  -0.0251439
    2   0.0150650  -0.0267687  -0.0075587   0.0019021  -0.0053901   0.0245637
    3   0.0151164   0.0178415  -0.0299970   0.0027802  -0.0316375   0.0072888
          181         182         183         184         185         186
    1   0.0275895  -0.0255195  -0.0301728   0.0013677   0.0003508   0.0000100
    2   0.0194725  -0.0176079  -0.0115691   0.0009222   0.0291570   0.0002208
    3   0.0100240  -0.0134938  -0.0035496   0.0044888  -0.0125869   0.0020016
          187         188         189         190         191         192
    1   0.0003430  -0.0031839   0.0223517   0.0025758   0.0096119   0.0028993
    2  -0.0307198  -0.0005735  -0.0166642   0.0328238  -0.0005042  -0.0001766
    3   0.0130947   0.0024386  -0.0161507  -0.0080167   0.0330211   0.0023792
          193         194         195         196         197         198
    1   0.0013421  -0.0298319   0.0065661   0.0199631  -0.0133075  -0.0003476
    2   0.0330480  -0.0081424  -0.0002013  -0.0182159  -0.0066184   0.0007673
    3  -0.0022419  -0.0019238   0.0363991  -0.0173933  -0.0290558   0.0003066
          199         200         201         202         203         204
    1  -0.0116206  -0.0007210   0.0110833   0.0097155  -0.0331552   0.0319510
    2   0.0307626   0.0001507   0.0069118  -0.0309634  -0.0016536   0.0026721
    3   0.0083768   0.0015565   0.0302292  -0.0070903   0.0061882  -0.0041461
          205         206         207         208         209         210
    1   0.0138711  -0.0005903   0.0242228   0.0019615   0.0234325  -0.0113635
    2  -0.0014778   0.0002227   0.0106449   0.0002723  -0.0245529   0.0027253
    3   0.0302325   0.0000917  -0.0200892  -0.0021633  -0.0025926  -0.0317779
          211         212         213         214         215         216
    1   0.0048673  -0.0262108   0.0112958   0.0143373  -0.0085166   0.0158594
    2   0.0124546   0.0217900  -0.0021065  -0.0228073  -0.0003219   0.0038161
    3   0.0028544  -0.0010260   0.0323285  -0.0347579   0.0073379   0.0295210
          217         218         219         220         221         222
    1  -0.0253641  -0.0086053  -0.0210553   0.0205584  -0.0013895   0.0127464
    2   0.0228047  -0.0321528   0.0256450   0.0064518   0.0007117   0.0127436
    3  -0.0075755  -0.0017454   0.0014293   0.0246116   0.0009585  -0.0276459
          223         224         225         226         227         228
    1  -0.0005325  -0.0211487   0.0261657  -0.0033240   0.0037121  -0.0220810
    2   0.0001901  -0.0040235  -0.0185171  -0.0007627   0.0007739   0.0023261
    3  -0.0006742  -0.0261265  -0.0085476   0.0055016   0.0071682  -0.0304658
          229         230         231         232         233         234
    1   0.0059974  -0.0397435   0.0000283  -0.0151438  -0.0039292   0.0163608
    2   0.0034351  -0.0089711   0.0054678  -0.0053946   0.0028171   0.0027034
    3   0.0004719   0.0013350  -0.0056048   0.0318216  -0.0046176   0.0336734
          235         236         237         238         239         240
    1  -0.0098884   0.0351013  -0.0266630   0.0289445   0.0000407  -0.0218642
    2  -0.0014907   0.0108041   0.0191314  -0.0025527  -0.0009731  -0.0164142
    3   0.0003917  -0.0010230   0.0082129  -0.0139464   0.0045749  -0.0186956
          241         242         243         244         245         246
    1  -0.0010519  -0.0326608  -0.0022450   0.0290957  -0.0221490  -0.0030391
    2   0.0002517   0.0030311   0.0032942  -0.0069327  -0.0185609  -0.0122849
    3   0.0021256   0.0165016   0.0012188  -0.0109350  -0.0161779   0.0336777
          247         248         249         250         251         252
    1  -0.0017174   0.0322110  -0.0010248  -0.0067683  -0.0083789  -0.0059993
    2  -0.0015897  -0.0027572  -0.0097830   0.0326540   0.0316180   0.0317917
    3   0.0006997  -0.0073532   0.0359968   0.0033293  -0.0014442  -0.0049287
          253         254         255         256         257         258
    1   0.0002815  -0.0110582  -0.0002253   0.0188871   0.0051354   0.0003042
    2   0.0007975  -0.0172001  -0.0028218   0.0071199  -0.0332602  -0.0142435
    3   0.0004795  -0.0252237  -0.0018507  -0.0269793   0.0037258   0.0007595
          259         260         261         262         263         264
    1  -0.0170595   0.0339338  -0.0099298   0.0058321  -0.0155748   0.0351737
    2  -0.0103065  -0.0111720   0.0219952   0.0034014  -0.0082489  -0.0096574
    3   0.0244801   0.0065703  -0.0369813   0.0123785   0.0218436   0.0066791
          265         266         267         268         269         270
    1   0.0004405  -0.0191345  -0.0268536   0.0005519   0.0013269   0.0026133
    2   0.0345725  -0.0090005  -0.0056965  -0.0010980   0.0312958  -0.0010752
    3   0.0041600   0.0252896  -0.0173716   0.0021653   0.0072388   0.0050356
          271         272         273         274         275         276
    1  -0.0064399  -0.0240124  -0.0015149   0.0242586  -0.0009004   0.0043091
    2  -0.0333388   0.0048386  -0.0020813  -0.0126298  -0.0042497   0.0198078
    3  -0.0049521   0.0225004   0.0019310  -0.0191805   0.0007537  -0.0247104
          277         278         279         280         281         282
    1  -0.0222817   0.0274460  -0.0006422  -0.0092574  -0.0239209   0.0260597
    2   0.0123115  -0.0008806  -0.0010996  -0.0342166   0.0029394  -0.0051099
    3   0.0205558   0.0179899   0.0026365  -0.0022000   0.0270796   0.0202751
          283         284         285         286         287         288
    1   0.0246678  -0.0238014  -0.0013765  -0.0126777  -0.0021554   0.0092642
    2  -0.0066518   0.0049568  -0.0047924   0.0128144  -0.0012423  -0.0143060
    3  -0.0202698  -0.0216666   0.0022172   0.0276585   0.0005453  -0.0286930
          289         290         291         292         293         294
    1  -0.0052944   0.0018328   0.0280423  -0.0108265  -0.0018085   0.0012155
    2  -0.0010207  -0.0319295   0.0136149   0.0124333   0.0005352  -0.0308436
    3  -0.0014278   0.0064514  -0.0080250   0.0299263   0.0033477   0.0090415
          295         296         297         298         299         300
    1  -0.0267091  -0.0197588   0.0262007   0.0071758  -0.0018021  -0.0263018
    2   0.0007124   0.0090871   0.0158306   0.0048960   0.0059056   0.0242724
    3  -0.0214921   0.0308980  -0.0082989  -0.0330985  -0.0008954   0.0029274
          301         302         303         304         305         306
    1   0.0036199   0.0286800  -0.0086127   0.0131557  -0.0536993   0.0684488
    2   0.0072405  -0.0197873   0.0036499   0.0297166   0.0694098  -0.0583687
    3   0.0050129  -0.0000001   0.0359456  -0.0010430  -0.0741123   0.0677546
          307         308         309         310         311         312
    1   0.0005061   0.0258741   0.0075273  -0.0014191   0.0285773  -0.0011171
    2   0.0099861   0.0135634  -0.0172624   0.0015269   0.0046350   0.0002773
    3  -0.0077053   0.0179287   0.0277072   0.0005527  -0.0154577   0.0029338
          313         314         315         316         317         318
    1   0.0094040  -0.0281756   0.0065064   0.0276668  -0.0188456   0.0173554
    2  -0.0312363  -0.0027274  -0.0102019   0.0063539  -0.0166334   0.0368375
    3  -0.0058826   0.0204091   0.0020548  -0.0185262  -0.0131438   0.0252355
          319         320         321         322         323         324
    1  -0.0176882  -0.0242486  -0.0012269  -0.0232776  -0.0103205  -0.0176942
    2   0.0080948  -0.0192406   0.0057745   0.0353508   0.0305386  -0.0179925
    3  -0.0025545   0.0194406  -0.0214797   0.0006026   0.0112024   0.0219257
          325         326         327         328         329         330
    1  -0.0044873   0.0298838  -0.0080996   0.0050814  -0.0409435   0.0113171
    2  -0.0002272   0.0064983   0.0000337   0.0188749  -0.0067055  -0.0230712
    3   0.0008736   0.0078790  -0.0019377  -0.0268984  -0.0047041  -0.0033196
          331         332         333         334         335         336
    1  -0.0208566   0.0194002  -0.0016336   0.0125838  -0.0001232  -0.0203909
    2   0.0271959  -0.0143294  -0.0034605   0.0270449  -0.0010956   0.0115478
    3   0.0042019   0.0219302  -0.0005355  -0.0120435  -0.0007790  -0.0243759
          337         338         339         340         341         342
    1   0.0252173  -0.0005958  -0.0032174   0.0350225   0.0014583   0.0053631
    2  -0.0087487  -0.0082565   0.0133862  -0.0091668  -0.0218357  -0.0421144
    3  -0.0168966   0.0024009  -0.0101296  -0.0001898   0.0029119   0.0138918
          343         344         345         346         347         348
    1  -0.0156662  -0.0028417   0.0030481   0.0106099  -0.0300859   0.0102303
    2   0.0036774  -0.0017054  -0.0410043  -0.0018464  -0.0171360  -0.0064964
    3  -0.0082296  -0.0051017   0.0081329  -0.0044754   0.0059274  -0.0003369
          349         350         351         352         353         354
    1  -0.0295322  -0.0035856   0.0007993  -0.0006192  -0.0279790   0.0232969
    2   0.0160438  -0.0115481   0.0312696  -0.0049775   0.0057872   0.0214433
    3  -0.0074112   0.0023654  -0.0157429  -0.0013178   0.0169937  -0.0084779
          355         356         357         358         359         360
    1   0.0003972  -0.0074785  -0.0007143   0.0127677   0.0267858   0.0014839
    2  -0.0018349  -0.0170390  -0.0035018   0.0171270  -0.0183116   0.0006094
    3   0.0014482  -0.0271876   0.0018009   0.0249745  -0.0088728   0.0002976
          361         362         363         364         365         366
    1  -0.0247515   0.0026993   0.0250266  -0.0198938  -0.0156828   0.0002582
    2   0.0182290   0.0011058  -0.0181462  -0.0220465   0.0161636  -0.0003788
    3   0.0119133   0.0027303  -0.0137624   0.0132020  -0.0232329  -0.0020007
          367         368         369         370
    1   0.0254674   0.0119784  -0.0205887  -0.0264370
    2  -0.0215027   0.0179409  -0.0213738   0.0174312
    3  -0.0066560   0.0253099   0.0149029   0.0084745
  --- DONE ESP SUMMARY ---
 Total job time:  21.02s(wall), 81.92s(cpu) 
 Tue Aug  6 17:03:07 2024

        *************************************************************
        *                                                           *
        *  Thank you very much for using Q-Chem.  Have a nice day.  *
        *                                                           *
        *************************************************************


