
Running Job 1 of 2 19nt_mm_min_distance_cutoff4_nowat_optimized_spade_wb97x-v_631gd.in
qchem 19nt_mm_min_distance_cutoff4_nowat_optimized_spade_wb97x-v_631gd.in_2102154.0 ./qchem2102154/ 1
srun -n 1 /cm/shared/apps/spack/0.17.3/cpu/b/opt/spack/linux-rocky8-zen2/gcc-10.2.0/qchem-6.0-rytxnwjazd34ekd2gqyi5ufsaimxsd3r/exe/qcprog.exe 19nt_mm_min_distance_cutoff4_nowat_optimized_spade_wb97x-v_631gd.in_2102154.0 ./qchem2102154/

                  Welcome to Q-Chem
     A Quantum Leap Into The Future Of Chemistry


 Q-Chem 6.0, Q-Chem, Inc., Pleasanton, CA (2022)

 License issued to: University of California, San Diego (site)

 E. Epifanovsky,  A. T. B. Gilbert,  Xintian Feng,  Joonho Lee,  Yuezhi Mao,  
 N. Mardirossian,  P. Pokhilko,  A. White,  M. Wormit,  M. P. Coons,  
 A. L. Dempwolff,  Zhengting Gan,  D. Hait,  P. R. Horn,  L. D. Jacobson,  
 I. Kaliman,  J. Kussmann,  A. W. Lange,  Ka Un Lao,  D. S. Levine,  Jie Liu,  
 S. C. McKenzie,  A. F. Morrison,  K. Nanda,  F. Plasser,  D. R. Rehn,  
 M. L. Vidal,  Zhi-Qiang You,  Ying Zhu,  B. Alam,  B. Albrecht,  
 A. Aldossary,  E. Alguire,  J. H. Andersen,  V. Athavale,  D. Barton,  
 K. Begam,  A. Behn,  N. Bellonzi,  Y. A. Bernard,  E. J. Berquist,  
 H. Burton,  A. Carreras,  K. Carter-Fenk,  Romit Chakraborty,  
 Chandrima Chakravarty,  Junhan Chen,  A. D. Chien,  K. D. Closser,  
 V. Cofer-Shabica,  L. Cunha,  S. Dasgupta,  Jia Deng,  M. de Wergifosse,  
 M. Diedenhofen,  Hainam Do,  S. Ehlert,  Po-Tung Fang,  S. Fatehi,  
 Qingguo Feng,  T. Friedhoff,  B. Ganoe,  J. Gayvert,  Qinghui Ge,  
 G. Gidofalvi,  M. Goldey,  J. Gomes,  C. Gonzalez-Espinoza,  S. Gulania,  
 A. Gunina,  J. A. Gyamfi,  M. W. D. Hanson-Heine,  P. H. P. Harbach,  
 A. W. Hauser,  M. F. Herbst,  M. Hernandez Vera,  M. Hodecker,  
 Z. C. Holden,  S. Houck,  Xunkun Huang,  Kerwin Hui,  B. C. Huynh,  
 K. Ikeda,  M. Ivanov,  Hyunjun Ji,  Zuxin Jin,  Hanjie Jiang,  B. Kaduk,  
 S. Kaehler,  R. Kang,  K. Khistyaev,  Jaehoon Kim,  Yongbin Kim,  
 P. Klunzinger,  Z. Koczor-Benda,  Joong Hoon Koh,  D. Kosenkov,  
 Saikiran Kotaru,  L. Koulias,  T. Kowalczyk,  C. M. Krauter,  K. Kue,  
 A. Kunitsa,  T. Kus,  A. Landau,  K. V. Lawler,  D. Lefrancois,  S. Lehtola,  
 Rain Li,  Shaozhi Li,  Yi-Pei Li,  Jiashu Liang,  M. Liebenthal,  
 Hung-Hsuan Lin,  You-Sheng Lin,  Fenglai Liu,  Kuan-Yu Liu,  
 M. Loipersberger,  A. Luenser,  C. Malbon,  A. Manjanath,  P. Manohar,  
 E. Mansoor,  S. F. Manzer,  Shan-Ping Mao,  A. V. Marenich,  T. Markovich,  
 S. Mason,  F. Matz,  S. A. Maurer,  P. F. McLaughlin,  M. F. S. J. Menger,  
 J.-M. Mewes,  S. A. Mewes,  P. Morgante,  Mohammad Mostafanejad,  
 J. W. Mullinax,  K. J. Oosterbaan,  G. Paran,  V. Parravicini,  
 Alexander C. Paul,  Suranjan K. Paul,  F. Pavosevic,  Zheng Pei,  S. Prager,  
 E. I. Proynov,  E. Ramos,  B. Rana,  A. E. Rask,  A. Rettig,  R. M. Richard,  
 F. Rob,  E. Rossomme,  T. Scheele,  M. Scheurer,  M. Schneider,  
 P. E. Schneider,  N. Sergueev,  S. M. Sharada,  Hengyuan Shen,  
 W. Skomorowski,  D. W. Small,  C. J. Stein,  Yingli Su,  Yu-Chuan Su,  
 E. J. Sundstrom,  Zhen Tao,  J. Thirman,  Hung-Yi Tsai,  T. Tsuchimochi,  
 N. M. Tubman,  C. Utku,  S. P. Veccham,  O. Vydrov,  J. Wenzel,  
 Jonathan Wong,  J. Witte,  A. Yamada,  Chou-Hsun Yang,  Kun Yao,  
 S. Yeganeh,  S. R. Yost,  A. Zech,  F. Zeller,  Igor Ying Zhang,  
 Xing Zhang,  Yu Zhang,  D. Zuev,  A. Aspuru-Guzik,  A. T. Bell,  
 N. A. Besley,  K. B. Bravaya,  B. R. Brooks,  D. Casanova,  Jeng-Da Chai,  
 Hsing-Ta Chen,  S. Coriani,  C. J. Cramer,  A. E. DePrince, III,  
 R. A. DiStasio Jr.,  A. Dreuw,  B. D. Dunietz,  T. R. Furlani,  
 W. A. Goddard III,  S. Grimme,  S. Hammes-Schiffer,  T. Head-Gordon,  
 W. J. Hehre,  Chao-Ping Hsu,  T.-C. Jagau,  Yousung Jung,  A. Klamt,  
 Jing Kong,  D. S. Lambrecht,  Xiangyuan Li,  WanZhen Liang,  N. J. Mayhall,  
 C. W. McCurdy,  J. B. Neaton,  T. Neudecker,  C. Ochsenfeld,  
 J. A. Parkhill,  R. Peverati,  V. A. Rassolov,  Haisheng Ren,  Yihan Shao,  
 L. V. Slipchenko,  R. P. Steele,  J. E. Subotnik,  A. J. W. Thom,  
 A. Tkatchenko,  D. G. Truhlar,  T. Van Voorhis,  Fan Wang,  
 T. A. Wesolowski,  K. B. Whaley,  H. L. Woodcock III,  P. M. Zimmerman,  
 S. Faraji,  P. M. W. Gill,  M. Head-Gordon,  J. M. Herbert,  A. I. Krylov

 Contributors to earlier versions of Q-Chem not listed above: 
 R. D. Adamson,  B. Austin,  R. Baer,  J. Baker,  G. J. O. Beran,  
 K. Brandhorst,  S. T. Brown,  E. F. C. Byrd,  Arup K. Chakraborty,  
 G. K. L. Chan,  Chun-Min Chang,  Yunqing Chen,  C.-L. Cheng,  
 Siu Hung Chien,  D. M. Chipman,  D. L. Crittenden,  H. Dachsel,  
 R. J. Doerksen,  A. D. Dutoi,  R. G. Edgar,  J. Fosso-Tande,  
 L. Fusti-Molnar,  D. Ghosh,  A. Ghysels,  A. Golubeva-Zadorozhnaya,  
 J. Gonthier,  M. S. Gordon,  S. R. Gwaltney,  G. Hawkins,  J. E. Herr,  
 A. Heyden,  S. Hirata,  E. G. Hohenstein,  G. Kedziora,  F. J. Keil,  
 C. Kelley,  Jihan Kim,  R. A. King,  R. Z. Khaliullin,  P. P. Korambath,  
 W. Kurlancheek,  A. Laurent,  A. M. Lee,  M. S. Lee,  S. V. Levchenko,  
 Ching Yeh Lin,  D. Liotard,  E. Livshits,  R. C. Lochan,  I. Lotan,  
 L. A. Martinez-Martinez,  P. E. Maslen,  N. Nair,  D. P. O'Neill,  
 D. Neuhauser,  E. Neuscamman,  C. M. Oana,  R. Olivares-Amaya,  R. Olson,  
 T. M. Perrine,  B. Peters,  P. A. Pieniazek,  A. Prociuk,  Y. M. Rhee,  
 J. Ritchie,  M. A. Rohrdanz,  E. Rosta,  N. J. Russ,  H. F. Schaefer III,  
 M. W. Schmidt,  N. E. Schultz,  S. Sharma,  N. Shenvi,  C. D. Sherrill,  
 A. C. Simmonett,  A. Sodt,  T. Stein,  D. Stuck,  K. S. Thanthiriwatte,  
 V. Vanovschi,  L. Vogt,  Tao Wang,  A. Warshel,  M. A. Watson,  
 C. F. Williams,  Q. Wu,  X. Xu,  Jun Yang,  W. Zhang,  Yan Zhao

   Please cite Q-Chem as follows:
  "Software for the frontiers of quantum chemistry:
   An overview of developments in the Q-Chem 5 package"
   J. Chem. Phys. 155, 084801 (2021)
   https://doi.org/10.1063/5.0055522 (open access)

 Q-Chem 6.0.2 for Intel X86 EM64T Linux

 Parts of Q-Chem use Armadillo 9.900.5 (Nocturnal Misbehaviour).
 http://arma.sourceforge.net/

 Q-Chem begins on Tue Aug  6 12:59:09 2024  

 Host: 
0

     Scratch files written to ./qchem2102154//
 Dec722 |scratch|qcdevops|jenkins|workspace|build_RNUM    
 Processing $rem in /cm/shared/apps/spack/0.17.3/cpu/b/opt/spack/linux-rocky8-zen2/gcc-10.2.0/qchem-6.0-rytxnwjazd34ekd2gqyi5ufsaimxsd3r/config/preferences:
 Processing $rem in /home/hklem/.qchemrc:
 No nuclear gradient supported for projection-based embedding or EMFT. Set max ideriv = 0.

 Checking the input file for inconsistencies... 	...done.

--------------------------------------------------------------
User input:
--------------------------------------------------------------
$molecule
-1 1
--
0 1
C    2.94400    0.14200    -0.10100
O    4.14100    -0.00900   0.23000
C    2.07000    -0.96700   -0.34000
C    0.82200    -0.79600   -0.85500
C    0.19900    0.57400    -1.02200
C    0.92400    1.63000    -0.18500
C    2.43400    1.53900    -0.33000
C    0.06700    -1.95800   -1.40000
C    -1.44400   -1.90700   -1.16800
C    -2.02100   -0.54500   -1.55600
C    -1.31700   0.54800    -0.72000
C    -3.52900   -0.45100   -1.34800
C    -4.11100   0.94300    -1.66100
C    -3.46300   1.96300    -0.72800
C    -1.93700   1.94900    -0.86700
C    -4.45800   -1.40300   -2.11400
C    -5.85100   -0.73000   -1.99300
C    -5.60000   0.66500    -1.38100
C    -3.92700   1.36900    -3.12900
O    -6.51900   1.60700    -1.90900
H    2.48500    -1.96200   -0.21400
H    0.31600    0.81700    -2.09200
H    0.65000    1.49200    0.87000
H    0.59800    2.63600    -0.46800
H    2.74000    1.83000    -1.34700
H    2.94700    2.21400    0.36300
H    0.49300    -2.89400   -1.03100
H    0.28700    -1.93200   -2.48800
H    -1.66400   -2.10900   -0.11000
H    -1.91500   -2.70500   -1.75000
H    -1.79300   -0.38300   -2.62000
H    -1.43300   0.25400    0.33800
H    -3.71000   -0.62100   -0.27200
H    -3.73400   1.72200    0.31000
H    -3.82900   2.97700    -0.93100
H    -1.65300   2.38200    -1.83600
H    -1.52000   2.61300    -0.10200
H    -4.44600   -2.41700   -1.71200
H    -4.14100   -1.48400   -3.15800
H    -6.53300   -1.31800   -1.37000
H    -6.33400   -0.60500   -2.96700
H    -5.72700   0.61300    -0.28600
H    -4.50700   0.74300    -3.81200
H    -4.24900   2.40600    -3.26700
H    -2.88000   1.31200    -3.43900
H    -6.20200   2.48600    -1.66400
--
-1 1
H    6.98400    4.09100    7.39300
C    6.64000    3.89600    6.37000
H    6.51300    4.85900    5.86300
C    7.62500    3.01000    5.60500
H    8.61000    3.49400    5.58000
H    7.75600    2.06100    6.13800
C    7.14500    2.74700    4.20000
C    7.40800    3.65600    3.17200
H    8.01000    4.53800    3.38100
C    6.92500    3.45700    1.88700
H    7.14600    4.15900    1.08900
C    6.16100    2.32300    1.60800
O    5.73200    2.14500    0.32800
H    5.18100    1.32500    0.25300
C    5.86900    1.41000    2.62200
H    5.28500    0.52300    2.40700
C    6.36500    1.63200    3.90200
H    6.14000    0.91000    4.68400
H    5.65600    3.42000    6.42400
H    1.79800    6.78400    4.62400
C    1.22100    6.16800    3.92500
H    1.16000    6.70800    2.97200
C    1.87900    4.79600    3.72400
H    1.92900    4.30200    4.70400
C    1.04500    3.90700    2.79600
H    0.01800    3.78800    3.16000
H    0.99400    4.33800    1.78800
H    1.49000    2.90900    2.70800
C    3.30900    4.93200    3.19100
H    3.79900    3.95500    3.10000
H    3.92600    5.55000    3.85300
H    3.31200    5.40000    2.19800
H    0.20300    6.06600    4.31900
H    3.80500    -3.57600   -7.34800
C    3.11800    -3.65100   -6.49700
H    3.47000    -4.44000   -5.82600
C    3.02500    -2.32500   -5.73200
H    2.65700    -1.52300   -6.38100
H    4.02800    -2.04100   -5.38500
C    2.10700    -2.42300   -4.49600
O    2.39300    -3.34500   -3.67300
O    1.15900    -1.61200   -4.39900
H    2.13500    -3.94900   -6.87800
H    3.08700    6.89100    -5.40700
C    2.19500    6.78700    -4.78000
H    1.91300    5.72900    -4.78000
C    2.47600    7.26800    -3.35200
H    2.72800    8.33600    -3.36900
H    1.56400    7.16900    -2.75000
C    3.59600    6.47700    -2.72300
C    4.92800    6.75000    -3.05100
H    5.15400    7.59600    -3.69700
C    5.96800    5.95600    -2.58900
H    6.99800    6.16100    -2.86100
C    5.69300    4.85400    -1.77500
O    6.73200    4.08300    -1.38200
H    6.39500    3.31200    -0.88500
C    4.37200    4.59100    -1.40300
H    4.16400    3.75700    -0.74300
C    3.34300    5.39200    -1.88600
H    2.31600    5.15500    -1.61200
H    1.38400    7.36100    -5.24600
H    -1.64800   5.95800    -5.59500
C    -2.44900   5.35200    -5.16100
H    -2.13800   4.30600    -5.13200
H    -3.33500   5.42200    -5.79800
C    -2.83600   5.77700    -3.74200
O    -3.50700   5.05100    -3.02000
N    -2.42400   7.02100    -3.35800
H    -1.84000   7.54400    -3.99200
C    -2.73400   7.63500    -2.06900
H    -3.43700   6.96400    -1.57000
C    -1.49400   7.88000    -1.20900
H    -0.82700   8.58000    -1.73400
H    -1.82000   8.39800    -0.29500
C    -0.69500   6.63100    -0.81400
H    -0.33400   6.15200    -1.73600
C    0.52000    7.04200    0.02200
H    1.13900    6.17700    0.28100
H    1.15900    7.75700    -0.50900
H    0.19700    7.51200    0.96000
C    -1.55400   5.61300    -0.06000
H    -2.03200   6.07800    0.81200
H    -2.33300   5.18500    -0.69900
H    -0.93600   4.78600    0.30800
H    -3.25400   8.58400    -2.24700
H    -7.08700   6.69400    1.71300
C    -6.43300   5.95200    2.18500
H    -7.04400   5.08800    2.46000
C    -5.28800   5.53700    1.25000
H    -4.64600   6.41700    1.09500
C    -4.43900   4.43700    1.89100
H    -4.03400   4.75400    2.86000
H    -5.04700   3.53800    2.06100
H    -3.59900   4.14900    1.25000
C    -5.80100   5.09200    -0.12400
H    -6.32700   4.13100    -0.04400
H    -6.50300   5.82100    -0.54400
H    -4.98100   4.97100    -0.84100
H    -6.04000   6.38600    3.11200
H    0.34800    -4.50100   7.79500
C    -0.67500   -4.40400   7.41800
H    -1.35700   -4.68200   8.22700
C    -0.96800   -2.97800   6.94500
H    -2.02800   -2.90900   6.66700
H    -0.84000   -2.28800   7.79100
C    -0.14100   -2.47700   5.77500
C    -0.47900   -1.26000   5.17100
H    -1.32400   -0.69300   5.56000
C    0.22600    -0.77700   4.07400
H    -0.07300   0.16100    3.61200
C    1.29400    -1.50700   3.55400
H    1.83700    -1.16500   2.67800
C    1.65100    -2.71000   4.15300
H    2.46500    -3.28900   3.72900
C    0.94200    -3.18600   5.25500
H    1.22800    -4.13800   5.69000
H    -0.80500   -5.12400   6.60200
H    -4.54100   -0.55400   4.90700
C    -5.08000   -0.29500   3.98600
H    -5.70200   0.58400    4.18800
C    -4.08900   -0.03800   2.84800
H    -4.66000   0.26100    1.95400
C    -3.13200   1.10600    3.18900
H    -2.52000   0.84600    4.06200
H    -3.67400   2.02900    3.42100
H    -2.45100   1.31500    2.35400
C    -3.32000   -1.31600   2.52400
H    -2.77400   -1.66800   3.40700
H    -2.58400   -1.16100   1.72900
H    -3.99500   -2.12000   2.20600
H    -5.75000   -1.12900   3.74600
H    -10.81800  2.49400    1.83800
C    -10.29200  3.24900    1.24600
H    -10.72300  4.22800    1.48100
C    -8.79200   3.24300    1.52800
H    -8.61600   3.46700    2.58800
H    -8.32500   4.05300    0.95700
C    -8.06300   1.94900    1.16200
H    -8.20700   1.70300    0.10400
H    -6.98500   2.07800    1.32300
S    -8.63300   0.55700    2.19600
C    -7.71100   -0.79300   1.41700
H    -8.00500   -0.91800   0.37100
H    -6.63200   -0.62400   1.47200
H    -7.94600   -1.70800   1.96500
H    -10.49000  3.03700    0.18900
H    -8.14300   -4.01200   1.71300
C    -7.24900   -4.63300   1.84000
H    -7.55900   -5.67500   1.71500
C    -6.16000   -4.24000   0.84000
H    -5.94400   -3.16800   0.94700
H    -6.53800   -4.37100   -0.18400
C    -4.84100   -5.01800   0.97900
H    -4.46000   -4.85900   2.00000
C    -5.03100   -6.52300   0.77500
H    -5.71800   -6.96000   1.50700
H    -5.42800   -6.72700   -0.22900
H    -4.07500   -7.04900   0.86600
C    -3.81000   -4.47400   -0.00900
H    -3.60800   -3.41200   0.17400
H    -4.16200   -4.57500   -1.04100
H    -2.85500   -5.00600   0.05200
H    -6.89700   -4.51000   2.87200
H    -1.74100   -6.71200   3.31500
C    -1.19100   -6.47500   2.39500
H    -1.91500   -6.44600   1.57200
C    -0.45900   -5.13900   2.51000
H    0.26700    -5.21500   3.33100
C    0.30800    -4.82200   1.22800
H    0.90200    -3.90700   1.33400
H    0.99700    -5.63400   0.96900
H    -0.37900   -4.69500   0.38100
C    -1.43200   -4.01400   2.84800
H    -0.91000   -3.05800   2.93000
H    -1.95100   -4.19700   3.79800
H    -2.19100   -3.91700   2.06300
H    -0.49500   -7.29700   2.19300
H    4.26700    -5.57200   2.51900
C    5.28600    -5.49100   2.12900
H    5.25800    -5.72000   1.06100
C    5.83600    -4.08600   2.35400
H    5.95000    -3.88300   3.42800
H    6.82300    -3.96500   1.90000
C    4.91800    -3.01800   1.80400
O    3.70500    -3.09800   1.79600
O    5.57500    -1.95300   1.35500
H    4.92400    -1.32800   0.94500
H    5.91600    -6.23400   2.62800
H    10.71300   -2.92800   -2.86300
C    9.94200    -3.30800   -2.18400
H    10.44700   -3.78800   -1.33600
C    9.02400    -2.18700   -1.70300
H    9.61600    -1.42800   -1.17300
H    8.57000    -1.67900   -2.56300
C    7.92500    -2.67700   -0.76000
H    8.36900    -3.28900   0.03600
H    7.41700    -1.84500   -0.26500
S    6.65000    -3.72700   -1.53100
C    5.57800    -2.45500   -2.26200
H    6.10700    -1.88700   -3.03300
H    5.22000    -1.77200   -1.48500
H    4.71200    -2.94500   -2.71800
H    9.36900    -4.07600   -2.71300
H    3.70600    -5.13100   -2.96300
C    3.72400    -5.70100   -2.03000
H    4.74900    -6.03400   -1.83000
C    3.18900    -4.84500   -0.89000
H    3.08600    -5.41000   0.04300
H    2.21400    -4.41700   -1.14100
H    3.86000    -4.00900   -0.68400
H    3.11100    -6.59900   -2.18300
H    -0.67000   -9.08700   -2.56900
C    -1.69900   -8.86600   -2.26600
H    -2.08600   -9.72100   -1.69800
C    -1.74700   -7.57400   -1.43700
H    -2.77900   -7.39800   -1.10400
H    -1.15200   -7.70800   -0.52500
C    -1.25200   -6.37000   -2.18300
C    0.03600    -5.89500   -2.21400
H    0.90500    -6.26500   -1.68800
N    0.14100    -4.80400   -3.03100
H    1.00200    -4.25000   -3.21800
C    -1.09700   -4.53700   -3.55400
C    -1.50300   -3.50200   -4.40600
H    -0.78500   -2.75600   -4.74000
C    -2.84100   -3.46100   -4.75900
H    -3.19300   -2.66900   -5.41500
C    -3.75900   -4.42100   -4.28300
H    -4.80200   -4.35400   -4.58300
C    -3.35200   -5.44000   -3.44000
H    -4.06600   -6.17500   -3.07400
C    -2.00300   -5.50800   -3.05200
H    -2.29600   -8.76000   -3.17900
$end

$rem
JOBTYPE  SP
METHOD  WB97X-V
BASIS  6-31G(D)
SYMMETRY  FALSE
SYM_IGNORE  TRUE
MEM_TOTAL  12000
MEM_STATIC  4000
BASIS_LIN_DEP_THRESH  6
THRESH  14
SCF_CONVERGENCE  8
FD_MAT_VEC_PROD  FALSE
XC_GRID  000075000302
NL_GRID  1
MAX_SCF_CYCLES  200
ENV_METHOD  WB97X-V
GEN_SCFMAN_EMBED  TRUE
SPADE_PARTITION  TRUE
EMBEDDING_EARLY_STOP  TRUE
$end

--------------------------------------------------------------
 ----------------------------------------------------------------
             Standard Nuclear Orientation (Angstroms)
    I     Atom           X                Y                Z
 ----------------------------------------------------------------
    1      C       2.9440000000     0.1420000000    -0.1010000000
    2      O       4.1410000000    -0.0090000000     0.2300000000
    3      C       2.0700000000    -0.9670000000    -0.3400000000
    4      C       0.8220000000    -0.7960000000    -0.8550000000
    5      C       0.1990000000     0.5740000000    -1.0220000000
    6      C       0.9240000000     1.6300000000    -0.1850000000
    7      C       2.4340000000     1.5390000000    -0.3300000000
    8      C       0.0670000000    -1.9580000000    -1.4000000000
    9      C      -1.4440000000    -1.9070000000    -1.1680000000
   10      C      -2.0210000000    -0.5450000000    -1.5560000000
   11      C      -1.3170000000     0.5480000000    -0.7200000000
   12      C      -3.5290000000    -0.4510000000    -1.3480000000
   13      C      -4.1110000000     0.9430000000    -1.6610000000
   14      C      -3.4630000000     1.9630000000    -0.7280000000
   15      C      -1.9370000000     1.9490000000    -0.8670000000
   16      C      -4.4580000000    -1.4030000000    -2.1140000000
   17      C      -5.8510000000    -0.7300000000    -1.9930000000
   18      C      -5.6000000000     0.6650000000    -1.3810000000
   19      C      -3.9270000000     1.3690000000    -3.1290000000
   20      O      -6.5190000000     1.6070000000    -1.9090000000
   21      H       2.4850000000    -1.9620000000    -0.2140000000
   22      H       0.3160000000     0.8170000000    -2.0920000000
   23      H       0.6500000000     1.4920000000     0.8700000000
   24      H       0.5980000000     2.6360000000    -0.4680000000
   25      H       2.7400000000     1.8300000000    -1.3470000000
   26      H       2.9470000000     2.2140000000     0.3630000000
   27      H       0.4930000000    -2.8940000000    -1.0310000000
   28      H       0.2870000000    -1.9320000000    -2.4880000000
   29      H      -1.6640000000    -2.1090000000    -0.1100000000
   30      H      -1.9150000000    -2.7050000000    -1.7500000000
   31      H      -1.7930000000    -0.3830000000    -2.6200000000
   32      H      -1.4330000000     0.2540000000     0.3380000000
   33      H      -3.7100000000    -0.6210000000    -0.2720000000
   34      H      -3.7340000000     1.7220000000     0.3100000000
   35      H      -3.8290000000     2.9770000000    -0.9310000000
   36      H      -1.6530000000     2.3820000000    -1.8360000000
   37      H      -1.5200000000     2.6130000000    -0.1020000000
   38      H      -4.4460000000    -2.4170000000    -1.7120000000
   39      H      -4.1410000000    -1.4840000000    -3.1580000000
   40      H      -6.5330000000    -1.3180000000    -1.3700000000
   41      H      -6.3340000000    -0.6050000000    -2.9670000000
   42      H      -5.7270000000     0.6130000000    -0.2860000000
   43      H      -4.5070000000     0.7430000000    -3.8120000000
   44      H      -4.2490000000     2.4060000000    -3.2670000000
   45      H      -2.8800000000     1.3120000000    -3.4390000000
   46      H      -6.2020000000     2.4860000000    -1.6640000000
   47      H       6.9840000000     4.0910000000     7.3930000000
   48      C       6.6400000000     3.8960000000     6.3700000000
   49      H       6.5130000000     4.8590000000     5.8630000000
   50      C       7.6250000000     3.0100000000     5.6050000000
   51      H       8.6100000000     3.4940000000     5.5800000000
   52      H       7.7560000000     2.0610000000     6.1380000000
   53      C       7.1450000000     2.7470000000     4.2000000000
   54      C       7.4080000000     3.6560000000     3.1720000000
   55      H       8.0100000000     4.5380000000     3.3810000000
   56      C       6.9250000000     3.4570000000     1.8870000000
   57      H       7.1460000000     4.1590000000     1.0890000000
   58      C       6.1610000000     2.3230000000     1.6080000000
   59      O       5.7320000000     2.1450000000     0.3280000000
   60      H       5.1810000000     1.3250000000     0.2530000000
   61      C       5.8690000000     1.4100000000     2.6220000000
   62      H       5.2850000000     0.5230000000     2.4070000000
   63      C       6.3650000000     1.6320000000     3.9020000000
   64      H       6.1400000000     0.9100000000     4.6840000000
   65      H       5.6560000000     3.4200000000     6.4240000000
   66      H       1.7980000000     6.7840000000     4.6240000000
   67      C       1.2210000000     6.1680000000     3.9250000000
   68      H       1.1600000000     6.7080000000     2.9720000000
   69      C       1.8790000000     4.7960000000     3.7240000000
   70      H       1.9290000000     4.3020000000     4.7040000000
   71      C       1.0450000000     3.9070000000     2.7960000000
   72      H       0.0180000000     3.7880000000     3.1600000000
   73      H       0.9940000000     4.3380000000     1.7880000000
   74      H       1.4900000000     2.9090000000     2.7080000000
   75      C       3.3090000000     4.9320000000     3.1910000000
   76      H       3.7990000000     3.9550000000     3.1000000000
   77      H       3.9260000000     5.5500000000     3.8530000000
   78      H       3.3120000000     5.4000000000     2.1980000000
   79      H       0.2030000000     6.0660000000     4.3190000000
   80      H       3.8050000000    -3.5760000000    -7.3480000000
   81      C       3.1180000000    -3.6510000000    -6.4970000000
   82      H       3.4700000000    -4.4400000000    -5.8260000000
   83      C       3.0250000000    -2.3250000000    -5.7320000000
   84      H       2.6570000000    -1.5230000000    -6.3810000000
   85      H       4.0280000000    -2.0410000000    -5.3850000000
   86      C       2.1070000000    -2.4230000000    -4.4960000000
   87      O       2.3930000000    -3.3450000000    -3.6730000000
   88      O       1.1590000000    -1.6120000000    -4.3990000000
   89      H       2.1350000000    -3.9490000000    -6.8780000000
   90      H       3.0870000000     6.8910000000    -5.4070000000
   91      C       2.1950000000     6.7870000000    -4.7800000000
   92      H       1.9130000000     5.7290000000    -4.7800000000
   93      C       2.4760000000     7.2680000000    -3.3520000000
   94      H       2.7280000000     8.3360000000    -3.3690000000
   95      H       1.5640000000     7.1690000000    -2.7500000000
   96      C       3.5960000000     6.4770000000    -2.7230000000
   97      C       4.9280000000     6.7500000000    -3.0510000000
   98      H       5.1540000000     7.5960000000    -3.6970000000
   99      C       5.9680000000     5.9560000000    -2.5890000000
  100      H       6.9980000000     6.1610000000    -2.8610000000
  101      C       5.6930000000     4.8540000000    -1.7750000000
  102      O       6.7320000000     4.0830000000    -1.3820000000
  103      H       6.3950000000     3.3120000000    -0.8850000000
  104      C       4.3720000000     4.5910000000    -1.4030000000
  105      H       4.1640000000     3.7570000000    -0.7430000000
  106      C       3.3430000000     5.3920000000    -1.8860000000
  107      H       2.3160000000     5.1550000000    -1.6120000000
  108      H       1.3840000000     7.3610000000    -5.2460000000
  109      H      -1.6480000000     5.9580000000    -5.5950000000
  110      C      -2.4490000000     5.3520000000    -5.1610000000
  111      H      -2.1380000000     4.3060000000    -5.1320000000
  112      H      -3.3350000000     5.4220000000    -5.7980000000
  113      C      -2.8360000000     5.7770000000    -3.7420000000
  114      O      -3.5070000000     5.0510000000    -3.0200000000
  115      N      -2.4240000000     7.0210000000    -3.3580000000
  116      H      -1.8400000000     7.5440000000    -3.9920000000
  117      C      -2.7340000000     7.6350000000    -2.0690000000
  118      H      -3.4370000000     6.9640000000    -1.5700000000
  119      C      -1.4940000000     7.8800000000    -1.2090000000
  120      H      -0.8270000000     8.5800000000    -1.7340000000
  121      H      -1.8200000000     8.3980000000    -0.2950000000
  122      C      -0.6950000000     6.6310000000    -0.8140000000
  123      H      -0.3340000000     6.1520000000    -1.7360000000
  124      C       0.5200000000     7.0420000000     0.0220000000
  125      H       1.1390000000     6.1770000000     0.2810000000
  126      H       1.1590000000     7.7570000000    -0.5090000000
  127      H       0.1970000000     7.5120000000     0.9600000000
  128      C      -1.5540000000     5.6130000000    -0.0600000000
  129      H      -2.0320000000     6.0780000000     0.8120000000
  130      H      -2.3330000000     5.1850000000    -0.6990000000
  131      H      -0.9360000000     4.7860000000     0.3080000000
  132      H      -3.2540000000     8.5840000000    -2.2470000000
  133      H      -7.0870000000     6.6940000000     1.7130000000
  134      C      -6.4330000000     5.9520000000     2.1850000000
  135      H      -7.0440000000     5.0880000000     2.4600000000
  136      C      -5.2880000000     5.5370000000     1.2500000000
  137      H      -4.6460000000     6.4170000000     1.0950000000
  138      C      -4.4390000000     4.4370000000     1.8910000000
  139      H      -4.0340000000     4.7540000000     2.8600000000
  140      H      -5.0470000000     3.5380000000     2.0610000000
  141      H      -3.5990000000     4.1490000000     1.2500000000
  142      C      -5.8010000000     5.0920000000    -0.1240000000
  143      H      -6.3270000000     4.1310000000    -0.0440000000
  144      H      -6.5030000000     5.8210000000    -0.5440000000
  145      H      -4.9810000000     4.9710000000    -0.8410000000
  146      H      -6.0400000000     6.3860000000     3.1120000000
  147      H       0.3480000000    -4.5010000000     7.7950000000
  148      C      -0.6750000000    -4.4040000000     7.4180000000
  149      H      -1.3570000000    -4.6820000000     8.2270000000
  150      C      -0.9680000000    -2.9780000000     6.9450000000
  151      H      -2.0280000000    -2.9090000000     6.6670000000
  152      H      -0.8400000000    -2.2880000000     7.7910000000
  153      C      -0.1410000000    -2.4770000000     5.7750000000
  154      C      -0.4790000000    -1.2600000000     5.1710000000
  155      H      -1.3240000000    -0.6930000000     5.5600000000
  156      C       0.2260000000    -0.7770000000     4.0740000000
  157      H      -0.0730000000     0.1610000000     3.6120000000
  158      C       1.2940000000    -1.5070000000     3.5540000000
  159      H       1.8370000000    -1.1650000000     2.6780000000
  160      C       1.6510000000    -2.7100000000     4.1530000000
  161      H       2.4650000000    -3.2890000000     3.7290000000
  162      C       0.9420000000    -3.1860000000     5.2550000000
  163      H       1.2280000000    -4.1380000000     5.6900000000
  164      H      -0.8050000000    -5.1240000000     6.6020000000
  165      H      -4.5410000000    -0.5540000000     4.9070000000
  166      C      -5.0800000000    -0.2950000000     3.9860000000
  167      H      -5.7020000000     0.5840000000     4.1880000000
  168      C      -4.0890000000    -0.0380000000     2.8480000000
  169      H      -4.6600000000     0.2610000000     1.9540000000
  170      C      -3.1320000000     1.1060000000     3.1890000000
  171      H      -2.5200000000     0.8460000000     4.0620000000
  172      H      -3.6740000000     2.0290000000     3.4210000000
  173      H      -2.4510000000     1.3150000000     2.3540000000
  174      C      -3.3200000000    -1.3160000000     2.5240000000
  175      H      -2.7740000000    -1.6680000000     3.4070000000
  176      H      -2.5840000000    -1.1610000000     1.7290000000
  177      H      -3.9950000000    -2.1200000000     2.2060000000
  178      H      -5.7500000000    -1.1290000000     3.7460000000
  179      H     -10.8180000000     2.4940000000     1.8380000000
  180      C     -10.2920000000     3.2490000000     1.2460000000
  181      H     -10.7230000000     4.2280000000     1.4810000000
  182      C      -8.7920000000     3.2430000000     1.5280000000
  183      H      -8.6160000000     3.4670000000     2.5880000000
  184      H      -8.3250000000     4.0530000000     0.9570000000
  185      C      -8.0630000000     1.9490000000     1.1620000000
  186      H      -8.2070000000     1.7030000000     0.1040000000
  187      H      -6.9850000000     2.0780000000     1.3230000000
  188      S      -8.6330000000     0.5570000000     2.1960000000
  189      C      -7.7110000000    -0.7930000000     1.4170000000
  190      H      -8.0050000000    -0.9180000000     0.3710000000
  191      H      -6.6320000000    -0.6240000000     1.4720000000
  192      H      -7.9460000000    -1.7080000000     1.9650000000
  193      H     -10.4900000000     3.0370000000     0.1890000000
  194      H      -8.1430000000    -4.0120000000     1.7130000000
  195      C      -7.2490000000    -4.6330000000     1.8400000000
  196      H      -7.5590000000    -5.6750000000     1.7150000000
  197      C      -6.1600000000    -4.2400000000     0.8400000000
  198      H      -5.9440000000    -3.1680000000     0.9470000000
  199      H      -6.5380000000    -4.3710000000    -0.1840000000
  200      C      -4.8410000000    -5.0180000000     0.9790000000
  201      H      -4.4600000000    -4.8590000000     2.0000000000
  202      C      -5.0310000000    -6.5230000000     0.7750000000
  203      H      -5.7180000000    -6.9600000000     1.5070000000
  204      H      -5.4280000000    -6.7270000000    -0.2290000000
  205      H      -4.0750000000    -7.0490000000     0.8660000000
  206      C      -3.8100000000    -4.4740000000    -0.0090000000
  207      H      -3.6080000000    -3.4120000000     0.1740000000
  208      H      -4.1620000000    -4.5750000000    -1.0410000000
  209      H      -2.8550000000    -5.0060000000     0.0520000000
  210      H      -6.8970000000    -4.5100000000     2.8720000000
  211      H      -1.7410000000    -6.7120000000     3.3150000000
  212      C      -1.1910000000    -6.4750000000     2.3950000000
  213      H      -1.9150000000    -6.4460000000     1.5720000000
  214      C      -0.4590000000    -5.1390000000     2.5100000000
  215      H       0.2670000000    -5.2150000000     3.3310000000
  216      C       0.3080000000    -4.8220000000     1.2280000000
  217      H       0.9020000000    -3.9070000000     1.3340000000
  218      H       0.9970000000    -5.6340000000     0.9690000000
  219      H      -0.3790000000    -4.6950000000     0.3810000000
  220      C      -1.4320000000    -4.0140000000     2.8480000000
  221      H      -0.9100000000    -3.0580000000     2.9300000000
  222      H      -1.9510000000    -4.1970000000     3.7980000000
  223      H      -2.1910000000    -3.9170000000     2.0630000000
  224      H      -0.4950000000    -7.2970000000     2.1930000000
  225      H       4.2670000000    -5.5720000000     2.5190000000
  226      C       5.2860000000    -5.4910000000     2.1290000000
  227      H       5.2580000000    -5.7200000000     1.0610000000
  228      C       5.8360000000    -4.0860000000     2.3540000000
  229      H       5.9500000000    -3.8830000000     3.4280000000
  230      H       6.8230000000    -3.9650000000     1.9000000000
  231      C       4.9180000000    -3.0180000000     1.8040000000
  232      O       3.7050000000    -3.0980000000     1.7960000000
  233      O       5.5750000000    -1.9530000000     1.3550000000
  234      H       4.9240000000    -1.3280000000     0.9450000000
  235      H       5.9160000000    -6.2340000000     2.6280000000
  236      H      10.7130000000    -2.9280000000    -2.8630000000
  237      C       9.9420000000    -3.3080000000    -2.1840000000
  238      H      10.4470000000    -3.7880000000    -1.3360000000
  239      C       9.0240000000    -2.1870000000    -1.7030000000
  240      H       9.6160000000    -1.4280000000    -1.1730000000
  241      H       8.5700000000    -1.6790000000    -2.5630000000
  242      C       7.9250000000    -2.6770000000    -0.7600000000
  243      H       8.3690000000    -3.2890000000     0.0360000000
  244      H       7.4170000000    -1.8450000000    -0.2650000000
  245      S       6.6500000000    -3.7270000000    -1.5310000000
  246      C       5.5780000000    -2.4550000000    -2.2620000000
  247      H       6.1070000000    -1.8870000000    -3.0330000000
  248      H       5.2200000000    -1.7720000000    -1.4850000000
  249      H       4.7120000000    -2.9450000000    -2.7180000000
  250      H       9.3690000000    -4.0760000000    -2.7130000000
  251      H       3.7060000000    -5.1310000000    -2.9630000000
  252      C       3.7240000000    -5.7010000000    -2.0300000000
  253      H       4.7490000000    -6.0340000000    -1.8300000000
  254      C       3.1890000000    -4.8450000000    -0.8900000000
  255      H       3.0860000000    -5.4100000000     0.0430000000
  256      H       2.2140000000    -4.4170000000    -1.1410000000
  257      H       3.8600000000    -4.0090000000    -0.6840000000
  258      H       3.1110000000    -6.5990000000    -2.1830000000
  259      H      -0.6700000000    -9.0870000000    -2.5690000000
  260      C      -1.6990000000    -8.8660000000    -2.2660000000
  261      H      -2.0860000000    -9.7210000000    -1.6980000000
  262      C      -1.7470000000    -7.5740000000    -1.4370000000
  263      H      -2.7790000000    -7.3980000000    -1.1040000000
  264      H      -1.1520000000    -7.7080000000    -0.5250000000
  265      C      -1.2520000000    -6.3700000000    -2.1830000000
  266      C       0.0360000000    -5.8950000000    -2.2140000000
  267      H       0.9050000000    -6.2650000000    -1.6880000000
  268      N       0.1410000000    -4.8040000000    -3.0310000000
  269      H       1.0020000000    -4.2500000000    -3.2180000000
  270      C      -1.0970000000    -4.5370000000    -3.5540000000
  271      C      -1.5030000000    -3.5020000000    -4.4060000000
  272      H      -0.7850000000    -2.7560000000    -4.7400000000
  273      C      -2.8410000000    -3.4610000000    -4.7590000000
  274      H      -3.1930000000    -2.6690000000    -5.4150000000
  275      C      -3.7590000000    -4.4210000000    -4.2830000000
  276      H      -4.8020000000    -4.3540000000    -4.5830000000
  277      C      -3.3520000000    -5.4400000000    -3.4400000000
  278      H      -4.0660000000    -6.1750000000    -3.0740000000
  279      C      -2.0030000000    -5.5080000000    -3.0520000000
  280      H      -2.2960000000    -8.7600000000    -3.1790000000
 ----------------------------------------------------------------
 Nuclear Repulsion Energy =       27171.00885069 hartrees
 There are      433 alpha and      433 beta electrons
 Requested basis set is 6-31G(d)
 There are 780 shells and 1985 basis functions

 Total QAlloc Memory Limit  12000 MB
 Mega-Array Size      3911 MB
 MEM_STATIC part      4000 MB

 A cutoff of  1.0D-14 yielded  87958 shell pairs
 There are    553077 function pairs
 Smallest overlap matrix eigenvalue = 3.46E-04

 Scale SEOQF with 1.000000e-02/1.000000e-02/1.000000e-02

 Standard Electronic Orientation quadrupole field applied
 Nucleus-field energy     =     0.0000000926 hartrees
 Guess from superposition of atomic densities
 Warning:  Energy on first SCF cycle will be non-variational
 SAD guess density has 865.000003 electrons

 -----------------------------------------------------------------------
  General SCF calculation program by
  Eric Jon Sundstrom, Paul Horn, Yuezhi Mao, Dmitri Zuev, Alec White,
  David Stuck, Shaama M.S., Shane Yost, Joonho Lee, David Small,
  Daniel Levine, Susi Lehtola, Hugh Burton, Evgeny Epifanovsky,
  Bang C. Huynh
 -----------------------------------------------------------------------
=================================================
        Doing projection-based embedding         
      F. Manby et al. JCTC, 8, 2564 (2012)       
=================================================

****************************************************
   Low-level SCF calculation for the whole system   
****************************************************
----------------------------------------------
 Summary of the low-level theory: 
 Exchange:     0.1670 Hartree-Fock + 1.0000 wB97X-V + LR-HF
 Correlation:  1.0000 wB97X-V
 Using Euler-Maclaurin-Lebedev (75,302) quadrature formula
 Nonlocal Correlation:  VV10 with C = 0.0100 and b = 6.00 and scale = 1.00000
 Grid used for NLC:  SG-1 standard quadrature
----------------------------------------------
 using 8 threads for integral computing
 -------------------------------------------------------
 OpenMP Integral computing Module                
 Release: version 1.0, May 2013, Q-Chem Inc. Pittsburgh 
 -------------------------------------------------------
 A restricted SCF calculation will be
 performed using DIIS
 SCF converges when DIIS error is below 1.0e-08
 ---------------------------------------
  Cycle       Energy         DIIS error
 ---------------------------------------
    1   -5373.3113746538      1.73e-02  
    2   -5342.0412889499      1.46e-03  
    3   -5342.3683242818      1.39e-03  
    4   -5343.0439545481      2.51e-04  
    5   -5343.0655569448      1.10e-04  
    6   -5343.0702476999      2.97e-05  
    7   -5343.0706018581      6.69e-06  
    8   -5343.0706309261      2.16e-06  
    9   -5343.0706351104      1.06e-06  
   10   -5343.0706361775      4.43e-07  
   11   -5343.0706363996      1.96e-07  
   12   -5343.0706364553      8.16e-08  
   13   -5343.0706364636      3.18e-08  
   14   -5343.0706364654      1.23e-08  
   15   -5343.0706364657      5.33e-09  Convergence criterion met
 ---------------------------------------
 SCF time:   CPU 56847.72s  wall 7258.00s 
 SCF   energy in the final basis set =    -5343.0706364657
 Total energy in the final basis set =    -5343.0706364657

****************************************************
             Start embedding calculation            
****************************************************
----------------------------------------------
 Summary of the high-level theory: 
 Exchange:     0.1670 Hartree-Fock + 1.0000 wB97X-V + LR-HF
 Correlation:  1.0000 wB97X-V
 Using Euler-Maclaurin-Lebedev (75,302) quadrature formula
 Nonlocal Correlation:  VV10 with C = 0.0100 and b = 6.00 and scale = 1.00000
 Grid used for NLC:  SG-1 standard quadrature
----------------------------------------------
Doing R-in-R Embedding Calculation
Number of fragments: 2
Embedded fragment(s): 1 
NOcc for each fragment
           75
          358
NBasis for each fragment
          352
         1633
Variational space of the embedded problem: 
NOcc (active)  = 75
NOcc (fixed)   = 358
NVir (total)   = 1552
Read converged orbitals from disk
=========================================================
       Doing SPADE partition for the orbital space       
     D. Claudino and N. Mayhall JCTC 15, 1053 (2019)     
=========================================================
SPADE singular values:
 1.0000 1.0000 1.0000 1.0000 1.0000 1.0000 1.0000 1.0000 1.0000 1.0000
 1.0000 1.0000 1.0000 1.0000 1.0000 1.0000 1.0000 1.0000 1.0000 1.0000
 1.0000 1.0000 1.0000 1.0000 1.0000 1.0000 1.0000 1.0000 1.0000 1.0000
 1.0000 1.0000 1.0000 1.0000 1.0000 1.0000 1.0000 1.0000 1.0000 1.0000
 1.0000 1.0000 1.0000 0.9999 0.9999 0.9999 0.9999 0.9999 0.9999 0.9998
 0.9998 0.9998 0.9996 0.9995 0.9994 0.9994 0.9993 0.9992 0.9992 0.9990
 0.9989 0.9986 0.9984 0.9983 0.9983 0.9981 0.9980 0.9977 0.9975 0.9973
 0.9970 0.9963 0.9950 0.9743 0.9727 0.1695 0.0917 0.0882 0.0836 0.0803
 0.0751 0.0746 0.0744 0.0715 0.0654 0.0625 0.0616 0.0604 0.0594 0.0534
 0.0492 0.0472 0.0447 0.0425 0.0386 0.0370 0.0361 0.0328 0.0305 0.0283
 0.0253 0.0243 0.0241 0.0230 0.0218 0.0199 0.0184 0.0173 0.0160 0.0149
 0.0137 0.0127 0.0121 0.0119 0.0108 0.0105 0.0100 0.0095 0.0090 0.0083
 0.0079 0.0070 0.0068 0.0064 0.0058 0.0054 0.0052 0.0047 0.0045 0.0044
 0.0040 0.0039 0.0036 0.0036 0.0033 0.0031 0.0030 0.0029 0.0028 0.0026
 0.0025 0.0024 0.0023 0.0022 0.0021 0.0020 0.0019 0.0019 0.0018 0.0017
 0.0016 0.0015 0.0014 0.0014 0.0013 0.0013 0.0012 0.0012 0.0011 0.0011
 0.0011 0.0010 0.0010 0.0010 0.0010 0.0009 0.0009 0.0008 0.0008 0.0008
 0.0008 0.0007 0.0007 0.0007 0.0007 0.0007 0.0007 0.0007 0.0006 0.0006
 0.0006 0.0006 0.0006 0.0006 0.0005 0.0005 0.0005 0.0005 0.0005 0.0005
 0.0005 0.0004 0.0004 0.0004 0.0004 0.0004 0.0004 0.0004 0.0004 0.0004
 0.0003 0.0003 0.0003 0.0003 0.0003 0.0003 0.0003 0.0003 0.0003 0.0003
 0.0003 0.0003 0.0002 0.0002 0.0002 0.0002 0.0002 0.0002 0.0002 0.0002
 0.0002 0.0002 0.0002 0.0002 0.0002 0.0002 0.0002 0.0002 0.0001 0.0001
 0.0001 0.0001 0.0001 0.0001 0.0001 0.0001 0.0001 0.0001 0.0001 0.0001
 0.0001 0.0001 0.0001 0.0001 0.0001 0.0001 0.0001 0.0001 0.0001 0.0001
 0.0001 0.0001 0.0001 0.0001 0.0001 0.0001 0.0001 0.0001 0.0001 0.0001
 0.0001 0.0001 0.0001 0.0001 0.0000 0.0000 0.0000 0.0000 0.0000 0.0000
 0.0000 0.0000 0.0000 0.0000 0.0000 0.0000 0.0000 0.0000 0.0000 0.0000
 0.0000 0.0000 0.0000 0.0000 0.0000 0.0000 0.0000 0.0000 0.0000 0.0000
 0.0000 0.0000 0.0000 0.0000 0.0000 0.0000 0.0000 0.0000 0.0000 0.0000
 0.0000 0.0000 0.0000 0.0000 0.0000 0.0000 0.0000 0.0000 0.0000 0.0000
 0.0000 0.0000 0.0000 0.0000 0.0000 0.0000 0.0000 0.0000 0.0000 0.0000
 0.0000 0.0000 0.0000 0.0000 0.0000 0.0000 0.0000 0.0000 0.0000 0.0000
 0.0000 0.0000 0.0000 0.0000 0.0000 0.0000 0.0000 0.0000 0.0000 0.0000
 0.0000 0.0000 0.0000 0.0000 0.0000 0.0000 0.0000 0.0000 0.0000 0.0000
 0.0000 0.0000
Early stop requested; no embedded SCF will be performed

 358 environment occs will be part of frozen-core in future post-HF calculations
 
 --------------------------------------------------------------
 
                    Orbital Energies (a.u.)
 --------------------------------------------------------------
 
 Alpha MOs
 -- Occupied --
-88.8068 -88.7818 -19.1954 -19.1903 -19.1797 -19.1548 -19.1437 -19.0521
-19.0493 -14.4130 -14.3436 -10.3471 -10.3381 -10.2818 -10.2774 -10.2766
-10.2500 -10.2455 -10.2454 -10.2446 -10.2417 -10.2411 -10.2369 -10.2332
-10.2332 -10.2294 -10.2291 -10.2288 -10.2279 -10.2274 -10.2258 -10.2258
-10.2254 -10.2248 -10.2243 -10.2236 -10.2234 -10.2234 -10.2231 -10.2222
-10.2207 -10.2206 -10.2201 -10.2195 -10.2190 -10.2179 -10.2177 -10.2176
-10.2174 -10.2170 -10.2165 -10.2161 -10.2160 -10.2151 -10.2148 -10.2144
-10.2124 -10.2114 -10.2111 -10.2110 -10.2110 -10.2102 -10.2096 -10.2093
-10.2075 -10.2074 -10.2057 -10.2036 -10.2035 -10.2021 -10.2003 -10.1988
-10.1973 -10.1971 -10.1906 -10.1901 -10.1874 -10.1848 -10.1833 -10.1821
-10.1796 -10.1764 -10.1763 -10.1737 -10.1709 -10.1685 -10.1625 -10.1610
-10.1605  -7.9734  -7.9475  -5.9314  -5.9272  -5.9198  -5.9055  -5.9012
 -5.8942  -1.1550  -1.1238  -1.1207  -1.1099  -1.0589  -1.0293  -1.0112
 -1.0003  -0.9352  -0.9295  -0.9287  -0.9257  -0.9036  -0.8934  -0.8874
 -0.8808  -0.8776  -0.8766  -0.8727  -0.8697  -0.8606  -0.8594  -0.8583
 -0.8532  -0.8445  -0.8444  -0.8396  -0.8390  -0.8167  -0.8157  -0.8109
 -0.8063  -0.8047  -0.7991  -0.7894  -0.7868  -0.7865  -0.7859  -0.7830
 -0.7795  -0.7662  -0.7652  -0.7625  -0.7598  -0.7596  -0.7576  -0.7518
 -0.7513  -0.7468  -0.7400  -0.7398  -0.7385  -0.7288  -0.7213  -0.7209
 -0.7202  -0.7028  -0.7025  -0.7004  -0.6921  -0.6845  -0.6808  -0.6758
 -0.6705  -0.6671  -0.6619  -0.6544  -0.6478  -0.6425  -0.6407  -0.6388
 -0.6386  -0.6360  -0.6336  -0.6319  -0.6284  -0.6252  -0.6250  -0.6201
 -0.6083  -0.6080  -0.6060  -0.5958  -0.5954  -0.5896  -0.5718  -0.5692
 -0.5625  -0.5491  -0.5456  -0.5438  -0.5388  -0.5365  -0.5351  -0.5310
 -0.5301  -0.5250  -0.5248  -0.5221  -0.5205  -0.5200  -0.5187  -0.5159
 -0.5142  -0.5105  -0.5096  -0.5063  -0.5019  -0.5005  -0.4992  -0.4970
 -0.4953  -0.4949  -0.4938  -0.4933  -0.4931  -0.4926  -0.4909  -0.4900
 -0.4878  -0.4870  -0.4867  -0.4861  -0.4851  -0.4845  -0.4830  -0.4819
 -0.4797  -0.4740  -0.4724  -0.4719  -0.4705  -0.4693  -0.4687  -0.4664
 -0.4653  -0.4648  -0.4601  -0.4599  -0.4588  -0.4576  -0.4563  -0.4560
 -0.4547  -0.4544  -0.4536  -0.4526  -0.4522  -0.4500  -0.4491  -0.4483
 -0.4470  -0.4457  -0.4442  -0.4402  -0.4399  -0.4384  -0.4371  -0.4356
 -0.4347  -0.4342  -0.4329  -0.4315  -0.4310  -0.4293  -0.4289  -0.4281
 -0.4266  -0.4256  -0.4247  -0.4239  -0.4237  -0.4226  -0.4204  -0.4188
 -0.4184  -0.4175  -0.4172  -0.4168  -0.4111  -0.4083  -0.4058  -0.4052
 -0.4047  -0.4030  -0.4014  -0.3991  -0.3959  -0.3954  -0.3944  -0.3933
 -0.3910  -0.3906  -0.3906  -0.3900  -0.3885  -0.3865  -0.3847  -0.3838
 -0.3823  -0.3819  -0.3815  -0.3811  -0.3797  -0.3788  -0.3784  -0.3772
 -0.3768  -0.3764  -0.3743  -0.3741  -0.3726  -0.3717  -0.3715  -0.3695
 -0.3686  -0.3676  -0.3674  -0.3673  -0.3669  -0.3665  -0.3649  -0.3644
 -0.3628  -0.3624  -0.3607  -0.3579  -0.3566  -0.3543  -0.3501  -0.3483
 -0.3471  -0.3446  -0.3429  -0.3418  -0.3406  -0.3384  -0.3381  -0.3332
 -0.3306  -0.3304  -0.3286  -0.3195  -0.3115  -0.3110  -0.3085  -0.2992
 -0.2820  -0.2813  -0.2716  -0.2694  -0.2620  -0.2576  -0.2417  -0.2358
 -0.2330  -0.2264  -0.2166  -0.2096  -0.2052  -0.1814 -10.3378 -10.2097
-12.7502 -10.2539 -10.0896  -9.8430  -9.7586  -9.7192  -9.4545  -9.8957
-14.5803 -10.0947  -9.9428  -9.7544  -9.6531  -9.9207  -9.2849  -9.2477
 -8.4495  -3.1487  -2.5345  -1.4789  -1.2326  -1.0757  -3.2612 -11.5453
 -1.9696  -2.0486  -2.0343  -0.8851  -1.0222  -1.1432  -1.2474  -0.7118
 -0.8449  -1.0774  -0.9764  -0.8934  -0.6132  -0.8094  -1.0969  -0.6313
 -0.4642  -0.6001  -0.5653  -0.5798  -0.5000  -0.4911  -0.4437  -0.5630
 -1.6606  -0.6447  -0.4529  -0.4767  -0.4627  -0.4593  -0.4692  -0.4490
 -0.4791  -0.4316  -0.4773  -0.4276  -0.3973  -0.3997  -0.4490  -0.4522
 -0.4467  -0.4099  -0.4172  -0.4127  -0.4191  -0.3533  -0.3795  -0.5397
 -0.4719
 -- Virtual --
  0.0871   0.1427   0.1451   0.1482   0.1536   0.1568   0.1598   0.1637
  0.1682   0.1697   0.1717   0.1747   0.1830   0.1853   0.1950   0.2018
  0.2071   0.2083   0.2101   0.2117   0.2180   0.2207   0.2224   0.2258
  0.2270   0.2287   0.2334   0.2339   0.2350   0.2365   0.2385   0.2409
  0.2422   0.2447   0.2456   0.2479   0.2489   0.2500   0.2506   0.2541
  0.2555   0.2572   0.2595   0.2608   0.2622   0.2626   0.2636   0.2654
  0.2661   0.2677   0.2684   0.2697   0.2710   0.2724   0.2742   0.2749
  0.2770   0.2777   0.2784   0.2796   0.2813   0.2818   0.2845   0.2854
  0.2863   0.2870   0.2883   0.2890   0.2904   0.2919   0.2921   0.2937
  0.2946   0.2952   0.2970   0.2977   0.2984   0.2996   0.3008   0.3023
  0.3028   0.3040   0.3045   0.3053   0.3068   0.3071   0.3083   0.3089
  0.3099   0.3102   0.3119   0.3132   0.3137   0.3140   0.3153   0.3157
  0.3164   0.3183   0.3193   0.3206   0.3211   0.3214   0.3226   0.3240
  0.3246   0.3256   0.3271   0.3285   0.3285   0.3304   0.3311   0.3316
  0.3324   0.3330   0.3342   0.3346   0.3347   0.3358   0.3363   0.3373
  0.3389   0.3393   0.3397   0.3408   0.3418   0.3429   0.3445   0.3447
  0.3449   0.3469   0.3475   0.3481   0.3486   0.3494   0.3501   0.3521
  0.3524   0.3542   0.3546   0.3562   0.3570   0.3583   0.3594   0.3602
  0.3607   0.3617   0.3621   0.3630   0.3650   0.3655   0.3659   0.3670
  0.3680   0.3689   0.3702   0.3714   0.3718   0.3731   0.3741   0.3748
  0.3768   0.3773   0.3784   0.3803   0.3814   0.3824   0.3838   0.3851
  0.3857   0.3862   0.3876   0.3885   0.3897   0.3898   0.3910   0.3915
  0.3924   0.3931   0.3943   0.3951   0.3953   0.3963   0.3975   0.3980
  0.3999   0.4008   0.4017   0.4033   0.4044   0.4066   0.4072   0.4079
  0.4085   0.4100   0.4116   0.4120   0.4138   0.4144   0.4159   0.4174
  0.4194   0.4206   0.4216   0.4229   0.4235   0.4246   0.4267   0.4286
  0.4296   0.4299   0.4320   0.4334   0.4346   0.4355   0.4367   0.4382
  0.4387   0.4400   0.4422   0.4435   0.4456   0.4463   0.4478   0.4490
  0.4498   0.4521   0.4550   0.4560   0.4569   0.4581   0.4596   0.4610
  0.4634   0.4647   0.4672   0.4688   0.4705   0.4713   0.4720   0.4745
  0.4752   0.4793   0.4808   0.4825   0.4830   0.4860   0.4872   0.4881
  0.4895   0.4914   0.4943   0.4954   0.4984   0.5012   0.5029   0.5035
  0.5062   0.5076   0.5085   0.5152   0.5163   0.5199   0.5247   0.5279
  0.5292   0.5320   0.5354   0.5372   0.5389   0.5425   0.5441   0.5496
  0.5532   0.5563   0.5600   0.5611   0.5625   0.5707   0.5759   0.5801
  0.5837   0.5901   0.5964   0.5977   0.6065   0.6113   0.6150   0.6225
  0.6262   0.6276   0.6376   0.6434   0.6455   0.6476   0.6489   0.6530
  0.6536   0.6554   0.6571   0.6579   0.6585   0.6617   0.6633   0.6643
  0.6678   0.6684   0.6699   0.6708   0.6732   0.6744   0.6749   0.6762
  0.6770   0.6781   0.6795   0.6811   0.6830   0.6835   0.6860   0.6882
  0.6899   0.6910   0.6916   0.6941   0.6962   0.6969   0.6991   0.7002
  0.7011   0.7024   0.7027   0.7040   0.7063   0.7064   0.7072   0.7079
  0.7102   0.7111   0.7119   0.7130   0.7136   0.7174   0.7185   0.7210
  0.7215   0.7227   0.7245   0.7262   0.7267   0.7300   0.7313   0.7326
  0.7344   0.7357   0.7385   0.7394   0.7428   0.7438   0.7445   0.7470
  0.7475   0.7483   0.7496   0.7508   0.7516   0.7529   0.7545   0.7557
  0.7561   0.7583   0.7595   0.7621   0.7625   0.7639   0.7649   0.7666
  0.7667   0.7670   0.7694   0.7704   0.7725   0.7737   0.7747   0.7756
  0.7764   0.7778   0.7784   0.7809   0.7812   0.7835   0.7849   0.7859
  0.7883   0.7895   0.7905   0.7930   0.7934   0.7953   0.7961   0.7976
  0.7993   0.8008   0.8018   0.8030   0.8041   0.8058   0.8065   0.8072
  0.8095   0.8117   0.8134   0.8141   0.8153   0.8164   0.8189   0.8205
  0.8224   0.8237   0.8255   0.8276   0.8287   0.8309   0.8320   0.8334
  0.8342   0.8344   0.8352   0.8380   0.8392   0.8409   0.8415   0.8431
  0.8458   0.8473   0.8481   0.8498   0.8513   0.8523   0.8545   0.8550
  0.8557   0.8561   0.8577   0.8590   0.8603   0.8617   0.8621   0.8630
  0.8645   0.8661   0.8688   0.8693   0.8708   0.8719   0.8733   0.8748
  0.8756   0.8760   0.8768   0.8795   0.8810   0.8828   0.8851   0.8875
  0.8881   0.8894   0.8910   0.8924   0.8934   0.8942   0.8959   0.8983
  0.8997   0.9023   0.9043   0.9050   0.9065   0.9068   0.9091   0.9106
  0.9125   0.9138   0.9166   0.9172   0.9203   0.9206   0.9213   0.9228
  0.9244   0.9277   0.9314   0.9318   0.9340   0.9358   0.9359   0.9373
  0.9381   0.9396   0.9408   0.9417   0.9453   0.9457   0.9489   0.9502
  0.9511   0.9527   0.9564   0.9577   0.9596   0.9608   0.9613   0.9630
  0.9648   0.9667   0.9711   0.9744   0.9749   0.9763   0.9789   0.9810
  0.9847   0.9852   0.9882   0.9894   0.9909   0.9939   0.9949   0.9958
  0.9976   0.9997   1.0023   1.0033   1.0040   1.0057   1.0068   1.0075
  1.0085   1.0098   1.0103   1.0126   1.0141   1.0162   1.0176   1.0195
  1.0197   1.0201   1.0210   1.0230   1.0242   1.0261   1.0267   1.0280
  1.0297   1.0304   1.0309   1.0327   1.0351   1.0356   1.0371   1.0382
  1.0400   1.0418   1.0422   1.0435   1.0453   1.0460   1.0470   1.0484
  1.0508   1.0513   1.0529   1.0539   1.0551   1.0555   1.0571   1.0585
  1.0593   1.0599   1.0609   1.0616   1.0636   1.0647   1.0654   1.0663
  1.0668   1.0684   1.0687   1.0694   1.0707   1.0714   1.0735   1.0738
  1.0744   1.0753   1.0761   1.0778   1.0795   1.0803   1.0809   1.0822
  1.0834   1.0841   1.0855   1.0871   1.0876   1.0880   1.0887   1.0897
  1.0920   1.0923   1.0927   1.0935   1.0953   1.0961   1.0963   1.0987
  1.1001   1.1004   1.1021   1.1041   1.1049   1.1059   1.1078   1.1081
  1.1090   1.1112   1.1124   1.1132   1.1137   1.1152   1.1160   1.1165
  1.1175   1.1195   1.1202   1.1209   1.1224   1.1226   1.1238   1.1245
  1.1256   1.1269   1.1274   1.1281   1.1295   1.1303   1.1307   1.1332
  1.1341   1.1357   1.1370   1.1385   1.1404   1.1416   1.1428   1.1435
  1.1453   1.1459   1.1465   1.1497   1.1505   1.1513   1.1527   1.1537
  1.1553   1.1574   1.1586   1.1599   1.1608   1.1617   1.1628   1.1645
  1.1669   1.1676   1.1678   1.1691   1.1708   1.1714   1.1732   1.1733
  1.1755   1.1761   1.1774   1.1800   1.1819   1.1826   1.1839   1.1857
  1.1888   1.1896   1.1911   1.1925   1.1934   1.1943   1.1959   1.1974
  1.1997   1.2016   1.2030   1.2046   1.2053   1.2083   1.2093   1.2111
  1.2132   1.2144   1.2156   1.2164   1.2180   1.2205   1.2219   1.2236
  1.2248   1.2281   1.2309   1.2329   1.2343   1.2369   1.2379   1.2394
  1.2428   1.2434   1.2464   1.2468   1.2497   1.2509   1.2548   1.2565
  1.2568   1.2588   1.2604   1.2620   1.2648   1.2675   1.2718   1.2740
  1.2771   1.2785   1.2844   1.2858   1.2895   1.2909   1.2920   1.2944
  1.2960   1.2980   1.3002   1.3014   1.3062   1.3071   1.3096   1.3115
  1.3126   1.3160   1.3173   1.3195   1.3220   1.3227   1.3245   1.3292
  1.3309   1.3341   1.3368   1.3381   1.3407   1.3426   1.3466   1.3476
  1.3481   1.3521   1.3537   1.3566   1.3582   1.3605   1.3631   1.3646
  1.3666   1.3747   1.3758   1.3776   1.3831   1.3881   1.3898   1.3916
  1.3929   1.3931   1.3952   1.3999   1.4022   1.4058   1.4081   1.4115
  1.4160   1.4189   1.4220   1.4240   1.4253   1.4284   1.4297   1.4319
  1.4327   1.4379   1.4387   1.4407   1.4436   1.4465   1.4507   1.4560
  1.4571   1.4579   1.4601   1.4635   1.4674   1.4733   1.4758   1.4779
  1.4821   1.4838   1.4858   1.4880   1.4912   1.4992   1.5046   1.5057
  1.5101   1.5137   1.5171   1.5203   1.5217   1.5263   1.5277   1.5322
  1.5339   1.5380   1.5411   1.5436   1.5459   1.5474   1.5496   1.5506
  1.5556   1.5606   1.5626   1.5672   1.5691   1.5696   1.5728   1.5741
  1.5789   1.5840   1.5845   1.5901   1.5916   1.5926   1.5960   1.5975
  1.5983   1.6002   1.6014   1.6050   1.6064   1.6079   1.6110   1.6124
  1.6146   1.6172   1.6185   1.6211   1.6222   1.6232   1.6243   1.6276
  1.6318   1.6327   1.6329   1.6334   1.6353   1.6374   1.6379   1.6389
  1.6397   1.6417   1.6428   1.6435   1.6446   1.6464   1.6490   1.6518
  1.6520   1.6525   1.6576   1.6591   1.6599   1.6606   1.6686   1.6718
  1.6741   1.6763   1.6790   1.6815   1.6828   1.6854   1.6865   1.6882
  1.6884   1.6927   1.6934   1.6995   1.7029   1.7046   1.7065   1.7099
  1.7131   1.7164   1.7180   1.7207   1.7253   1.7347   1.7385   1.7418
  1.7477   1.7528   1.7562   1.7571   1.7626   1.7735   1.7741   1.7773
  1.7831   1.7865   1.7871   1.7944   1.7968   1.7984   1.8021   1.8067
  1.8117   1.8165   1.8229   1.8237   1.8252   1.8290   1.8363   1.8389
  1.8400   1.8445   1.8550   1.8570   1.8583   1.8608   1.8630   1.8671
  1.8714   1.8758   1.8802   1.8814   1.8867   1.8875   1.8886   1.8899
  1.8913   1.8920   1.8936   1.8956   1.8974   1.9011   1.9049   1.9063
  1.9069   1.9106   1.9130   1.9134   1.9157   1.9198   1.9223   1.9244
  1.9255   1.9271   1.9306   1.9315   1.9333   1.9348   1.9371   1.9415
  1.9466   1.9479   1.9549   1.9571   1.9585   1.9592   1.9616   1.9617
  1.9633   1.9645   1.9682   1.9712   1.9791   1.9805   1.9834   1.9858
  1.9888   1.9912   1.9926   1.9948   1.9972   1.9982   1.9988   2.0011
  2.0014   2.0042   2.0053   2.0114   2.0135   2.0144   2.0158   2.0170
  2.0231   2.0233   2.0242   2.0257   2.0323   2.0337   2.0350   2.0368
  2.0420   2.0486   2.0548   2.0566   2.0622   2.0630   2.0632   2.0650
  2.0658   2.0670   2.0685   2.0706   2.0734   2.0758   2.0794   2.0814
  2.0830   2.0833   2.0918   2.0924   2.1010   2.1039   2.1049   2.1053
  2.1061   2.1095   2.1099   2.1114   2.1129   2.1135   2.1140   2.1171
  2.1181   2.1188   2.1198   2.1210   2.1230   2.1242   2.1249   2.1260
  2.1271   2.1289   2.1294   2.1302   2.1314   2.1332   2.1350   2.1384
  2.1393   2.1443   2.1456   2.1491   2.1494   2.1509   2.1541   2.1552
  2.1573   2.1585   2.1606   2.1623   2.1633   2.1645   2.1658   2.1676
  2.1694   2.1720   2.1746   2.1750   2.1762   2.1771   2.1774   2.1782
  2.1846   2.1851   2.1888   2.1911   2.1921   2.1925   2.1956   2.1958
  2.1972   2.1983   2.1995   2.2037   2.2061   2.2064   2.2109   2.2121
  2.2152   2.2163   2.2168   2.2202   2.2220   2.2255   2.2274   2.2280
  2.2294   2.2326   2.2349   2.2368   2.2377   2.2411   2.2433   2.2462
  2.2468   2.2508   2.2520   2.2538   2.2564   2.2576   2.2596   2.2635
  2.2663   2.2681   2.2686   2.2705   2.2756   2.2791   2.2828   2.2855
  2.2900   2.2919   2.2980   2.3004   2.3009   2.3022   2.3030   2.3047
  2.3062   2.3092   2.3097   2.3111   2.3128   2.3156   2.3173   2.3195
  2.3197   2.3208   2.3243   2.3276   2.3299   2.3321   2.3339   2.3359
  2.3396   2.3406   2.3414   2.3446   2.3495   2.3522   2.3558   2.3601
  2.3606   2.3657   2.3701   2.3702   2.3747   2.3758   2.3815   2.3852
  2.3869   2.3961   2.3977   2.3991   2.4019   2.4079   2.4104   2.4112
  2.4127   2.4134   2.4149   2.4164   2.4168   2.4209   2.4223   2.4228
  2.4259   2.4269   2.4282   2.4300   2.4318   2.4320   2.4329   2.4330
  2.4354   2.4365   2.4369   2.4408   2.4428   2.4440   2.4463   2.4487
  2.4518   2.4531   2.4540   2.4578   2.4592   2.4599   2.4619   2.4628
  2.4650   2.4660   2.4692   2.4699   2.4711   2.4715   2.4728   2.4778
  2.4812   2.4823   2.4827   2.4837   2.4849   2.4861   2.4868   2.4886
  2.4894   2.4932   2.4951   2.4972   2.4989   2.4998   2.5003   2.5028
  2.5038   2.5053   2.5061   2.5076   2.5097   2.5104   2.5160   2.5218
  2.5262   2.5277   2.5289   2.5303   2.5335   2.5364   2.5373   2.5377
  2.5383   2.5406   2.5415   2.5428   2.5488   2.5540   2.5547   2.5557
  2.5586   2.5605   2.5613   2.5664   2.5691   2.5735   2.5775   2.5792
  2.5833   2.5913   2.5951   2.5988   2.6001   2.6054   2.6056   2.6079
  2.6103   2.6132   2.6160   2.6196   2.6260   2.6364   2.6380   2.6500
  2.6507   2.6531   2.6545   2.6598   2.6641   2.6647   2.6748   2.6769
  2.6775   2.6825   2.6840   2.6844   2.6886   2.6894   2.6913   2.6930
  2.6953   2.6960   2.6983   2.7023   2.7073   2.7114   2.7159   2.7221
  2.7236   2.7253   2.7256   2.7282   2.7329   2.7351   2.7375   2.7432
  2.7445   2.7511   2.7533   2.7542   2.7673   2.7692   2.7698   2.7750
  2.7800   2.7838   2.7871   2.7880   2.7906   2.7960   2.8012   2.8045
  2.8073   2.8107   2.8137   2.8154   2.8172   2.8304   2.8334   2.8391
  2.8421   2.8430   2.8441   2.8459   2.8468   2.8483   2.8507   2.8514
  2.8537   2.8616   2.8625   2.8683   2.8727   2.8755   2.8766   2.8783
  2.8823   2.8831   2.8858   2.8922   2.8934   2.8970   2.9013   2.9043
  2.9157   2.9165   2.9175   2.9255   2.9289   2.9315   2.9343   2.9365
  2.9405   2.9451   2.9475   2.9485   2.9519   2.9563   2.9666   2.9693
  2.9697   2.9749   2.9800   2.9829   2.9891   2.9954   2.9958   3.0026
  3.0031   3.0278   3.0447   3.0455   3.0571   3.0740   3.0765   3.0793
  3.0807   3.0820   3.0847   3.0901   3.0933   3.0972   3.1012   3.1132
  3.1196   3.1340   3.1644   3.1673   3.1835   3.1936   3.2018   3.2164
  3.2244   3.2341   3.2400   3.2636   3.2710   3.2760   3.2931   3.2993
  3.3002   3.3208   3.3229   3.3736   3.3811   3.3939   3.4829   3.6050
  3.6120   3.6194   3.6708   4.1284   4.1358   4.1509   4.1597   4.1994
  4.2248   4.2413   4.2665   4.2998   4.3132   4.3158   4.3179   4.3217
  4.3264   4.3329   4.3388   4.3445   4.3507   4.3518   4.3563   4.3603
  4.3613   4.3643   4.3690   4.3743   4.3752   4.3781   4.3788   4.3858
  4.3868   4.3965   4.4032   4.4088   4.4110   4.4210   4.4254   4.4389
  4.4462   4.4474   4.4557   4.4646   4.4714   4.4731   4.4751   4.4856
  4.4879   4.4902   4.4989   4.5053   4.5104   4.5127   4.5153   4.5170
  4.5188   4.5229   4.5296   4.5321   4.5346   4.5359   4.5449   4.5489
  4.5557   4.5572   4.5605   4.5647   4.5670   4.5716   4.5810   4.5986
  4.6054   4.6118   4.6158   4.6214   4.6271   4.6330   4.6382   4.6431
  4.6642   4.6695   4.6702   4.6745   4.6867   4.6897   4.6943   4.6959
  4.6997   4.7071   4.7187   4.7284   4.7491   4.7533   4.7661   4.7808
  4.7920   4.8027   4.8120   4.8149   4.8231   4.8382   4.8606   4.9121
  4.9222   4.9378   4.9534   4.9560   4.9705   5.0095   5.0449   5.0567
 --------------------------------------------------------------
 
          Ground-State Mulliken Net Atomic Charges

     Atom                 Charge (a.u.)
  ----------------------------------------
      1 C                     0.481622
      2 O                    -0.603352
      3 C                    -0.268168
      4 C                     0.172477
      5 C                    -0.184885
      6 C                    -0.313280
      7 C                    -0.405721
      8 C                    -0.408430
      9 C                    -0.309698
     10 C                    -0.129916
     11 C                    -0.139376
     12 C                    -0.134825
     13 C                    -0.021218
     14 C                    -0.311475
     15 C                    -0.303794
     16 C                    -0.306778
     17 C                    -0.326944
     18 C                     0.139639
     19 C                    -0.481633
     20 O                    -0.652939
     21 H                     0.209788
     22 H                     0.193206
     23 H                     0.158073
     24 H                     0.159794
     25 H                     0.204248
     26 H                     0.184442
     27 H                     0.188365
     28 H                     0.264238
     29 H                     0.140128
     30 H                     0.195542
     31 H                     0.157339
     32 H                     0.137103
     33 H                     0.125903
     34 H                     0.140038
     35 H                     0.153727
     36 H                     0.149158
     37 H                     0.148042
     38 H                     0.168214
     39 H                     0.164995
     40 H                     0.145024
     41 H                     0.163681
     42 H                     0.111642
     43 H                     0.158483
     44 H                     0.168027
     45 H                     0.156138
     46 H                     0.407613
     47 H                     0.143457
     48 C                    -0.454534
     49 H                     0.154692
     50 C                    -0.346012
     51 H                     0.149572
     52 H                     0.152298
     53 C                     0.108382
     54 C                    -0.198525
     55 H                     0.141832
     56 C                    -0.209974
     57 H                     0.179248
     58 C                     0.343230
     59 O                    -0.743364
     60 H                     0.475044
     61 C                    -0.214391
     62 H                     0.168718
     63 C                    -0.201964
     64 H                     0.148936
     65 H                     0.159885
     66 H                     0.146448
     67 C                    -0.462843
     68 H                     0.150579
     69 C                    -0.113532
     70 H                     0.141001
     71 C                    -0.468146
     72 H                     0.149940
     73 H                     0.148251
     74 H                     0.157025
     75 C                    -0.460714
     76 H                     0.166552
     77 H                     0.145204
     78 H                     0.148109
     79 H                     0.145521
     80 H                     0.122415
     81 C                    -0.465703
     82 H                     0.168908
     83 C                    -0.344678
     84 H                     0.135483
     85 H                     0.133114
     86 C                     0.570994
     87 O                    -0.611386
     88 O                    -0.585123
     89 H                     0.146827
     90 H                     0.160263
     91 C                    -0.453171
     92 H                     0.166511
     93 C                    -0.358201
     94 H                     0.146599
     95 H                     0.153679
     96 C                     0.105699
     97 C                    -0.193803
     98 H                     0.136456
     99 C                    -0.190637
    100 H                     0.154702
    101 C                     0.331696
    102 O                    -0.687625
    103 H                     0.467069
    104 C                    -0.226525
    105 H                     0.171005
    106 C                    -0.204030
    107 H                     0.140184
    108 H                     0.128947
    109 H                     0.156474
    110 C                    -0.557860
    111 H                     0.211183
    112 H                     0.196275
    113 C                     0.579705
    114 O                    -0.498471
    115 N                    -0.616023
    116 H                     0.333460
    117 C                    -0.161679
    118 H                     0.206573
    119 C                    -0.287833
    120 H                     0.136752
    121 H                     0.147025
    122 C                    -0.118920
    123 H                     0.146100
    124 C                    -0.474569
    125 H                     0.167173
    126 H                     0.157306
    127 H                     0.150539
    128 C                    -0.498118
    129 H                     0.145345
    130 H                     0.190494
    131 H                     0.162776
    132 H                     0.157951
    133 H                     0.143686
    134 C                    -0.465182
    135 H                     0.158621
    136 C                    -0.114864
    137 H                     0.132493
    138 C                    -0.471677
    139 H                     0.146274
    140 H                     0.150802
    141 H                     0.175451
    142 C                    -0.500078
    143 H                     0.140800
    144 H                     0.146144
    145 H                     0.200140
    146 H                     0.146732
    147 H                     0.155618
    148 C                    -0.477669
    149 H                     0.151697
    150 C                    -0.338274
    151 H                     0.160599
    152 H                     0.157785
    153 C                     0.116979
    154 C                    -0.199679
    155 H                     0.138569
    156 C                    -0.156752
    157 H                     0.144645
    158 C                    -0.167728
    159 H                     0.162578
    160 C                    -0.159031
    161 H                     0.186043
    162 C                    -0.198455
    163 H                     0.143103
    164 H                     0.166308
    165 H                     0.138715
    166 C                    -0.451570
    167 H                     0.158791
    168 C                    -0.135000
    169 H                     0.141736
    170 C                    -0.469863
    171 H                     0.148802
    172 H                     0.152982
    173 H                     0.154548
    174 C                    -0.475597
    175 H                     0.163397
    176 H                     0.169308
    177 H                     0.152733
    178 H                     0.148882
    179 H                     0.174830
    180 C                    -0.464313
    181 H                     0.146921
    182 C                    -0.308953
    183 H                     0.159809
    184 H                     0.164482
    185 C                    -0.445128
    186 H                     0.202342
    187 H                     0.174921
    188 S                     0.072316
    189 C                    -0.631397
    190 H                     0.196690
    191 H                     0.194829
    192 H                     0.194365
    193 H                     0.155622
    194 H                     0.148297
    195 C                    -0.473127
    196 H                     0.152696
    197 C                    -0.278193
    198 H                     0.142462
    199 H                     0.141198
    200 C                    -0.112475
    201 H                     0.134070
    202 C                    -0.472928
    203 H                     0.142863
    204 H                     0.144107
    205 H                     0.166638
    206 C                    -0.491219
    207 H                     0.153345
    208 H                     0.171492
    209 H                     0.177760
    210 H                     0.147481
    211 H                     0.132290
    212 C                    -0.467314
    213 H                     0.160498
    214 C                    -0.107443
    215 H                     0.127378
    216 C                    -0.474569
    217 H                     0.168137
    218 H                     0.143079
    219 H                     0.166656
    220 C                    -0.465669
    221 H                     0.169985
    222 H                     0.123699
    223 H                     0.157401
    224 H                     0.142798
    225 H                     0.172718
    226 C                    -0.475443
    227 H                     0.195769
    228 C                    -0.377042
    229 H                     0.172219
    230 H                     0.182577
    231 C                     0.599877
    232 O                    -0.472170
    233 O                    -0.613010
    234 H                     0.471480
    235 H                     0.142296
    236 H                     0.143558
    237 C                    -0.468460
    238 H                     0.137904
    239 C                    -0.273257
    240 H                     0.144386
    241 H                     0.155268
    242 C                    -0.452146
    243 H                     0.162737
    244 H                     0.199795
    245 S                     0.065722
    246 C                    -0.642806
    247 H                     0.172879
    248 H                     0.172153
    249 H                     0.251532
    250 H                     0.181514
    251 H                     0.203735
    252 C                    -0.496440
    253 H                     0.145199
    254 C                    -0.467635
    255 H                     0.134466
    256 H                     0.166381
    257 H                     0.160953
    258 H                     0.127211
    259 H                     0.151814
    260 C                    -0.449338
    261 H                     0.130424
    262 C                    -0.343101
    263 H                     0.143807
    264 H                     0.147341
    265 C                     0.002914
    266 C                     0.003916
    267 H                     0.166664
    268 N                    -0.727664
    269 H                     0.431267
    270 C                     0.248869
    271 C                    -0.194736
    272 H                     0.213937
    273 C                    -0.194444
    274 H                     0.128942
    275 C                    -0.172648
    276 H                     0.121247
    277 C                    -0.218116
    278 H                     0.125260
    279 C                     0.028641
    280 H                     0.153311
  ----------------------------------------
  Sum of atomic charges =    -1.000000

 -----------------------------------------------------------------
                    Cartesian Multipole Moments
 -----------------------------------------------------------------
    Charge (ESU x 10^10)
                -4.8032
    Dipole Moment (Debye)
         X      -4.2863      Y      14.4825      Z       8.7917
       Tot      17.4760
    Quadrupole Moments (Debye-Ang)
        XX    -852.5687     XY      -8.8473     YY    -762.4805
        XZ      27.4168     YZ     -65.2577     ZZ    -767.4096
    Octopole Moments (Debye-Ang^2)
       XXX     171.3064    XXY     -50.0833    XYY    -188.9361
       YYY     594.3960    XXZ      28.2096    XYZ     -31.1329
       YYZ      22.2380    XZZ      -6.0556    YZZ     265.9556
       ZZZ      83.1661
    Hexadecapole Moments (Debye-Ang^3)
      XXXX -100112.8280   XXXY     -52.5912   XXYY  -29093.1791
      XYYY   -1307.0600   YYYY  -77031.5251   XXXZ    1741.0162
      XXYZ    -470.1154   XYYZ     525.7182   YYYZ   -2761.1368
      XXZZ  -22561.2588   XYZZ    -113.9272   YYZZ  -19403.3665
      XZZZ     637.5222   YZZZ   -1793.6095   ZZZZ  -39767.4897
 -----------------------------------------------------------------
 Total job time:  7394.57s(wall), 57587.31s(cpu) 
 Tue Aug  6 15:02:23 2024

        *************************************************************
        *                                                           *
        *  Thank you very much for using Q-Chem.  Have a nice day.  *
        *                                                           *
        *************************************************************



Running Job 2 of 2 19nt_mm_min_distance_cutoff4_nowat_optimized_spade_wb97x-v_631gd.in
qchem 19nt_mm_min_distance_cutoff4_nowat_optimized_spade_wb97x-v_631gd.in_2102154.1 ./qchem2102154/ 1
srun -n 1 /cm/shared/apps/spack/0.17.3/cpu/b/opt/spack/linux-rocky8-zen2/gcc-10.2.0/qchem-6.0-rytxnwjazd34ekd2gqyi5ufsaimxsd3r/exe/qcprog.exe 19nt_mm_min_distance_cutoff4_nowat_optimized_spade_wb97x-v_631gd.in_2102154.1 ./qchem2102154/

                  Welcome to Q-Chem
     A Quantum Leap Into The Future Of Chemistry


 Q-Chem 6.0, Q-Chem, Inc., Pleasanton, CA (2022)

 License issued to: University of California, San Diego (site)

 E. Epifanovsky,  A. T. B. Gilbert,  Xintian Feng,  Joonho Lee,  Yuezhi Mao,  
 N. Mardirossian,  P. Pokhilko,  A. White,  M. Wormit,  M. P. Coons,  
 A. L. Dempwolff,  Zhengting Gan,  D. Hait,  P. R. Horn,  L. D. Jacobson,  
 I. Kaliman,  J. Kussmann,  A. W. Lange,  Ka Un Lao,  D. S. Levine,  Jie Liu,  
 S. C. McKenzie,  A. F. Morrison,  K. Nanda,  F. Plasser,  D. R. Rehn,  
 M. L. Vidal,  Zhi-Qiang You,  Ying Zhu,  B. Alam,  B. Albrecht,  
 A. Aldossary,  E. Alguire,  J. H. Andersen,  V. Athavale,  D. Barton,  
 K. Begam,  A. Behn,  N. Bellonzi,  Y. A. Bernard,  E. J. Berquist,  
 H. Burton,  A. Carreras,  K. Carter-Fenk,  Romit Chakraborty,  
 Chandrima Chakravarty,  Junhan Chen,  A. D. Chien,  K. D. Closser,  
 V. Cofer-Shabica,  L. Cunha,  S. Dasgupta,  Jia Deng,  M. de Wergifosse,  
 M. Diedenhofen,  Hainam Do,  S. Ehlert,  Po-Tung Fang,  S. Fatehi,  
 Qingguo Feng,  T. Friedhoff,  B. Ganoe,  J. Gayvert,  Qinghui Ge,  
 G. Gidofalvi,  M. Goldey,  J. Gomes,  C. Gonzalez-Espinoza,  S. Gulania,  
 A. Gunina,  J. A. Gyamfi,  M. W. D. Hanson-Heine,  P. H. P. Harbach,  
 A. W. Hauser,  M. F. Herbst,  M. Hernandez Vera,  M. Hodecker,  
 Z. C. Holden,  S. Houck,  Xunkun Huang,  Kerwin Hui,  B. C. Huynh,  
 K. Ikeda,  M. Ivanov,  Hyunjun Ji,  Zuxin Jin,  Hanjie Jiang,  B. Kaduk,  
 S. Kaehler,  R. Kang,  K. Khistyaev,  Jaehoon Kim,  Yongbin Kim,  
 P. Klunzinger,  Z. Koczor-Benda,  Joong Hoon Koh,  D. Kosenkov,  
 Saikiran Kotaru,  L. Koulias,  T. Kowalczyk,  C. M. Krauter,  K. Kue,  
 A. Kunitsa,  T. Kus,  A. Landau,  K. V. Lawler,  D. Lefrancois,  S. Lehtola,  
 Rain Li,  Shaozhi Li,  Yi-Pei Li,  Jiashu Liang,  M. Liebenthal,  
 Hung-Hsuan Lin,  You-Sheng Lin,  Fenglai Liu,  Kuan-Yu Liu,  
 M. Loipersberger,  A. Luenser,  C. Malbon,  A. Manjanath,  P. Manohar,  
 E. Mansoor,  S. F. Manzer,  Shan-Ping Mao,  A. V. Marenich,  T. Markovich,  
 S. Mason,  F. Matz,  S. A. Maurer,  P. F. McLaughlin,  M. F. S. J. Menger,  
 J.-M. Mewes,  S. A. Mewes,  P. Morgante,  Mohammad Mostafanejad,  
 J. W. Mullinax,  K. J. Oosterbaan,  G. Paran,  V. Parravicini,  
 Alexander C. Paul,  Suranjan K. Paul,  F. Pavosevic,  Zheng Pei,  S. Prager,  
 E. I. Proynov,  E. Ramos,  B. Rana,  A. E. Rask,  A. Rettig,  R. M. Richard,  
 F. Rob,  E. Rossomme,  T. Scheele,  M. Scheurer,  M. Schneider,  
 P. E. Schneider,  N. Sergueev,  S. M. Sharada,  Hengyuan Shen,  
 W. Skomorowski,  D. W. Small,  C. J. Stein,  Yingli Su,  Yu-Chuan Su,  
 E. J. Sundstrom,  Zhen Tao,  J. Thirman,  Hung-Yi Tsai,  T. Tsuchimochi,  
 N. M. Tubman,  C. Utku,  S. P. Veccham,  O. Vydrov,  J. Wenzel,  
 Jonathan Wong,  J. Witte,  A. Yamada,  Chou-Hsun Yang,  Kun Yao,  
 S. Yeganeh,  S. R. Yost,  A. Zech,  F. Zeller,  Igor Ying Zhang,  
 Xing Zhang,  Yu Zhang,  D. Zuev,  A. Aspuru-Guzik,  A. T. Bell,  
 N. A. Besley,  K. B. Bravaya,  B. R. Brooks,  D. Casanova,  Jeng-Da Chai,  
 Hsing-Ta Chen,  S. Coriani,  C. J. Cramer,  A. E. DePrince, III,  
 R. A. DiStasio Jr.,  A. Dreuw,  B. D. Dunietz,  T. R. Furlani,  
 W. A. Goddard III,  S. Grimme,  S. Hammes-Schiffer,  T. Head-Gordon,  
 W. J. Hehre,  Chao-Ping Hsu,  T.-C. Jagau,  Yousung Jung,  A. Klamt,  
 Jing Kong,  D. S. Lambrecht,  Xiangyuan Li,  WanZhen Liang,  N. J. Mayhall,  
 C. W. McCurdy,  J. B. Neaton,  T. Neudecker,  C. Ochsenfeld,  
 J. A. Parkhill,  R. Peverati,  V. A. Rassolov,  Haisheng Ren,  Yihan Shao,  
 L. V. Slipchenko,  R. P. Steele,  J. E. Subotnik,  A. J. W. Thom,  
 A. Tkatchenko,  D. G. Truhlar,  T. Van Voorhis,  Fan Wang,  
 T. A. Wesolowski,  K. B. Whaley,  H. L. Woodcock III,  P. M. Zimmerman,  
 S. Faraji,  P. M. W. Gill,  M. Head-Gordon,  J. M. Herbert,  A. I. Krylov

 Contributors to earlier versions of Q-Chem not listed above: 
 R. D. Adamson,  B. Austin,  R. Baer,  J. Baker,  G. J. O. Beran,  
 K. Brandhorst,  S. T. Brown,  E. F. C. Byrd,  Arup K. Chakraborty,  
 G. K. L. Chan,  Chun-Min Chang,  Yunqing Chen,  C.-L. Cheng,  
 Siu Hung Chien,  D. M. Chipman,  D. L. Crittenden,  H. Dachsel,  
 R. J. Doerksen,  A. D. Dutoi,  R. G. Edgar,  J. Fosso-Tande,  
 L. Fusti-Molnar,  D. Ghosh,  A. Ghysels,  A. Golubeva-Zadorozhnaya,  
 J. Gonthier,  M. S. Gordon,  S. R. Gwaltney,  G. Hawkins,  J. E. Herr,  
 A. Heyden,  S. Hirata,  E. G. Hohenstein,  G. Kedziora,  F. J. Keil,  
 C. Kelley,  Jihan Kim,  R. A. King,  R. Z. Khaliullin,  P. P. Korambath,  
 W. Kurlancheek,  A. Laurent,  A. M. Lee,  M. S. Lee,  S. V. Levchenko,  
 Ching Yeh Lin,  D. Liotard,  E. Livshits,  R. C. Lochan,  I. Lotan,  
 L. A. Martinez-Martinez,  P. E. Maslen,  N. Nair,  D. P. O'Neill,  
 D. Neuhauser,  E. Neuscamman,  C. M. Oana,  R. Olivares-Amaya,  R. Olson,  
 T. M. Perrine,  B. Peters,  P. A. Pieniazek,  A. Prociuk,  Y. M. Rhee,  
 J. Ritchie,  M. A. Rohrdanz,  E. Rosta,  N. J. Russ,  H. F. Schaefer III,  
 M. W. Schmidt,  N. E. Schultz,  S. Sharma,  N. Shenvi,  C. D. Sherrill,  
 A. C. Simmonett,  A. Sodt,  T. Stein,  D. Stuck,  K. S. Thanthiriwatte,  
 V. Vanovschi,  L. Vogt,  Tao Wang,  A. Warshel,  M. A. Watson,  
 C. F. Williams,  Q. Wu,  X. Xu,  Jun Yang,  W. Zhang,  Yan Zhao

   Please cite Q-Chem as follows:
  "Software for the frontiers of quantum chemistry:
   An overview of developments in the Q-Chem 5 package"
   J. Chem. Phys. 155, 084801 (2021)
   https://doi.org/10.1063/5.0055522 (open access)

 Q-Chem 6.0.2 for Intel X86 EM64T Linux

 Parts of Q-Chem use Armadillo 9.900.5 (Nocturnal Misbehaviour).
 http://arma.sourceforge.net/

 Q-Chem begins on Tue Aug  6 15:04:56 2024  

 Host: 
0

     Scratch files written to ./qchem2102154//
[...]
          181         182         183         184         185         186
    1  -2.3803923  -1.2824380  -1.0765200  -0.8025395  -0.7254038  -1.3200765
    2   2.2044349   1.2713364   1.3709582   2.1721546   0.5611846  -0.0996768
    3   0.4096873   0.2854313   2.4948814  -0.9854204  -0.7846032  -2.7570556
          187         188         189         190         191         192
    1   0.8504137  -1.9053824  -1.0270201  -1.7773330   0.4621889  -1.8642142
    2   0.6489703  -0.2302471  -1.0662418  -0.7991315  -0.1916867  -2.0519923
    3  -0.0452064   0.9262089  -0.4708106  -2.3609045  -0.2668060   1.0053619
          193         194         195         196         197         198
    1  -2.1864814  -3.1689182  -2.1389420  -2.3487233  -1.7783000  -1.1776910
    2   0.2185456   0.0455168  -0.9531456  -2.5973022  -0.2110403   1.3499766
    3  -2.0946896   0.2049732   0.8189707   0.3470351  -0.3324096  -0.0674796
          199         200         201         202         203         204
    1  -2.4197545  -1.0431524  -0.4804703  -1.3223260  -2.1979439  -2.0620843
    2  -0.6199942  -0.9137571  -0.7558178  -2.2550429  -2.5452330  -2.1228033
    3  -2.2311772   0.6022393   2.5257645   0.1977213   1.5189854  -1.7087023
          205         206         207         208         209         210
    1   0.2119483  -0.6264662  -0.4764717  -1.7309823   0.5353272  -1.1667410
    2  -2.8123572  -0.2154414   1.5309139  -0.4013633  -1.3132136  -0.7151655
    3   0.5606207  -0.5652503  -0.2617372  -2.0385719  -0.0232847   2.5941072
          211         212         213         214         215         216
    1  -1.3216802  -0.5131973  -1.5263241   0.1894552   1.3887061   0.4974733
    2  -2.3986268  -2.4520691  -2.0077534  -1.4317344  -1.8405782  -0.8969686
    3   2.4839375   0.9430180  -0.3684999   1.0943120   2.3916175  -0.1611086
          217         218         219         220         221         222
    1   1.0163049   1.4457379  -0.8682351  -0.9544897   0.0478691  -1.7342915
    2   0.6958256  -2.6619958  -0.3925616  -0.3954326   0.9331038  -1.1905126
    3   0.1032445  -0.0326560  -1.1770315   0.9523920   0.5396662   2.5761264
          223         224         225         226         227         228
    1  -1.7658815   0.9475688  -0.6679337   0.9995181   1.0812377   1.9852129
    2  -0.2696525  -3.4559158  -2.2037630  -2.3294489  -2.5165625  -1.2226404
    3  -0.4272625   0.5752607   1.6450853   0.8794585  -0.9914437   1.5084500
          229         230         231         232         233         234
    1   1.7619665   3.4490168   1.3315678  -0.8333842   1.8480212  -0.6687419
    2  -0.6522048  -0.9904564  -0.7292332  -0.5380589   0.7801531   2.0438989
    3   3.2734550   0.5072632   1.0053784   0.6205086   0.3461382  -0.9290387
          235         236         237         238         239         240
    1   2.0060492   2.8940771   2.2591100   2.7452506   2.0813139   2.8534786
    2  -2.8953709   0.1441845  -0.8647590  -1.4976923   0.5907713   1.5471329
    3   1.5993996  -1.7568929  -0.8318320   0.9670484  -0.6957901   0.4910379
          241         242         243         244         245         246
    1   1.1216526   2.0594973   2.7646828   1.2294010   1.2934640   0.4407924
    2   1.2773061   0.0484563  -1.4982550   1.5708290  -1.4873387   0.6439924
    3  -2.4226546   0.5377624   1.8462994   0.8898572  -0.7236722  -1.4958984
          247         248         249         250         251         252
    1   1.6593419  -0.0032646  -0.3192071   1.0981032   1.0236796   1.0135464
    2   1.3018312   1.6081452  -0.5726876  -2.1089515  -0.9647628  -2.0709897
    3  -2.6848613   0.0860305  -1.8763381  -1.7841870  -2.4595935  -1.0136626
          253         254         255         256         257         258
    1   2.4155853   0.3803738   0.3581148  -0.9038844   1.1716758   0.0682688
    2  -2.5618148  -1.0657302  -2.4329441  -0.0805415   0.2934779  -3.3494677
    3  -0.4853291   0.1086312   1.4148450  -0.3422153   0.0355996  -0.9780464
          259         260         261         262         263         264
    1   1.5797996  -0.3305377  -0.9447169  -0.6238862  -2.4114056   0.6954004
    2  -2.6415637  -2.6449522  -3.3929619  -2.1797623  -1.7895559  -2.4191144
    3  -1.1639434  -0.7863215   0.4700346   0.3329633   0.5003273   1.6695475
          265         266         267         268         269         270
    1  -0.4586174   1.0584062   1.8193689   0.9365405   1.4600776  -0.3707202
    2  -1.9255762  -1.9253443  -2.4674549  -0.3786513   0.0717696  -0.1372205
    3  -0.2728965  -0.0311638   0.4798736  -1.1045339  -1.1600943  -1.5560493
          271         272         273         274         275         276
    1  -0.1991208   0.2868839  -1.3783789  -1.6132846  -2.2592271  -3.2597654
    2   0.7726068   1.5096424   0.7523917   1.6126795  -0.2736811  -0.2345929
    3  -1.9940923  -2.3100822  -2.1866436  -2.7552012  -1.7266898  -1.8711666
          277         278         279         280
    1  -2.0168626  -2.7725368  -1.1193512  -1.4353646
    2  -1.4765284  -2.4022328  -1.2665315  -2.0416194
    3  -1.0113501  -0.5454505  -1.0018314  -2.3316516
 EField
            1           2           3           4           5           6
    1  -0.0263450  -0.0473584  -0.0142228  -0.0053524  -0.0027087  -0.0059838
    2  -0.0057168  -0.0047360  -0.0123688  -0.0104582  -0.0085373  -0.0039205
    3  -0.0124195  -0.0208503  -0.0119719  -0.0140143  -0.0087412  -0.0052863
            7           8           9          10          11          12
    1  -0.0144255   0.0032621   0.0055112   0.0050829   0.0008416   0.0047583
    2   0.0001360  -0.0051967  -0.0059197  -0.0066497  -0.0055332  -0.0039822
    3  -0.0074499  -0.0180096  -0.0102501  -0.0066735  -0.0062381  -0.0042574
           13          14          15          16          17          18
    1   0.0041562   0.0011188  -0.0007994   0.0077502   0.0066024   0.0057991
    2  -0.0008582   0.0000189  -0.0026553  -0.0051983  -0.0023854  -0.0008317
    3  -0.0028042  -0.0046298  -0.0045781  -0.0034967  -0.0018668  -0.0024590
           19          20          21          22          23          24
    1   0.0035670   0.0068620  -0.0135394  -0.0012810  -0.0051908  -0.0038582
    2   0.0005802   0.0007901  -0.0155141  -0.0124951  -0.0019442  -0.0046049
    3   0.0008341  -0.0025575  -0.0069970  -0.0088039  -0.0046382  -0.0035809
           25          26          27          28          29          30
    1  -0.0110183  -0.0138724  -0.0017567   0.0131186   0.0051384   0.0061657
    2  -0.0011069   0.0066229   0.0011793   0.0008146  -0.0043686  -0.0040844
    3  -0.0104315  -0.0013646  -0.0138862  -0.0302988  -0.0095977  -0.0105808
           31          32          33          34          35          36
    1   0.0075612   0.0011076   0.0040596   0.0019667   0.0011112  -0.0027127
    2  -0.0091327  -0.0038399  -0.0027504  -0.0006123   0.0003906  -0.0029006
    3  -0.0045704  -0.0072054  -0.0049059  -0.0043530  -0.0080831  -0.0028473
           37          38          39          40          41          42
    1  -0.0021008   0.0085878   0.0095013   0.0072523   0.0060652   0.0055924
    2  -0.0032896  -0.0037963  -0.0073235  -0.0024047  -0.0017154  -0.0006517
    3  -0.0051371  -0.0055227  -0.0001283  -0.0029933  -0.0003948  -0.0051265
           43          44          45          46          47          48
    1   0.0049155   0.0047736   0.0022867   0.0073179   0.0092712  -0.0004799
    2  -0.0015454   0.0070509  -0.0028445   0.0021575   0.0066440   0.0004213
    3   0.0020406   0.0027574   0.0017094  -0.0029520   0.0311288  -0.0000165
           49          50          51          52          53          54
    1  -0.0054480   0.0007383   0.0308692   0.0060988  -0.0022432  -0.0039399
    2   0.0295135   0.0004431   0.0135958  -0.0284412   0.0015664  -0.0054564
    3  -0.0145515   0.0008779   0.0003452   0.0174392  -0.0026176   0.0006022
           55          56          57          58          59          60
    1   0.0210769   0.0021033   0.0091224   0.0154290   0.0240262   0.0007418
    2   0.0314184   0.0025458   0.0280367   0.0141815   0.0734149   0.0106881
    3   0.0073739   0.0066281  -0.0278294   0.0354177  -0.0786096  -0.0090546
           61          62          63          64          65          66
    1   0.0076849  -0.0149959   0.0041171  -0.0069327  -0.0310702   0.0162326
    2   0.0099592  -0.0273406   0.0087432  -0.0237888  -0.0127909   0.0189163
    3   0.0129210   0.0123422  -0.0006943   0.0303091   0.0022760   0.0204899
           67          68          69          70          71          72
    1   0.0010730  -0.0026533  -0.0004816   0.0006494   0.0003695  -0.0331126
    2  -0.0032142   0.0164172   0.0003215  -0.0152958   0.0023362  -0.0046573
    3  -0.0020696  -0.0286440  -0.0002153   0.0301516   0.0007625   0.0092087
           73          74          75          76          77          78
    1  -0.0039240   0.0099870  -0.0036696   0.0149930   0.0192632   0.0008085
    2   0.0120088  -0.0303133   0.0000542  -0.0261226   0.0189113   0.0150208
    3  -0.0320993  -0.0042985   0.0003181  -0.0024363   0.0191567  -0.0309924
           79          80          81          82          83          84
    1  -0.0310941   0.0193258  -0.0023588   0.0059743  -0.0087025  -0.0167665
    2  -0.0025849   0.0021598   0.0000104  -0.0215805   0.0021382   0.0254098
    3   0.0112157  -0.0247579   0.0046457   0.0238641   0.0045598  -0.0144363
           85          86          87          88          89          90
    1   0.0266129  -0.0083179   0.0207572  -0.0787951  -0.0316375   0.0257578
    2   0.0089778   0.0023029  -0.0622082   0.0679670  -0.0086432   0.0007223
    3   0.0115543   0.0017597   0.0604828   0.0146411  -0.0086734  -0.0191570
           91          92          93          94          95          96
    1   0.0006600  -0.0081306  -0.0012071   0.0067556  -0.0276037   0.0032169
    2  -0.0020074  -0.0336671  -0.0009909   0.0325686  -0.0030278  -0.0048722
    3   0.0009624  -0.0007020   0.0007763   0.0009291   0.0188632   0.0003074
           97          98          99         100         101         102
    1  -0.0035866   0.0073112  -0.0074027   0.0353585  -0.0223103   0.1093216
    2  -0.0076163   0.0287415   0.0000296   0.0067845   0.0182763   0.0154930
    3   0.0048696  -0.0221982  -0.0005619  -0.0097576  -0.0109800  -0.0208324
          103         104         105         106         107         108
    1  -0.0136030  -0.0034905  -0.0115477   0.0058588  -0.0371817  -0.0240716
    2  -0.0352915   0.0058472  -0.0251185   0.0025927  -0.0091068   0.0160068
    3   0.0238928  -0.0051921   0.0212607  -0.0043994   0.0084067  -0.0152424
          109         110         111         112         113         114
    1   0.0260978   0.0008460   0.0090572  -0.0267852  -0.0039533  -0.0613834
    2   0.0139612  -0.0043545  -0.0346506  -0.0008557  -0.0124468  -0.0722115
    3  -0.0161427   0.0007624   0.0020961  -0.0197174  -0.0018861   0.0624438
          115         116         117         118         119         120
    1  -0.0063301   0.0256735  -0.0051686  -0.0230591   0.0013872   0.0213155
    2  -0.0063131   0.0218516   0.0028981  -0.0242459  -0.0051607   0.0209440
    3   0.0028447  -0.0281625   0.0180820   0.0145686   0.0011118  -0.0134531
          121         122         123         124         125         126
    1  -0.0085495  -0.0008082   0.0091793  -0.0025421   0.0186326   0.0203352
    2   0.0151940  -0.0025328  -0.0174929  -0.0017599  -0.0256788   0.0202265
    3   0.0276240  -0.0003129  -0.0288527  -0.0018790   0.0077256  -0.0149920
          127         128         129         130         131         132
    1  -0.0085863  -0.0007183  -0.0159049  -0.0248649   0.0163521  -0.0183212
    2   0.0128933  -0.0014133   0.0108847  -0.0165849  -0.0282968   0.0273980
    3   0.0281814  -0.0029960   0.0266147  -0.0219441   0.0101203  -0.0050778
          133         134         135         136         137         138
    1  -0.0196199   0.0028143  -0.0184160   0.0005688   0.0201970  -0.0010937
    2   0.0218159  -0.0029130  -0.0256927  -0.0012240   0.0255874   0.0007013
    3  -0.0140052  -0.0026924   0.0081099  -0.0015084  -0.0058296  -0.0036799
          139         140         141         142         143         144
    1   0.0127271  -0.0163025   0.0252565   0.0041697  -0.0127335  -0.0197166
    2   0.0078378  -0.0281553  -0.0102576  -0.0024744  -0.0322350   0.0191329
    3   0.0279536   0.0038590  -0.0205052  -0.0013521  -0.0041485  -0.0155003
          145         146         147         148         149         150
    1   0.0244331   0.0111971   0.0304287   0.0000537  -0.0207249  -0.0016760
    2  -0.0093837   0.0126983  -0.0041535  -0.0002543  -0.0097100  -0.0003157
    3  -0.0265931   0.0271326   0.0117889  -0.0018019   0.0240811   0.0000763
          151         152         153         154         155         156
    1  -0.0327841   0.0033836   0.0029468   0.0048277  -0.0289293  -0.0002071
    2   0.0020087   0.0214446   0.0011947  -0.0055445   0.0189679  -0.0089946
    3  -0.0095035   0.0246326  -0.0075707  -0.0053677   0.0119063   0.0018259
          157         158         159         160         161         162
    1  -0.0128701  -0.0075951   0.0123362  -0.0070110   0.0243629  -0.0039436
    2   0.0321968  -0.0052313   0.0076844   0.0008050  -0.0209617   0.0060555
    3  -0.0180634   0.0048075  -0.0305864  -0.0002230  -0.0190039  -0.0057904
          163         164         165         166         167         168
    1   0.0088064  -0.0044239   0.0151003   0.0022179  -0.0205507   0.0008164
    2  -0.0336443  -0.0221966  -0.0082948   0.0009099   0.0252367  -0.0009657
    3   0.0140699  -0.0247165   0.0273437  -0.0033488   0.0052774  -0.0021100
          169         170         171         172         173         174
    1  -0.0147896  -0.0021563   0.0188299  -0.0156297   0.0206697   0.0006994
    2   0.0095054  -0.0029427  -0.0075018   0.0284460   0.0060069   0.0013760
    3  -0.0297864  -0.0022018   0.0242683   0.0050633  -0.0278361  -0.0007539
          175         176         177         178         179         180
    1   0.0189910   0.0249972  -0.0176983  -0.0203837  -0.0157355  -0.0001838
    2  -0.0129455   0.0025560  -0.0257000  -0.0245744  -0.0239031  -0.0012670
    3   0.0228004  -0.0288317  -0.0121105  -0.0066380   0.0174610   0.0006857
          181         182         183         184         185         186
    1  -0.0138645  -0.0002605   0.0062535   0.0152679   0.0048270  -0.0043386
    2   0.0292848   0.0036900   0.0078379   0.0268734   0.0105638  -0.0065624
    3   0.0068871   0.0007592   0.0324264  -0.0161785  -0.0060302  -0.0260437
          187         188         189         190         191         192
    1   0.0365539  -0.0273450   0.0087934  -0.0073561   0.0358964  -0.0047814
    2   0.0036898   0.0015905  -0.0098386  -0.0062503   0.0048970  -0.0303647
    3   0.0060158   0.0342559  -0.0057891  -0.0316264   0.0016821   0.0156645
          193         194         195         196         197         198
    1  -0.0075162  -0.0260496   0.0027526  -0.0085867   0.0054544   0.0089707
    2  -0.0058875   0.0173782  -0.0000509  -0.0313138  -0.0013730   0.0330059
    3  -0.0307133  -0.0040430  -0.0019367  -0.0042080  -0.0018801   0.0000399
          199         200         201         202         203         204
    1  -0.0086805   0.0012249   0.0136147   0.0021005  -0.0198086  -0.0101459
    2  -0.0022249   0.0019616   0.0054265   0.0039526  -0.0131312  -0.0060987
    3  -0.0328384  -0.0019809   0.0302117  -0.0008041   0.0214332  -0.0306065
          205         206         207         208         209         210
    1   0.0289647   0.0011454   0.0095300  -0.0045257   0.0315510   0.0107368
    2  -0.0149796   0.0008708   0.0334055   0.0020577  -0.0126014   0.0033369
    3   0.0014204  -0.0030693  -0.0010696  -0.0364488  -0.0042846   0.0304868
          211         212         213         214         215         216
    1  -0.0169137   0.0014036  -0.0211413   0.0001352   0.0220437  -0.0023220
    2  -0.0067678   0.0054751   0.0014636   0.0017739  -0.0004646   0.0020812
    3   0.0259539  -0.0024342  -0.0263165  -0.0023702   0.0238330  -0.0027240
          217         218         219         220         221         222
    1   0.0184309   0.0203507  -0.0185823   0.0028424   0.0160742  -0.0156576
    2   0.0279694  -0.0202557   0.0070891   0.0003108   0.0301401  -0.0040281
    3  -0.0028743  -0.0123008  -0.0326632  -0.0047232   0.0011236   0.0275618
          223         224         225         226         227         228
    1  -0.0220988   0.0204555  -0.0337852  -0.0044339  -0.0035464   0.0030455
    2   0.0049413  -0.0241587  -0.0034953  -0.0048122  -0.0088029  -0.0080071
    3  -0.0260784  -0.0077402   0.0085818  -0.0027866  -0.0345187  -0.0006079
          229         230         231         232         233         234
    1   0.0050744   0.0314724  -0.0093435  -0.1158001   0.1106765  -0.0115171
    2   0.0014281  -0.0002600  -0.0291584  -0.0181916   0.0026250  -0.0120951
    3   0.0347273  -0.0149488   0.0099411  -0.0016339   0.0098689   0.0004686
          235         236         237         238         239         240
    1   0.0174494   0.0235111  -0.0018170   0.0160351   0.0012486   0.0198463
    2  -0.0258174   0.0099689  -0.0014039  -0.0160052  -0.0015397   0.0230128
    3   0.0141141  -0.0214491  -0.0014057   0.0235883  -0.0022555   0.0133614
          241         242         243         244         245         246
    1  -0.0119735   0.0099446   0.0144481  -0.0109243  -0.0038571  -0.0135636
    2   0.0144033   0.0060292  -0.0198084   0.0182698  -0.0478409   0.0035953
    3  -0.0284112   0.0022096   0.0242418   0.0155435  -0.0011397  -0.0124142
          247         248         249         250         251         252
    1   0.0140390  -0.0139674  -0.0353490  -0.0189817  -0.0079633  -0.0026012
    2   0.0142696   0.0101060  -0.0163377  -0.0236260   0.0207298   0.0035344
    3  -0.0298989   0.0094417  -0.0186376  -0.0163673  -0.0284888  -0.0048299
          253         254         255         256         257         258
    1   0.0297484  -0.0055943  -0.0073565  -0.0340198   0.0122216  -0.0195189
    2  -0.0086480   0.0032471  -0.0129741   0.0208778   0.0244970  -0.0251967
    3   0.0039896  -0.0017206   0.0276633  -0.0099616   0.0051861  -0.0070523
          259         260         261         262         263         264
    1   0.0304508   0.0007916  -0.0113272  -0.0001824  -0.0303251   0.0172187
    2  -0.0042960   0.0041243  -0.0247253   0.0018096   0.0077939  -0.0009119
    3  -0.0101540  -0.0002627   0.0164909   0.0002914   0.0107130   0.0282626
          265         266         267         268         269         270
    1   0.0052978  -0.0141558   0.0294436   0.0122282   0.0337910  -0.0174190
    2   0.0069005  -0.0072969  -0.0097246   0.0144091   0.0312380   0.0079940
    3  -0.0019434   0.0069147   0.0186883  -0.0020892  -0.0059590  -0.0010638
          271         272         273         274         275         276
    1  -0.0027869   0.0285767   0.0069909  -0.0092181   0.0112756  -0.0327153
    2   0.0058708   0.0312190  -0.0027411   0.0282853   0.0006925   0.0035313
    3   0.0040726  -0.0018846   0.0097664  -0.0189348   0.0056137  -0.0088574
          277         278         279         280
    1   0.0049919  -0.0233003   0.0013082  -0.0164505
    2   0.0118455  -0.0230859   0.0052647   0.0054201
    3  -0.0028072   0.0121238   0.0012809  -0.0278277
  --- DONE ESP SUMMARY ---
 Total job time:  10.56s(wall), 42.38s(cpu) 
 Tue Aug  6 15:05:07 2024

        *************************************************************
        *                                                           *
        *  Thank you very much for using Q-Chem.  Have a nice day.  *
        *                                                           *
        *************************************************************


