
Running Job 1 of 2 19nt_mm_min_distance_cutoff6_nowat_optimized_spade_wb97x-v_631gd.in
qchem 19nt_mm_min_distance_cutoff6_nowat_optimized_spade_wb97x-v_631gd.in_3956217.0 ./qchem3956217/ 1
srun -n 1 /cm/shared/apps/spack/0.17.3/cpu/b/opt/spack/linux-rocky8-zen2/gcc-10.2.0/qchem-6.0-rytxnwjazd34ekd2gqyi5ufsaimxsd3r/exe/qcprog.exe 19nt_mm_min_distance_cutoff6_nowat_optimized_spade_wb97x-v_631gd.in_3956217.0 ./qchem3956217/

                  Welcome to Q-Chem
     A Quantum Leap Into The Future Of Chemistry


 Q-Chem 6.0, Q-Chem, Inc., Pleasanton, CA (2022)

 License issued to: University of California, San Diego (site)

 E. Epifanovsky,  A. T. B. Gilbert,  Xintian Feng,  Joonho Lee,  Yuezhi Mao,  
 N. Mardirossian,  P. Pokhilko,  A. White,  M. Wormit,  M. P. Coons,  
 A. L. Dempwolff,  Zhengting Gan,  D. Hait,  P. R. Horn,  L. D. Jacobson,  
 I. Kaliman,  J. Kussmann,  A. W. Lange,  Ka Un Lao,  D. S. Levine,  Jie Liu,  
 S. C. McKenzie,  A. F. Morrison,  K. Nanda,  F. Plasser,  D. R. Rehn,  
 M. L. Vidal,  Zhi-Qiang You,  Ying Zhu,  B. Alam,  B. Albrecht,  
 A. Aldossary,  E. Alguire,  J. H. Andersen,  V. Athavale,  D. Barton,  
 K. Begam,  A. Behn,  N. Bellonzi,  Y. A. Bernard,  E. J. Berquist,  
 H. Burton,  A. Carreras,  K. Carter-Fenk,  Romit Chakraborty,  
 Chandrima Chakravarty,  Junhan Chen,  A. D. Chien,  K. D. Closser,  
 V. Cofer-Shabica,  L. Cunha,  S. Dasgupta,  Jia Deng,  M. de Wergifosse,  
 M. Diedenhofen,  Hainam Do,  S. Ehlert,  Po-Tung Fang,  S. Fatehi,  
 Qingguo Feng,  T. Friedhoff,  B. Ganoe,  J. Gayvert,  Qinghui Ge,  
 G. Gidofalvi,  M. Goldey,  J. Gomes,  C. Gonzalez-Espinoza,  S. Gulania,  
 A. Gunina,  J. A. Gyamfi,  M. W. D. Hanson-Heine,  P. H. P. Harbach,  
 A. W. Hauser,  M. F. Herbst,  M. Hernandez Vera,  M. Hodecker,  
 Z. C. Holden,  S. Houck,  Xunkun Huang,  Kerwin Hui,  B. C. Huynh,  
 K. Ikeda,  M. Ivanov,  Hyunjun Ji,  Zuxin Jin,  Hanjie Jiang,  B. Kaduk,  
 S. Kaehler,  R. Kang,  K. Khistyaev,  Jaehoon Kim,  Yongbin Kim,  
 P. Klunzinger,  Z. Koczor-Benda,  Joong Hoon Koh,  D. Kosenkov,  
 Saikiran Kotaru,  L. Koulias,  T. Kowalczyk,  C. M. Krauter,  K. Kue,  
 A. Kunitsa,  T. Kus,  A. Landau,  K. V. Lawler,  D. Lefrancois,  S. Lehtola,  
 Rain Li,  Shaozhi Li,  Yi-Pei Li,  Jiashu Liang,  M. Liebenthal,  
 Hung-Hsuan Lin,  You-Sheng Lin,  Fenglai Liu,  Kuan-Yu Liu,  
 M. Loipersberger,  A. Luenser,  C. Malbon,  A. Manjanath,  P. Manohar,  
 E. Mansoor,  S. F. Manzer,  Shan-Ping Mao,  A. V. Marenich,  T. Markovich,  
 S. Mason,  F. Matz,  S. A. Maurer,  P. F. McLaughlin,  M. F. S. J. Menger,  
 J.-M. Mewes,  S. A. Mewes,  P. Morgante,  Mohammad Mostafanejad,  
 J. W. Mullinax,  K. J. Oosterbaan,  G. Paran,  V. Parravicini,  
 Alexander C. Paul,  Suranjan K. Paul,  F. Pavosevic,  Zheng Pei,  S. Prager,  
 E. I. Proynov,  E. Ramos,  B. Rana,  A. E. Rask,  A. Rettig,  R. M. Richard,  
 F. Rob,  E. Rossomme,  T. Scheele,  M. Scheurer,  M. Schneider,  
 P. E. Schneider,  N. Sergueev,  S. M. Sharada,  Hengyuan Shen,  
 W. Skomorowski,  D. W. Small,  C. J. Stein,  Yingli Su,  Yu-Chuan Su,  
 E. J. Sundstrom,  Zhen Tao,  J. Thirman,  Hung-Yi Tsai,  T. Tsuchimochi,  
 N. M. Tubman,  C. Utku,  S. P. Veccham,  O. Vydrov,  J. Wenzel,  
 Jonathan Wong,  J. Witte,  A. Yamada,  Chou-Hsun Yang,  Kun Yao,  
 S. Yeganeh,  S. R. Yost,  A. Zech,  F. Zeller,  Igor Ying Zhang,  
 Xing Zhang,  Yu Zhang,  D. Zuev,  A. Aspuru-Guzik,  A. T. Bell,  
 N. A. Besley,  K. B. Bravaya,  B. R. Brooks,  D. Casanova,  Jeng-Da Chai,  
 Hsing-Ta Chen,  S. Coriani,  C. J. Cramer,  A. E. DePrince, III,  
 R. A. DiStasio Jr.,  A. Dreuw,  B. D. Dunietz,  T. R. Furlani,  
 W. A. Goddard III,  S. Grimme,  S. Hammes-Schiffer,  T. Head-Gordon,  
 W. J. Hehre,  Chao-Ping Hsu,  T.-C. Jagau,  Yousung Jung,  A. Klamt,  
 Jing Kong,  D. S. Lambrecht,  Xiangyuan Li,  WanZhen Liang,  N. J. Mayhall,  
 C. W. McCurdy,  J. B. Neaton,  T. Neudecker,  C. Ochsenfeld,  
 J. A. Parkhill,  R. Peverati,  V. A. Rassolov,  Haisheng Ren,  Yihan Shao,  
 L. V. Slipchenko,  R. P. Steele,  J. E. Subotnik,  A. J. W. Thom,  
 A. Tkatchenko,  D. G. Truhlar,  T. Van Voorhis,  Fan Wang,  
 T. A. Wesolowski,  K. B. Whaley,  H. L. Woodcock III,  P. M. Zimmerman,  
 S. Faraji,  P. M. W. Gill,  M. Head-Gordon,  J. M. Herbert,  A. I. Krylov

 Contributors to earlier versions of Q-Chem not listed above: 
 R. D. Adamson,  B. Austin,  R. Baer,  J. Baker,  G. J. O. Beran,  
 K. Brandhorst,  S. T. Brown,  E. F. C. Byrd,  Arup K. Chakraborty,  
 G. K. L. Chan,  Chun-Min Chang,  Yunqing Chen,  C.-L. Cheng,  
 Siu Hung Chien,  D. M. Chipman,  D. L. Crittenden,  H. Dachsel,  
 R. J. Doerksen,  A. D. Dutoi,  R. G. Edgar,  J. Fosso-Tande,  
 L. Fusti-Molnar,  D. Ghosh,  A. Ghysels,  A. Golubeva-Zadorozhnaya,  
 J. Gonthier,  M. S. Gordon,  S. R. Gwaltney,  G. Hawkins,  J. E. Herr,  
 A. Heyden,  S. Hirata,  E. G. Hohenstein,  G. Kedziora,  F. J. Keil,  
 C. Kelley,  Jihan Kim,  R. A. King,  R. Z. Khaliullin,  P. P. Korambath,  
 W. Kurlancheek,  A. Laurent,  A. M. Lee,  M. S. Lee,  S. V. Levchenko,  
 Ching Yeh Lin,  D. Liotard,  E. Livshits,  R. C. Lochan,  I. Lotan,  
 L. A. Martinez-Martinez,  P. E. Maslen,  N. Nair,  D. P. O'Neill,  
 D. Neuhauser,  E. Neuscamman,  C. M. Oana,  R. Olivares-Amaya,  R. Olson,  
 T. M. Perrine,  B. Peters,  P. A. Pieniazek,  A. Prociuk,  Y. M. Rhee,  
 J. Ritchie,  M. A. Rohrdanz,  E. Rosta,  N. J. Russ,  H. F. Schaefer III,  
 M. W. Schmidt,  N. E. Schultz,  S. Sharma,  N. Shenvi,  C. D. Sherrill,  
 A. C. Simmonett,  A. Sodt,  T. Stein,  D. Stuck,  K. S. Thanthiriwatte,  
 V. Vanovschi,  L. Vogt,  Tao Wang,  A. Warshel,  M. A. Watson,  
 C. F. Williams,  Q. Wu,  X. Xu,  Jun Yang,  W. Zhang,  Yan Zhao

   Please cite Q-Chem as follows:
  "Software for the frontiers of quantum chemistry:
   An overview of developments in the Q-Chem 5 package"
   J. Chem. Phys. 155, 084801 (2021)
   https://doi.org/10.1063/5.0055522 (open access)

 Q-Chem 6.0.2 for Intel X86 EM64T Linux

 Parts of Q-Chem use Armadillo 9.900.5 (Nocturnal Misbehaviour).
 http://arma.sourceforge.net/

 Q-Chem begins on Tue Aug  6 12:59:10 2024  

 Host: 
0

     Scratch files written to ./qchem3956217//
 Dec722 |scratch|qcdevops|jenkins|workspace|build_RNUM    
 Processing $rem in /cm/shared/apps/spack/0.17.3/cpu/b/opt/spack/linux-rocky8-zen2/gcc-10.2.0/qchem-6.0-rytxnwjazd34ekd2gqyi5ufsaimxsd3r/config/preferences:
 Processing $rem in /home/hklem/.qchemrc:
 No nuclear gradient supported for projection-based embedding or EMFT. Set max ideriv = 0.

 Checking the input file for inconsistencies... 	...done.

--------------------------------------------------------------
User input:
--------------------------------------------------------------
$molecule
-1 1
--
0 1
C    -3.72100   -0.05600   0.89800
O    -4.87800   -0.51400   1.04900
C    -2.91000   0.34300    2.00100
C    -1.72700   0.98900    1.80600
C    -1.10000   1.11700    0.43500
C    -1.69800   0.12300    -0.56000
C    -3.21400   0.14500    -0.50300
C    -1.07100   1.70100    2.93800
C    0.45800    1.74500    2.88800
C    0.96400    2.10100    1.48900
C    0.43900    1.02600    0.51200
C    2.48100    2.20000    1.40800
C    3.00600    2.40800    -0.02600
C    2.59800    1.20600    -0.87700
C    1.07500    1.04400    -0.88900
C    3.20100    3.29000    2.21400
C    4.59700    3.38600    1.53700
C    4.51400    2.50800    0.27000
C    2.51800    3.71400    -0.67800
O    5.30600    3.05500    -0.77500
H    -3.34900   0.26000    2.99100
H    -1.35500   2.13900    0.10200
H    -1.33300   -0.88800   -0.32800
H    -1.37000   0.35700    -1.57600
H    -3.58800   1.12700    -0.83000
H    -3.66100   -0.61300   -1.15600
H    -1.42200   1.29500    3.89100
H    -1.48000   2.72800    2.88900
H    0.86900    0.76800    3.17600
H    0.81600    2.46600    3.62600
H    0.53100    3.07400    1.21200
H    0.68900    0.04900    0.96100
H    2.88600    1.23000    1.74300
H    3.06400    0.30000    -0.46400
H    2.95100    1.31000    -1.91100
H    0.62600    1.84500    -1.49300
H    0.83100    0.10700    -1.40000
H    3.25800    3.05900    3.28000
H    2.65700    4.23800    2.13500
H    5.39800    3.04200    2.19900
H    4.84100    4.41200    1.24500
H    4.87500    1.49700    0.50400
H    2.89500    4.59900    -0.15800
H    2.87200    3.76000    -1.71300
H    1.42600    3.78200    -0.69500
H    5.04500    2.60900    -1.59100
--
-1 1
H    -8.56200   -7.35900   -3.04700
C    -8.12700   -6.35900   -2.91900
H    -8.35300   -5.77500   -3.81500
C    -8.73800   -5.68000   -1.68000
H    -9.82300   -5.62300   -1.81800
H    -8.57400   -6.29800   -0.78800
C    -8.16500   -4.30400   -1.45600
C    -8.70300   -3.17800   -2.08300
H    -9.59500   -3.27900   -2.69700
C    -8.12800   -1.92300   -1.92700
H    -8.55500   -1.04600   -2.40300
C    -6.98400   -1.78700   -1.14500
O    -6.41200   -0.55800   -1.02600
H    -5.79300   -0.54300   -0.24200
C    -6.43000   -2.89500   -0.50700
H    -5.54700   -2.78400   0.11500
C    -7.02900   -4.13700   -0.66500
H    -6.59500   -4.99800   -0.16600
C    -6.59400   -6.47900   -2.88200
O    -5.88400   -5.95700   -3.73200
N    -6.06700   -7.20400   -1.85600
H    -6.69400   -7.66200   -1.21200
C    -4.63200   -7.43500   -1.68500
H    -4.11000   -6.49400   -1.88800
C    -4.31600   -7.94700   -0.27800
H    -4.91300   -8.85900   -0.11700
C    -2.84200   -8.35200   -0.19800
H    -2.58900   -8.69800   0.80900
H    -2.19100   -7.50700   -0.43400
H    -2.61200   -9.15800   -0.90400
C    -4.70100   -6.95100   0.83000
H    -5.79100   -6.81700   0.83600
H    -4.46700   -7.40200   1.80200
C    -4.02900   -5.58300   0.74700
H    -4.33000   -4.96500   1.59900
H    -4.29400   -5.05000   -0.17300
H    -2.93800   -5.66100   0.78800
H    -4.28400   -8.15800   -2.43500
H    -3.41400   -4.86000   -5.23500
C    -2.51000   -4.26700   -5.06000
H    -2.69100   -3.25700   -5.44800
C    -2.18000   -4.21400   -3.56200
H    -2.02200   -5.24600   -3.21600
C    -0.89700   -3.42200   -3.30700
H    -0.03800   -3.84900   -3.83800
H    -1.01700   -2.39000   -3.65100
H    -0.65200   -3.38500   -2.23900
C    -3.34200   -3.63000   -2.75400
H    -3.09200   -3.58300   -1.68600
H    -4.25000   -4.23000   -2.87000
H    -3.57400   -2.60900   -3.08900
H    -1.68400   -4.70500   -5.63400
H    -8.39100   -2.17900   -8.14000
C    -8.76100   -1.47100   -7.39000
H    -9.68400   -1.88700   -6.96400
C    -7.72200   -1.23400   -6.29000
H    -6.80500   -0.85200   -6.76400
C    -8.21500   -0.17200   -5.30200
H    -9.16100   -0.48700   -4.83900
H    -8.38700   0.79000    -5.79800
H    -7.48900   0.00100    -4.50200
C    -7.37100   -2.55200   -5.58300
H    -8.22600   -2.85900   -4.96400
H    -7.24300   -3.33900   -6.33800
C    -6.11300   -2.50400   -4.71900
H    -5.95400   -3.47100   -4.23400
H    -5.22900   -2.27900   -5.33000
H    -6.18000   -1.74300   -3.93500
H    -9.02200   -0.53800   -7.90200
H    -13.51900  0.57600    -4.81200
C    -14.26600  1.30100    -4.47100
H    -14.63900  0.95900    -3.50000
C    -13.65100  2.69800    -4.35000
H    -13.30700  3.02900    -5.33800
H    -14.42200  3.41200    -4.03400
C    -12.50400  2.71700    -3.37000
C    -11.27700  2.14500    -3.70800
H    -11.13700  1.72000    -4.70100
C    -10.22400  2.09500    -2.80500
H    -9.28400   1.63400    -3.08800
C    -10.37700  2.64200    -1.52500
O    -9.38200   2.64600    -0.60800
H    -8.55000   2.37700    -1.04200
C    -11.60100  3.21000    -1.16700
H    -11.71100  3.62900    -0.17300
C    -12.64500  3.23900    -2.08300
H    -13.59300  3.68600    -1.79000
H    -15.09900  1.28900    -5.18300
H    -4.99100   7.30300    4.48300
C    -4.20700   6.54300    4.36800
H    -4.26100   5.88200    5.23600
C    -4.44800   5.74500    3.08700
H    -4.39700   6.41900    2.22400
H    -5.45700   5.31500    3.09100
C    -3.43200   4.60800    2.86500
O    -2.47400   4.54700    3.69100
O    -3.62000   3.83900    1.89600
C    -2.88000   7.29100    4.30300
O    -2.54900   7.90200    3.28900
N    -2.11400   7.34100    5.42700
C    -0.87400   8.10700    5.42500
H    -0.10800   7.60000    4.82300
H    -1.04300   9.09300    4.98400
C    -0.48100   8.14800    6.90200
H    0.59600    8.27500    7.04200
H    -0.99200   8.97900    7.40300
C    -0.99300   6.80500    7.43600
H    -1.15600   6.80500    8.51800
H    -0.27500   6.01400    7.20200
C    -2.29500   6.57200    6.65800
H    -2.44600   5.51200    6.43500
H    -3.16700   6.93800    7.21900
H    -3.79600   8.63300    -6.13200
C    -3.52500   8.19400    -5.16300
H    -2.78100   8.85900    -4.72100
C    -4.77200   8.09900    -4.26500
H    -5.61100   7.67500    -4.83400
H    -5.07400   9.12300    -4.01400
C    -4.56700   7.28500    -3.00200
C    -3.55900   7.59800    -2.08400
H    -2.92900   8.47000    -2.25300
C    -3.36300   6.81700    -0.94700
H    -2.59500   7.08500    -0.22700
C    -4.16100   5.69600    -0.71100
H    -4.00000   5.07300    0.17100
C    -5.17200   5.38500    -1.61500
H    -5.80900   4.52200    -1.44000
C    -5.37600   6.17700    -2.74100
H    -6.18100   5.92800    -3.43000
C    -2.80300   6.87300    -5.45900
O    -1.57800   6.86400    -5.62900
N    -3.55700   5.75900    -5.61500
H    -4.48000   5.75700    -5.20000
C    -3.00600   4.45300    -5.97300
H    -2.47200   4.01600    -5.11800
C    -4.09800   3.49100    -6.45000
H    -4.70200   3.98700    -7.21900
H    -3.59900   2.64400    -6.93700
C    -4.96300   2.98600    -5.32100
C    -6.18100   3.58500    -4.99500
H    -6.56800   4.39000    -5.61700
C    -6.91800   3.17500    -3.88900
H    -7.86100   3.64800    -3.63500
C    -6.44000   2.13600    -3.09300
O    -7.16500   1.77000    -2.00600
H    -6.86000   0.90600    -1.63900
C    -5.24700   1.49300    -3.42700
H    -4.90300   0.65400    -2.83000
C    -4.52100   1.92700    -4.52600
H    -3.58500   1.42800    -4.77000
H    -2.27000   4.62300    -6.76600
H    0.32900    7.19800    -7.45500
C    1.33400    7.40100    -7.06500
H    2.00000    7.63400    -7.89700
C    1.25500    8.53700    -6.03200
H    2.23600    9.00900    -5.91600
H    1.01200    8.09700    -5.06000
C    0.19600    9.59300    -6.37100
H    0.48800    10.18800   -7.23900
H    -0.74600   9.07700    -6.59300
C    -0.03600   10.55400   -5.21400
O    0.23800    11.74000   -5.25600
N    -0.59900   9.97200    -4.10700
H    -0.69400   8.96900    -4.03800
H    -0.63400   10.51200   -3.25600
C    1.86500    6.10000    -6.40000
O    2.95100    5.61400    -6.69700
N    1.06900    5.52600    -5.43200
H    0.14500    5.93100    -5.29300
C    1.59800    4.64000    -4.37900
H    0.82300    4.52700    -3.61700
H    2.47400    5.09100    -3.90500
C    2.03900    3.23600    -4.81400
O    2.80600    2.59600    -4.10700
N    1.50000    2.76600    -5.96500
H    0.87700    3.38900    -6.46100
C    1.80200    1.46700    -6.55700
H    2.54800    0.99800    -5.91000
C    0.54400    0.59800    -6.66400
H    -0.12300   1.04200    -7.41800
H    0.84700    -0.37600   -7.06400
C    -0.22900   0.41900    -5.35300
H    -0.54500   1.41400    -5.00500
C    -1.48900   -0.41100   -5.60900
H    -2.08600   -0.52100   -4.69600
H    -2.12500   0.04700    -6.37600
H    -1.22700   -1.41900   -5.95400
C    0.63500    -0.20700   -4.25800
H    1.05600    -1.16400   -4.59100
H    1.45900    0.45100    -3.96300
H    0.03800    -0.40500   -3.36200
C    2.42800    1.62300    -7.97200
O    2.51200    0.65100    -8.71000
N    2.81000    2.87000    -8.35600
H    2.87400    3.61400    -7.66800
C    3.36000    3.11500    -9.68700
H    2.69900    2.68100    -10.44200
H    3.43100    4.19400    -9.83100
H    4.35200    2.66600    -9.80200
H    5.57800    -2.63200   -5.60400
C    5.21100    -2.91500   -4.61300
H    6.03600    -2.86400   -3.89400
C    4.08900    -1.94400   -4.18100
H    3.25100    -2.07500   -4.87900
C    3.59700    -2.21700   -2.75600
H    3.14900    -3.21000   -2.64900
H    4.42700    -2.15600   -2.04100
H    2.84600    -1.47400   -2.46500
C    4.59700    -0.50600   -4.31000
H    5.44700    -0.33500   -3.63800
H    4.92700    -0.28700   -5.33200
H    3.82200    0.22100    -4.04500
C    4.74100    -4.36600   -4.73100
O    4.28300    -4.78700   -5.81400
N    4.84000    -5.15000   -3.64200
H    5.26700    -4.74700   -2.80500
C    4.22800    -6.47600   -3.49400
H    3.62400    -6.64900   -4.38800
C    5.25700    -7.59900   -3.25400
H    4.80800    -8.55100   -3.57000
H    5.49900    -7.72400   -2.18900
C    6.61600    -7.39700   -3.91400
H    7.24900    -8.22500   -3.57700
H    7.08400    -6.49300   -3.50900
C    6.60800    -7.26000   -5.43300
H    6.12800    -6.33700   -5.75800
H    7.62900    -7.24700   -5.82700
N    5.90900    -8.38400   -6.07400
H    6.23500    -9.30100   -5.79800
C    4.79100    -8.33400   -6.78600
N    4.08900    -7.22200   -6.95800
H    4.23400    -6.32300   -6.43800
H    3.39700    -7.19900   -7.69200
N    4.36300    -9.46700   -7.40000
H    4.89800    -10.31700  -7.31700
H    3.38100    -9.57700   -7.60000
C    3.31800    -6.37500   -2.25400
O    3.55900    -5.55700   -1.37300
N    2.29100    -7.24700   -2.16300
H    2.08800    -7.84600   -2.94800
C    1.33800    -7.18900   -1.05700
H    1.87700    -6.78400   -0.19900
C    0.13100    -6.32000   -1.39500
H    -0.48200   -6.14200   -0.50600
H    -0.49800   -6.78800   -2.16000
H    0.46200    -5.35000   -1.77300
H    1.03600    -8.21100   -0.80900
H    -8.23100   -6.88500   7.69900
C    -7.30000   -7.36400   7.37600
H    -7.30600   -8.39500   7.74400
C    -7.16400   -7.32800   5.85200
H    -7.99800   -7.87600   5.39700
H    -6.24600   -7.84600   5.54900
C    -7.14100   -5.90400   5.29700
H    -6.26600   -5.36300   5.67700
H    -8.03800   -5.35700   5.61400
S    -7.08300   -5.93400   3.47700
C    -7.10800   -4.15500   3.13600
H    -7.99200   -3.68800   3.58100
H    -6.19400   -3.67400   3.49100
H    -7.17000   -4.02500   2.05400
H    -6.46900   -6.83800   7.85900
H    -1.93400   -7.25300   6.41800
C    -1.17500   -7.51600   5.67300
H    -0.89400   -8.56300   5.82800
C    -1.70500   -7.29500   4.24800
H    -0.93700   -7.59900   3.52600
H    -2.56700   -7.95500   4.08100
C    -2.11600   -5.86500   3.97100
C    -1.37800   -5.04600   3.11300
H    -0.48600   -5.44400   2.63100
C    -1.77100   -3.73200   2.85800
H    -1.19100   -3.11100   2.18100
C    -2.90100   -3.21000   3.47600
H    -3.21800   -2.18800   3.29800
C    -3.63000   -4.00700   4.35600
H    -4.48300   -3.57800   4.87300
C    -3.24900   -5.32400   4.58800
H    -3.83700   -5.94500   5.26100
H    -0.29600   -6.89100   5.85900
H    3.20000    -4.54400   2.66400
C    3.54600    -4.44600   1.63100
H    3.26300    -5.34300   1.07100
C    2.90600    -3.20800   0.96800
H    3.42100    -3.03900   0.01300
C    1.43200    -3.47200   0.66900
H    0.88800    -3.69600   1.59500
H    1.32300    -4.32100   -0.01200
H    0.96100    -2.59700   0.20300
C    3.06200    -1.95800   1.83300
H    2.53400    -2.08100   2.78800
H    2.64300    -1.08100   1.32900
H    4.10900    -1.74400   2.05700
C    5.07800    -4.33200   1.67400
O    5.67000    -3.90500   2.66400
N    5.71400    -4.70400   0.53000
H    5.14200    -5.02300   -0.24500
C    7.15500    -4.70100   0.33000
H    7.60800    -4.35700   1.26400
C    7.66600    -6.09400   -0.10300
H    8.75800    -6.03800   -0.21100
H    7.26800    -6.29700   -1.10400
C    7.28200    -7.28800   0.75800
H    6.22600    -7.19800   1.04800
H    7.87100    -7.34000   1.67900
C    7.43400    -8.63300   -0.03400
O    7.04900    -8.58900   -1.24200
O    7.88500    -9.60100   0.59100
C    7.48800    -3.77500   -0.85000
O    6.79700    -3.79100   -1.87300
N    8.60500    -3.01800   -0.75700
H    9.24100    -3.13900   0.01900
C    9.01700    -2.09000   -1.79800
H    9.17100    -2.64400   -2.73500
C    7.94500    -1.01000   -2.05800
H    7.06100    -1.52000   -2.44400
H    8.29200    -0.36800   -2.87800
C    7.53900    -0.14400   -0.85400
H    8.39800    0.08500    -0.21400
H    7.14400    0.81600    -1.20200
S    6.23500    -0.90100   0.19100
C    7.11200    -1.15100   1.75600
H    8.08900    -1.60100   1.56400
H    7.24000    -0.20900   2.29700
H    6.52300    -1.85200   2.35400
C    10.41800   -1.53000   -1.40700
O    11.20200   -2.24000   -0.79100
N    10.73600   -0.27800   -1.84400
H    10.01700   0.33000    -2.20800
C    12.05300   0.34200    -1.69100
H    12.64700   -0.35800   -1.09500
C    12.73200   0.55900    -3.05900
H    12.08600   1.24000    -3.63000
C    14.10200   1.22200    -2.89100
H    14.76000   0.60400    -2.26700
H    14.58600   1.34300    -3.86600
H    14.02600   2.21000    -2.42800
C    12.85600   -0.76400   -3.81600
H    13.46900   -1.47900   -3.25400
H    11.87700   -1.22300   -3.98500
H    13.32800   -0.60400   -4.79100
C    11.88900   1.69600    -0.96100
O    11.09000   2.52000    -1.38700
N    12.72500   1.93000    0.08800
H    13.16700   1.12600    0.50800
C    12.69500   3.16900    0.87600
H    12.59900   3.99800    0.16900
C    11.53900   3.21200    1.88800
H    10.62800   2.89900    1.36200
H    11.72300   2.48400    2.68400
C    11.33900   4.57900    2.45700
C    11.59100   5.01100    3.72700
H    11.96500   4.45900    4.58000
N    11.28500   6.35300    3.83800
H    11.32500   6.88900    4.68800
C    10.80900   6.80800    2.62900
C    10.35600   8.07200    2.24500
H    10.33500   8.90400    2.94300
C    9.92400    8.22200    0.93700
H    9.55900    9.19000    0.60600
C    9.93900    7.14500    0.03000
H    9.58200    7.30000    -0.98300
C    10.38900   5.89400    0.41400
H    10.39200   5.06000    -0.28400
C    10.83500   5.71700    1.73300
H    13.65900   3.26900    1.38100
H    12.85300   -1.96600   3.00600
C    11.91700   -2.50700   2.83400
H    11.90100   -3.38600   3.48600
C    10.71400   -1.61900   3.13100
H    9.78000    -2.18000   3.03900
H    10.77100   -1.21800   4.14700
S    10.71600   -0.22600   1.94600
H    9.84700    0.57000    2.59100
H    11.90400   -2.85000   1.79400
H    6.28900    -2.95500   5.38400
C    5.66900    -2.27800   5.98000
H    6.29600    -1.83600   6.76300
C    5.02300    -1.22700   5.08500
H    4.53700    -1.74700   4.25300
H    5.80300    -0.59500   4.63300
C    4.00000    -0.31800   5.77900
H    3.19400    -0.95600   6.17400
C    4.60800    0.45400    6.95200
H    4.96600    -0.21500   7.74400
H    5.45800    1.06200    6.61400
H    3.87000    1.13200    7.39300
C    3.38500    0.64800    4.76600
H    2.93600    0.10400    3.92800
H    4.15900    1.30800    4.35300
H    2.61200    1.27900    5.21800
H    4.90300    -2.88500   6.47800
H    0.45700    -3.01000   7.40500
C    -0.47200   -2.46400   7.61200
H    -0.20800   -1.57100   8.19200
C    -1.19100   -2.08400   6.31600
H    -1.41500   -3.01300   5.77600
C    -2.51600   -1.38300   6.61900
H    -3.06900   -1.14000   5.70700
H    -3.16500   -2.01500   7.23800
H    -2.33800   -0.44900   7.16900
C    -0.30900   -1.21800   5.41100
H    -0.81200   -1.02400   4.45500
H    0.64600    -1.71100   5.19200
H    -0.09100   -0.24800   5.87600
H    -1.10400   -3.10000   8.24200
H    -6.70400   -2.94200   6.10200
C    -6.88700   -1.89900   6.38100
H    -5.95500   -1.49200   6.78200
C    -7.34700   -1.08900   5.17500
H    -8.24700   -1.51200   4.71600
H    -7.59000   -0.05700   5.45800
C    -6.26600   -0.99000   4.12900
O    -5.07800   -1.08500   4.37200
O    -6.73800   -0.78300   2.90800
H    -5.96100   -0.66900   2.30100
H    -7.64500   -1.88700   7.17000
H    -12.52000  -0.77900   5.86400
C    -13.23900  -1.23100   5.17100
H    -13.66500  -0.42500   4.56300
C    -12.56900  -2.28600   4.29400
H    -13.31300  -2.74500   3.63100
H    -12.17000  -3.09200   4.92200
C    -11.44100  -1.70200   3.44700
H    -10.67500  -1.25300   4.09100
H    -11.82600  -0.91100   2.79200
S    -10.69400  -3.01000   2.42500
C    -9.55400   -2.02600   1.41600
H    -8.76700   -1.56800   2.02000
H    -9.09400   -2.71300   0.70200
H    -10.09200  -1.25500   0.85700
H    -14.04800  -1.66800   5.76600
H    -12.17500  3.10300    3.72100
C    -11.23100  2.57600    3.90100
H    -11.45000  1.68700    4.50500
C    -10.55600  2.18600    2.58400
H    -11.22900  1.53400    2.00900
H    -10.38100  3.07200    1.96500
C    -9.22900   1.44700    2.76400
H    -9.35000   0.61100    3.46300
H    -8.90700   1.01900    1.81100
S    -7.84400   2.47700    3.38000
C    -6.85700   2.62000    1.85900
H    -7.40000   3.18900    1.10100
H    -6.62200   1.62200    1.47600
H    -5.91100   3.12500    2.08600
H    -10.58300  3.23500    4.49000
H    -5.90400   2.94200    6.48000
C    -5.11800   2.18100    6.52600
H    -5.58700   1.23200    6.81300
C    -4.40300   2.05400    5.18300
H    -3.65200   1.25600    5.20900
H    -3.90300   2.98500    4.90500
H    -5.10900   1.80900    4.38500
H    -4.42400   2.46500    7.32700
H    -0.80300   2.67000    10.01900
C    0.19400    2.23800    9.88100
H    0.40900    1.58100    10.73100
C    0.26500    1.47500    8.55200
H    1.25100    1.00100    8.45400
H    -0.46600   0.65700    8.56900
C    -0.00300   2.34700    7.36300
C    -1.18600   2.45000    6.67500
H    -2.10900   1.90700    6.82600
N    -1.09200   3.38900    5.68400
H    -1.78800   3.65800    4.97600
C    0.17000    3.91100    5.69800
C    0.73500    4.87400    4.85400
H    0.14200    5.30900    4.05500
C    2.05200    5.22800    5.09300
H    2.53000    5.96800    4.45700
C    2.79000    4.63600    6.14000
H    3.82200    4.93800    6.29600
C    2.22400    3.68000    6.96600
H    2.80400    3.23500    7.77100
C    0.89100    3.29200    6.74800
H    0.91600    3.06300    9.89400
H    8.55600    0.38000    9.63400
C    8.64400    0.04100    8.59600
H    7.62900    -0.12000   8.21700
C    9.40800    1.06300    7.75200
H    10.36000   1.29400    8.24800
H    8.84200    2.00500    7.71600
C    9.70800    0.61200    6.31400
H    10.25700   -0.34100   6.37800
C    8.43000    0.36800    5.50800
H    7.82800    1.28400    5.44600
H    8.65600    0.05100    4.48300
H    7.80700    -0.41200   5.95300
C    10.60700   1.62800    5.60400
H    10.08400   2.58300    5.46300
H    11.52000   1.82400    6.17900
H    10.90900   1.26800    4.61300
H    9.15700    -0.92800   8.60000
$end

$rem
JOBTYPE  SP
METHOD  WB97X-V
BASIS  6-31G(D)
SYMMETRY  FALSE
SYM_IGNORE  TRUE
MEM_TOTAL  12000
MEM_STATIC  4000
BASIS_LIN_DEP_THRESH  6
THRESH  14
SCF_CONVERGENCE  8
FD_MAT_VEC_PROD  FALSE
XC_GRID  000075000302
NL_GRID  1
MAX_SCF_CYCLES  200
ENV_METHOD  WB97X-V
GEN_SCFMAN_EMBED  TRUE
SPADE_PARTITION  TRUE
EMBEDDING_EARLY_STOP  TRUE
$end

--------------------------------------------------------------
 ----------------------------------------------------------------
             Standard Nuclear Orientation (Angstroms)
    I     Atom           X                Y                Z
 ----------------------------------------------------------------
    1      C      -3.7210000000    -0.0560000000     0.8980000000
    2      O      -4.8780000000    -0.5140000000     1.0490000000
    3      C      -2.9100000000     0.3430000000     2.0010000000
    4      C      -1.7270000000     0.9890000000     1.8060000000
    5      C      -1.1000000000     1.1170000000     0.4350000000
    6      C      -1.6980000000     0.1230000000    -0.5600000000
    7      C      -3.2140000000     0.1450000000    -0.5030000000
    8      C      -1.0710000000     1.7010000000     2.9380000000
    9      C       0.4580000000     1.7450000000     2.8880000000
   10      C       0.9640000000     2.1010000000     1.4890000000
   11      C       0.4390000000     1.0260000000     0.5120000000
   12      C       2.4810000000     2.2000000000     1.4080000000
   13      C       3.0060000000     2.4080000000    -0.0260000000
   14      C       2.5980000000     1.2060000000    -0.8770000000
   15      C       1.0750000000     1.0440000000    -0.8890000000
   16      C       3.2010000000     3.2900000000     2.2140000000
   17      C       4.5970000000     3.3860000000     1.5370000000
   18      C       4.5140000000     2.5080000000     0.2700000000
   19      C       2.5180000000     3.7140000000    -0.6780000000
   20      O       5.3060000000     3.0550000000    -0.7750000000
   21      H      -3.3490000000     0.2600000000     2.9910000000
   22      H      -1.3550000000     2.1390000000     0.1020000000
   23      H      -1.3330000000    -0.8880000000    -0.3280000000
   24      H      -1.3700000000     0.3570000000    -1.5760000000
   25      H      -3.5880000000     1.1270000000    -0.8300000000
   26      H      -3.6610000000    -0.6130000000    -1.1560000000
   27      H      -1.4220000000     1.2950000000     3.8910000000
   28      H      -1.4800000000     2.7280000000     2.8890000000
   29      H       0.8690000000     0.7680000000     3.1760000000
   30      H       0.8160000000     2.4660000000     3.6260000000
   31      H       0.5310000000     3.0740000000     1.2120000000
   32      H       0.6890000000     0.0490000000     0.9610000000
   33      H       2.8860000000     1.2300000000     1.7430000000
   34      H       3.0640000000     0.3000000000    -0.4640000000
   35      H       2.9510000000     1.3100000000    -1.9110000000
   36      H       0.6260000000     1.8450000000    -1.4930000000
   37      H       0.8310000000     0.1070000000    -1.4000000000
   38      H       3.2580000000     3.0590000000     3.2800000000
   39      H       2.6570000000     4.2380000000     2.1350000000
   40      H       5.3980000000     3.0420000000     2.1990000000
   41      H       4.8410000000     4.4120000000     1.2450000000
   42      H       4.8750000000     1.4970000000     0.5040000000
   43      H       2.8950000000     4.5990000000    -0.1580000000
   44      H       2.8720000000     3.7600000000    -1.7130000000
   45      H       1.4260000000     3.7820000000    -0.6950000000
   46      H       5.0450000000     2.6090000000    -1.5910000000
   47      H      -8.5620000000    -7.3590000000    -3.0470000000
   48      C      -8.1270000000    -6.3590000000    -2.9190000000
   49      H      -8.3530000000    -5.7750000000    -3.8150000000
   50      C      -8.7380000000    -5.6800000000    -1.6800000000
   51      H      -9.8230000000    -5.6230000000    -1.8180000000
   52      H      -8.5740000000    -6.2980000000    -0.7880000000
   53      C      -8.1650000000    -4.3040000000    -1.4560000000
   54      C      -8.7030000000    -3.1780000000    -2.0830000000
   55      H      -9.5950000000    -3.2790000000    -2.6970000000
   56      C      -8.1280000000    -1.9230000000    -1.9270000000
   57      H      -8.5550000000    -1.0460000000    -2.4030000000
   58      C      -6.9840000000    -1.7870000000    -1.1450000000
   59      O      -6.4120000000    -0.5580000000    -1.0260000000
   60      H      -5.7930000000    -0.5430000000    -0.2420000000
   61      C      -6.4300000000    -2.8950000000    -0.5070000000
   62      H      -5.5470000000    -2.7840000000     0.1150000000
   63      C      -7.0290000000    -4.1370000000    -0.6650000000
   64      H      -6.5950000000    -4.9980000000    -0.1660000000
   65      C      -6.5940000000    -6.4790000000    -2.8820000000
   66      O      -5.8840000000    -5.9570000000    -3.7320000000
   67      N      -6.0670000000    -7.2040000000    -1.8560000000
   68      H      -6.6940000000    -7.6620000000    -1.2120000000
   69      C      -4.6320000000    -7.4350000000    -1.6850000000
   70      H      -4.1100000000    -6.4940000000    -1.8880000000
   71      C      -4.3160000000    -7.9470000000    -0.2780000000
   72      H      -4.9130000000    -8.8590000000    -0.1170000000
   73      C      -2.8420000000    -8.3520000000    -0.1980000000
   74      H      -2.5890000000    -8.6980000000     0.8090000000
   75      H      -2.1910000000    -7.5070000000    -0.4340000000
   76      H      -2.6120000000    -9.1580000000    -0.9040000000
   77      C      -4.7010000000    -6.9510000000     0.8300000000
   78      H      -5.7910000000    -6.8170000000     0.8360000000
   79      H      -4.4670000000    -7.4020000000     1.8020000000
   80      C      -4.0290000000    -5.5830000000     0.7470000000
   81      H      -4.3300000000    -4.9650000000     1.5990000000
   82      H      -4.2940000000    -5.0500000000    -0.1730000000
   83      H      -2.9380000000    -5.6610000000     0.7880000000
   84      H      -4.2840000000    -8.1580000000    -2.4350000000
   85      H      -3.4140000000    -4.8600000000    -5.2350000000
   86      C      -2.5100000000    -4.2670000000    -5.0600000000
   87      H      -2.6910000000    -3.2570000000    -5.4480000000
   88      C      -2.1800000000    -4.2140000000    -3.5620000000
   89      H      -2.0220000000    -5.2460000000    -3.2160000000
   90      C      -0.8970000000    -3.4220000000    -3.3070000000
   91      H      -0.0380000000    -3.8490000000    -3.8380000000
   92      H      -1.0170000000    -2.3900000000    -3.6510000000
   93      H      -0.6520000000    -3.3850000000    -2.2390000000
   94      C      -3.3420000000    -3.6300000000    -2.7540000000
   95      H      -3.0920000000    -3.5830000000    -1.6860000000
   96      H      -4.2500000000    -4.2300000000    -2.8700000000
   97      H      -3.5740000000    -2.6090000000    -3.0890000000
   98      H      -1.6840000000    -4.7050000000    -5.6340000000
   99      H      -8.3910000000    -2.1790000000    -8.1400000000
  100      C      -8.7610000000    -1.4710000000    -7.3900000000
  101      H      -9.6840000000    -1.8870000000    -6.9640000000
  102      C      -7.7220000000    -1.2340000000    -6.2900000000
  103      H      -6.8050000000    -0.8520000000    -6.7640000000
  104      C      -8.2150000000    -0.1720000000    -5.3020000000
  105      H      -9.1610000000    -0.4870000000    -4.8390000000
  106      H      -8.3870000000     0.7900000000    -5.7980000000
  107      H      -7.4890000000     0.0010000000    -4.5020000000
  108      C      -7.3710000000    -2.5520000000    -5.5830000000
  109      H      -8.2260000000    -2.8590000000    -4.9640000000
  110      H      -7.2430000000    -3.3390000000    -6.3380000000
  111      C      -6.1130000000    -2.5040000000    -4.7190000000
  112      H      -5.9540000000    -3.4710000000    -4.2340000000
  113      H      -5.2290000000    -2.2790000000    -5.3300000000
  114      H      -6.1800000000    -1.7430000000    -3.9350000000
  115      H      -9.0220000000    -0.5380000000    -7.9020000000
  116      H     -13.5190000000     0.5760000000    -4.8120000000
  117      C     -14.2660000000     1.3010000000    -4.4710000000
  118      H     -14.6390000000     0.9590000000    -3.5000000000
  119      C     -13.6510000000     2.6980000000    -4.3500000000
  120      H     -13.3070000000     3.0290000000    -5.3380000000
  121      H     -14.4220000000     3.4120000000    -4.0340000000
  122      C     -12.5040000000     2.7170000000    -3.3700000000
  123      C     -11.2770000000     2.1450000000    -3.7080000000
  124      H     -11.1370000000     1.7200000000    -4.7010000000
  125      C     -10.2240000000     2.0950000000    -2.8050000000
  126      H      -9.2840000000     1.6340000000    -3.0880000000
  127      C     -10.3770000000     2.6420000000    -1.5250000000
  128      O      -9.3820000000     2.6460000000    -0.6080000000
  129      H      -8.5500000000     2.3770000000    -1.0420000000
  130      C     -11.6010000000     3.2100000000    -1.1670000000
  131      H     -11.7110000000     3.6290000000    -0.1730000000
  132      C     -12.6450000000     3.2390000000    -2.0830000000
  133      H     -13.5930000000     3.6860000000    -1.7900000000
  134      H     -15.0990000000     1.2890000000    -5.1830000000
  135      H      -4.9910000000     7.3030000000     4.4830000000
  136      C      -4.2070000000     6.5430000000     4.3680000000
  137      H      -4.2610000000     5.8820000000     5.2360000000
  138      C      -4.4480000000     5.7450000000     3.0870000000
  139      H      -4.3970000000     6.4190000000     2.2240000000
  140      H      -5.4570000000     5.3150000000     3.0910000000
  141      C      -3.4320000000     4.6080000000     2.8650000000
  142      O      -2.4740000000     4.5470000000     3.6910000000
  143      O      -3.6200000000     3.8390000000     1.8960000000
  144      C      -2.8800000000     7.2910000000     4.3030000000
  145      O      -2.5490000000     7.9020000000     3.2890000000
  146      N      -2.1140000000     7.3410000000     5.4270000000
  147      C      -0.8740000000     8.1070000000     5.4250000000
  148      H      -0.1080000000     7.6000000000     4.8230000000
  149      H      -1.0430000000     9.0930000000     4.9840000000
  150      C      -0.4810000000     8.1480000000     6.9020000000
  151      H       0.5960000000     8.2750000000     7.0420000000
  152      H      -0.9920000000     8.9790000000     7.4030000000
  153      C      -0.9930000000     6.8050000000     7.4360000000
  154      H      -1.1560000000     6.8050000000     8.5180000000
  155      H      -0.2750000000     6.0140000000     7.2020000000
  156      C      -2.2950000000     6.5720000000     6.6580000000
  157      H      -2.4460000000     5.5120000000     6.4350000000
  158      H      -3.1670000000     6.9380000000     7.2190000000
  159      H      -3.7960000000     8.6330000000    -6.1320000000
  160      C      -3.5250000000     8.1940000000    -5.1630000000
  161      H      -2.7810000000     8.8590000000    -4.7210000000
  162      C      -4.7720000000     8.0990000000    -4.2650000000
  163      H      -5.6110000000     7.6750000000    -4.8340000000
  164      H      -5.0740000000     9.1230000000    -4.0140000000
  165      C      -4.5670000000     7.2850000000    -3.0020000000
  166      C      -3.5590000000     7.5980000000    -2.0840000000
  167      H      -2.9290000000     8.4700000000    -2.2530000000
  168      C      -3.3630000000     6.8170000000    -0.9470000000
  169      H      -2.5950000000     7.0850000000    -0.2270000000
  170      C      -4.1610000000     5.6960000000    -0.7110000000
  171      H      -4.0000000000     5.0730000000     0.1710000000
  172      C      -5.1720000000     5.3850000000    -1.6150000000
  173      H      -5.8090000000     4.5220000000    -1.4400000000
  174      C      -5.3760000000     6.1770000000    -2.7410000000
  175      H      -6.1810000000     5.9280000000    -3.4300000000
  176      C      -2.8030000000     6.8730000000    -5.4590000000
  177      O      -1.5780000000     6.8640000000    -5.6290000000
  178      N      -3.5570000000     5.7590000000    -5.6150000000
  179      H      -4.4800000000     5.7570000000    -5.2000000000
  180      C      -3.0060000000     4.4530000000    -5.9730000000
  181      H      -2.4720000000     4.0160000000    -5.1180000000
  182      C      -4.0980000000     3.4910000000    -6.4500000000
  183      H      -4.7020000000     3.9870000000    -7.2190000000
  184      H      -3.5990000000     2.6440000000    -6.9370000000
  185      C      -4.9630000000     2.9860000000    -5.3210000000
  186      C      -6.1810000000     3.5850000000    -4.9950000000
  187      H      -6.5680000000     4.3900000000    -5.6170000000
  188      C      -6.9180000000     3.1750000000    -3.8890000000
  189      H      -7.8610000000     3.6480000000    -3.6350000000
  190      C      -6.4400000000     2.1360000000    -3.0930000000
  191      O      -7.1650000000     1.7700000000    -2.0060000000
  192      H      -6.8600000000     0.9060000000    -1.6390000000
  193      C      -5.2470000000     1.4930000000    -3.4270000000
  194      H      -4.9030000000     0.6540000000    -2.8300000000
  195      C      -4.5210000000     1.9270000000    -4.5260000000
  196      H      -3.5850000000     1.4280000000    -4.7700000000
  197      H      -2.2700000000     4.6230000000    -6.7660000000
  198      H       0.3290000000     7.1980000000    -7.4550000000
  199      C       1.3340000000     7.4010000000    -7.0650000000
  200      H       2.0000000000     7.6340000000    -7.8970000000
  201      C       1.2550000000     8.5370000000    -6.0320000000
  202      H       2.2360000000     9.0090000000    -5.9160000000
  203      H       1.0120000000     8.0970000000    -5.0600000000
  204      C       0.1960000000     9.5930000000    -6.3710000000
  205      H       0.4880000000    10.1880000000    -7.2390000000
  206      H      -0.7460000000     9.0770000000    -6.5930000000
  207      C      -0.0360000000    10.5540000000    -5.2140000000
  208      O       0.2380000000    11.7400000000    -5.2560000000
  209      N      -0.5990000000     9.9720000000    -4.1070000000
  210      H      -0.6940000000     8.9690000000    -4.0380000000
  211      H      -0.6340000000    10.5120000000    -3.2560000000
  212      C       1.8650000000     6.1000000000    -6.4000000000
  213      O       2.9510000000     5.6140000000    -6.6970000000
  214      N       1.0690000000     5.5260000000    -5.4320000000
  215      H       0.1450000000     5.9310000000    -5.2930000000
  216      C       1.5980000000     4.6400000000    -4.3790000000
  217      H       0.8230000000     4.5270000000    -3.6170000000
  218      H       2.4740000000     5.0910000000    -3.9050000000
  219      C       2.0390000000     3.2360000000    -4.8140000000
  220      O       2.8060000000     2.5960000000    -4.1070000000
  221      N       1.5000000000     2.7660000000    -5.9650000000
  222      H       0.8770000000     3.3890000000    -6.4610000000
  223      C       1.8020000000     1.4670000000    -6.5570000000
  224      H       2.5480000000     0.9980000000    -5.9100000000
  225      C       0.5440000000     0.5980000000    -6.6640000000
  226      H      -0.1230000000     1.0420000000    -7.4180000000
  227      H       0.8470000000    -0.3760000000    -7.0640000000
  228      C      -0.2290000000     0.4190000000    -5.3530000000
  229      H      -0.5450000000     1.4140000000    -5.0050000000
  230      C      -1.4890000000    -0.4110000000    -5.6090000000
  231      H      -2.0860000000    -0.5210000000    -4.6960000000
  232      H      -2.1250000000     0.0470000000    -6.3760000000
  233      H      -1.2270000000    -1.4190000000    -5.9540000000
  234      C       0.6350000000    -0.2070000000    -4.2580000000
  235      H       1.0560000000    -1.1640000000    -4.5910000000
  236      H       1.4590000000     0.4510000000    -3.9630000000
  237      H       0.0380000000    -0.4050000000    -3.3620000000
  238      C       2.4280000000     1.6230000000    -7.9720000000
  239      O       2.5120000000     0.6510000000    -8.7100000000
  240      N       2.8100000000     2.8700000000    -8.3560000000
  241      H       2.8740000000     3.6140000000    -7.6680000000
  242      C       3.3600000000     3.1150000000    -9.6870000000
  243      H       2.6990000000     2.6810000000   -10.4420000000
  244      H       3.4310000000     4.1940000000    -9.8310000000
  245      H       4.3520000000     2.6660000000    -9.8020000000
  246      H       5.5780000000    -2.6320000000    -5.6040000000
  247      C       5.2110000000    -2.9150000000    -4.6130000000
  248      H       6.0360000000    -2.8640000000    -3.8940000000
  249      C       4.0890000000    -1.9440000000    -4.1810000000
  250      H       3.2510000000    -2.0750000000    -4.8790000000
  251      C       3.5970000000    -2.2170000000    -2.7560000000
  252      H       3.1490000000    -3.2100000000    -2.6490000000
  253      H       4.4270000000    -2.1560000000    -2.0410000000
  254      H       2.8460000000    -1.4740000000    -2.4650000000
  255      C       4.5970000000    -0.5060000000    -4.3100000000
  256      H       5.4470000000    -0.3350000000    -3.6380000000
  257      H       4.9270000000    -0.2870000000    -5.3320000000
  258      H       3.8220000000     0.2210000000    -4.0450000000
  259      C       4.7410000000    -4.3660000000    -4.7310000000
  260      O       4.2830000000    -4.7870000000    -5.8140000000
  261      N       4.8400000000    -5.1500000000    -3.6420000000
  262      H       5.2670000000    -4.7470000000    -2.8050000000
  263      C       4.2280000000    -6.4760000000    -3.4940000000
  264      H       3.6240000000    -6.6490000000    -4.3880000000
  265      C       5.2570000000    -7.5990000000    -3.2540000000
  266      H       4.8080000000    -8.5510000000    -3.5700000000
  267      H       5.4990000000    -7.7240000000    -2.1890000000
  268      C       6.6160000000    -7.3970000000    -3.9140000000
  269      H       7.2490000000    -8.2250000000    -3.5770000000
  270      H       7.0840000000    -6.4930000000    -3.5090000000
  271      C       6.6080000000    -7.2600000000    -5.4330000000
  272      H       6.1280000000    -6.3370000000    -5.7580000000
  273      H       7.6290000000    -7.2470000000    -5.8270000000
  274      N       5.9090000000    -8.3840000000    -6.0740000000
  275      H       6.2350000000    -9.3010000000    -5.7980000000
  276      C       4.7910000000    -8.3340000000    -6.7860000000
  277      N       4.0890000000    -7.2220000000    -6.9580000000
  278      H       4.2340000000    -6.3230000000    -6.4380000000
  279      H       3.3970000000    -7.1990000000    -7.6920000000
  280      N       4.3630000000    -9.4670000000    -7.4000000000
  281      H       4.8980000000   -10.3170000000    -7.3170000000
  282      H       3.3810000000    -9.5770000000    -7.6000000000
  283      C       3.3180000000    -6.3750000000    -2.2540000000
  284      O       3.5590000000    -5.5570000000    -1.3730000000
  285      N       2.2910000000    -7.2470000000    -2.1630000000
  286      H       2.0880000000    -7.8460000000    -2.9480000000
  287      C       1.3380000000    -7.1890000000    -1.0570000000
  288      H       1.8770000000    -6.7840000000    -0.1990000000
  289      C       0.1310000000    -6.3200000000    -1.3950000000
  290      H      -0.4820000000    -6.1420000000    -0.5060000000
  291      H      -0.4980000000    -6.7880000000    -2.1600000000
  292      H       0.4620000000    -5.3500000000    -1.7730000000
  293      H       1.0360000000    -8.2110000000    -0.8090000000
  294      H      -8.2310000000    -6.8850000000     7.6990000000
  295      C      -7.3000000000    -7.3640000000     7.3760000000
  296      H      -7.3060000000    -8.3950000000     7.7440000000
  297      C      -7.1640000000    -7.3280000000     5.8520000000
  298      H      -7.9980000000    -7.8760000000     5.3970000000
  299      H      -6.2460000000    -7.8460000000     5.5490000000
  300      C      -7.1410000000    -5.9040000000     5.2970000000
  301      H      -6.2660000000    -5.3630000000     5.6770000000
  302      H      -8.0380000000    -5.3570000000     5.6140000000
  303      S      -7.0830000000    -5.9340000000     3.4770000000
  304      C      -7.1080000000    -4.1550000000     3.1360000000
  305      H      -7.9920000000    -3.6880000000     3.5810000000
  306      H      -6.1940000000    -3.6740000000     3.4910000000
  307      H      -7.1700000000    -4.0250000000     2.0540000000
  308      H      -6.4690000000    -6.8380000000     7.8590000000
  309      H      -1.9340000000    -7.2530000000     6.4180000000
  310      C      -1.1750000000    -7.5160000000     5.6730000000
  311      H      -0.8940000000    -8.5630000000     5.8280000000
  312      C      -1.7050000000    -7.2950000000     4.2480000000
  313      H      -0.9370000000    -7.5990000000     3.5260000000
  314      H      -2.5670000000    -7.9550000000     4.0810000000
  315      C      -2.1160000000    -5.8650000000     3.9710000000
  316      C      -1.3780000000    -5.0460000000     3.1130000000
  317      H      -0.4860000000    -5.4440000000     2.6310000000
  318      C      -1.7710000000    -3.7320000000     2.8580000000
  319      H      -1.1910000000    -3.1110000000     2.1810000000
  320      C      -2.9010000000    -3.2100000000     3.4760000000
  321      H      -3.2180000000    -2.1880000000     3.2980000000
  322      C      -3.6300000000    -4.0070000000     4.3560000000
  323      H      -4.4830000000    -3.5780000000     4.8730000000
  324      C      -3.2490000000    -5.3240000000     4.5880000000
  325      H      -3.8370000000    -5.9450000000     5.2610000000
  326      H      -0.2960000000    -6.8910000000     5.8590000000
  327      H       3.2000000000    -4.5440000000     2.6640000000
  328      C       3.5460000000    -4.4460000000     1.6310000000
  329      H       3.2630000000    -5.3430000000     1.0710000000
  330      C       2.9060000000    -3.2080000000     0.9680000000
  331      H       3.4210000000    -3.0390000000     0.0130000000
  332      C       1.4320000000    -3.4720000000     0.6690000000
  333      H       0.8880000000    -3.6960000000     1.5950000000
  334      H       1.3230000000    -4.3210000000    -0.0120000000
  335      H       0.9610000000    -2.5970000000     0.2030000000
  336      C       3.0620000000    -1.9580000000     1.8330000000
  337      H       2.5340000000    -2.0810000000     2.7880000000
  338      H       2.6430000000    -1.0810000000     1.3290000000
  339      H       4.1090000000    -1.7440000000     2.0570000000
  340      C       5.0780000000    -4.3320000000     1.6740000000
  341      O       5.6700000000    -3.9050000000     2.6640000000
  342      N       5.7140000000    -4.7040000000     0.5300000000
  343      H       5.1420000000    -5.0230000000    -0.2450000000
  344      C       7.1550000000    -4.7010000000     0.3300000000
  345      H       7.6080000000    -4.3570000000     1.2640000000
  346      C       7.6660000000    -6.0940000000    -0.1030000000
  347      H       8.7580000000    -6.0380000000    -0.2110000000
  348      H       7.2680000000    -6.2970000000    -1.1040000000
  349      C       7.2820000000    -7.2880000000     0.7580000000
  350      H       6.2260000000    -7.1980000000     1.0480000000
  351      H       7.8710000000    -7.3400000000     1.6790000000
  352      C       7.4340000000    -8.6330000000    -0.0340000000
  353      O       7.0490000000    -8.5890000000    -1.2420000000
  354      O       7.8850000000    -9.6010000000     0.5910000000
  355      C       7.4880000000    -3.7750000000    -0.8500000000
  356      O       6.7970000000    -3.7910000000    -1.8730000000
  357      N       8.6050000000    -3.0180000000    -0.7570000000
  358      H       9.2410000000    -3.1390000000     0.0190000000
  359      C       9.0170000000    -2.0900000000    -1.7980000000
  360      H       9.1710000000    -2.6440000000    -2.7350000000
  361      C       7.9450000000    -1.0100000000    -2.0580000000
  362      H       7.0610000000    -1.5200000000    -2.4440000000
  363      H       8.2920000000    -0.3680000000    -2.8780000000
  364      C       7.5390000000    -0.1440000000    -0.8540000000
  365      H       8.3980000000     0.0850000000    -0.2140000000
  366      H       7.1440000000     0.8160000000    -1.2020000000
  367      S       6.2350000000    -0.9010000000     0.1910000000
  368      C       7.1120000000    -1.1510000000     1.7560000000
  369      H       8.0890000000    -1.6010000000     1.5640000000
  370      H       7.2400000000    -0.2090000000     2.2970000000
  371      H       6.5230000000    -1.8520000000     2.3540000000
  372      C      10.4180000000    -1.5300000000    -1.4070000000
  373      O      11.2020000000    -2.2400000000    -0.7910000000
  374      N      10.7360000000    -0.2780000000    -1.8440000000
  375      H      10.0170000000     0.3300000000    -2.2080000000
  376      C      12.0530000000     0.3420000000    -1.6910000000
  377      H      12.6470000000    -0.3580000000    -1.0950000000
  378      C      12.7320000000     0.5590000000    -3.0590000000
  379      H      12.0860000000     1.2400000000    -3.6300000000
  380      C      14.1020000000     1.2220000000    -2.8910000000
  381      H      14.7600000000     0.6040000000    -2.2670000000
  382      H      14.5860000000     1.3430000000    -3.8660000000
  383      H      14.0260000000     2.2100000000    -2.4280000000
  384      C      12.8560000000    -0.7640000000    -3.8160000000
  385      H      13.4690000000    -1.4790000000    -3.2540000000
  386      H      11.8770000000    -1.2230000000    -3.9850000000
  387      H      13.3280000000    -0.6040000000    -4.7910000000
  388      C      11.8890000000     1.6960000000    -0.9610000000
  389      O      11.0900000000     2.5200000000    -1.3870000000
  390      N      12.7250000000     1.9300000000     0.0880000000
  391      H      13.1670000000     1.1260000000     0.5080000000
  392      C      12.6950000000     3.1690000000     0.8760000000
  393      H      12.5990000000     3.9980000000     0.1690000000
  394      C      11.5390000000     3.2120000000     1.8880000000
  395      H      10.6280000000     2.8990000000     1.3620000000
  396      H      11.7230000000     2.4840000000     2.6840000000
  397      C      11.3390000000     4.5790000000     2.4570000000
  398      C      11.5910000000     5.0110000000     3.7270000000
  399      H      11.9650000000     4.4590000000     4.5800000000
  400      N      11.2850000000     6.3530000000     3.8380000000
  401      H      11.3250000000     6.8890000000     4.6880000000
  402      C      10.8090000000     6.8080000000     2.6290000000
  403      C      10.3560000000     8.0720000000     2.2450000000
  404      H      10.3350000000     8.9040000000     2.9430000000
  405      C       9.9240000000     8.2220000000     0.9370000000
  406      H       9.5590000000     9.1900000000     0.6060000000
  407      C       9.9390000000     7.1450000000     0.0300000000
  408      H       9.5820000000     7.3000000000    -0.9830000000
  409      C      10.3890000000     5.8940000000     0.4140000000
  410      H      10.3920000000     5.0600000000    -0.2840000000
  411      C      10.8350000000     5.7170000000     1.7330000000
  412      H      13.6590000000     3.2690000000     1.3810000000
  413      H      12.8530000000    -1.9660000000     3.0060000000
  414      C      11.9170000000    -2.5070000000     2.8340000000
  415      H      11.9010000000    -3.3860000000     3.4860000000
  416      C      10.7140000000    -1.6190000000     3.1310000000
  417      H       9.7800000000    -2.1800000000     3.0390000000
  418      H      10.7710000000    -1.2180000000     4.1470000000
  419      S      10.7160000000    -0.2260000000     1.9460000000
  420      H       9.8470000000     0.5700000000     2.5910000000
  421      H      11.9040000000    -2.8500000000     1.7940000000
  422      H       6.2890000000    -2.9550000000     5.3840000000
  423      C       5.6690000000    -2.2780000000     5.9800000000
  424      H       6.2960000000    -1.8360000000     6.7630000000
  425      C       5.0230000000    -1.2270000000     5.0850000000
  426      H       4.5370000000    -1.7470000000     4.2530000000
  427      H       5.8030000000    -0.5950000000     4.6330000000
  428      C       4.0000000000    -0.3180000000     5.7790000000
  429      H       3.1940000000    -0.9560000000     6.1740000000
  430      C       4.6080000000     0.4540000000     6.9520000000
  431      H       4.9660000000    -0.2150000000     7.7440000000
  432      H       5.4580000000     1.0620000000     6.6140000000
  433      H       3.8700000000     1.1320000000     7.3930000000
  434      C       3.3850000000     0.6480000000     4.7660000000
  435      H       2.9360000000     0.1040000000     3.9280000000
  436      H       4.1590000000     1.3080000000     4.3530000000
  437      H       2.6120000000     1.2790000000     5.2180000000
  438      H       4.9030000000    -2.8850000000     6.4780000000
  439      H       0.4570000000    -3.0100000000     7.4050000000
  440      C      -0.4720000000    -2.4640000000     7.6120000000
  441      H      -0.2080000000    -1.5710000000     8.1920000000
  442      C      -1.1910000000    -2.0840000000     6.3160000000
  443      H      -1.4150000000    -3.0130000000     5.7760000000
  444      C      -2.5160000000    -1.3830000000     6.6190000000
  445      H      -3.0690000000    -1.1400000000     5.7070000000
  446      H      -3.1650000000    -2.0150000000     7.2380000000
  447      H      -2.3380000000    -0.4490000000     7.1690000000
  448      C      -0.3090000000    -1.2180000000     5.4110000000
  449      H      -0.8120000000    -1.0240000000     4.4550000000
  450      H       0.6460000000    -1.7110000000     5.1920000000
  451      H      -0.0910000000    -0.2480000000     5.8760000000
  452      H      -1.1040000000    -3.1000000000     8.2420000000
  453      H      -6.7040000000    -2.9420000000     6.1020000000
  454      C      -6.8870000000    -1.8990000000     6.3810000000
  455      H      -5.9550000000    -1.4920000000     6.7820000000
  456      C      -7.3470000000    -1.0890000000     5.1750000000
  457      H      -8.2470000000    -1.5120000000     4.7160000000
  458      H      -7.5900000000    -0.0570000000     5.4580000000
  459      C      -6.2660000000    -0.9900000000     4.1290000000
  460      O      -5.0780000000    -1.0850000000     4.3720000000
  461      O      -6.7380000000    -0.7830000000     2.9080000000
  462      H      -5.9610000000    -0.6690000000     2.3010000000
  463      H      -7.6450000000    -1.8870000000     7.1700000000
  464      H     -12.5200000000    -0.7790000000     5.8640000000
  465      C     -13.2390000000    -1.2310000000     5.1710000000
  466      H     -13.6650000000    -0.4250000000     4.5630000000
  467      C     -12.5690000000    -2.2860000000     4.2940000000
  468      H     -13.3130000000    -2.7450000000     3.6310000000
  469      H     -12.1700000000    -3.0920000000     4.9220000000
  470      C     -11.4410000000    -1.7020000000     3.4470000000
  471      H     -10.6750000000    -1.2530000000     4.0910000000
  472      H     -11.8260000000    -0.9110000000     2.7920000000
  473      S     -10.6940000000    -3.0100000000     2.4250000000
  474      C      -9.5540000000    -2.0260000000     1.4160000000
  475      H      -8.7670000000    -1.5680000000     2.0200000000
  476      H      -9.0940000000    -2.7130000000     0.7020000000
  477      H     -10.0920000000    -1.2550000000     0.8570000000
  478      H     -14.0480000000    -1.6680000000     5.7660000000
  479      H     -12.1750000000     3.1030000000     3.7210000000
  480      C     -11.2310000000     2.5760000000     3.9010000000
  481      H     -11.4500000000     1.6870000000     4.5050000000
  482      C     -10.5560000000     2.1860000000     2.5840000000
  483      H     -11.2290000000     1.5340000000     2.0090000000
  484      H     -10.3810000000     3.0720000000     1.9650000000
  485      C      -9.2290000000     1.4470000000     2.7640000000
  486      H      -9.3500000000     0.6110000000     3.4630000000
  487      H      -8.9070000000     1.0190000000     1.8110000000
  488      S      -7.8440000000     2.4770000000     3.3800000000
  489      C      -6.8570000000     2.6200000000     1.8590000000
  490      H      -7.4000000000     3.1890000000     1.1010000000
  491      H      -6.6220000000     1.6220000000     1.4760000000
  492      H      -5.9110000000     3.1250000000     2.0860000000
  493      H     -10.5830000000     3.2350000000     4.4900000000
  494      H      -5.9040000000     2.9420000000     6.4800000000
  495      C      -5.1180000000     2.1810000000     6.5260000000
  496      H      -5.5870000000     1.2320000000     6.8130000000
  497      C      -4.4030000000     2.0540000000     5.1830000000
  498      H      -3.6520000000     1.2560000000     5.2090000000
  499      H      -3.9030000000     2.9850000000     4.9050000000
  500      H      -5.1090000000     1.8090000000     4.3850000000
  501      H      -4.4240000000     2.4650000000     7.3270000000
  502      H      -0.8030000000     2.6700000000    10.0190000000
  503      C       0.1940000000     2.2380000000     9.8810000000
  504      H       0.4090000000     1.5810000000    10.7310000000
  505      C       0.2650000000     1.4750000000     8.5520000000
  506      H       1.2510000000     1.0010000000     8.4540000000
  507      H      -0.4660000000     0.6570000000     8.5690000000
  508      C      -0.0030000000     2.3470000000     7.3630000000
  509      C      -1.1860000000     2.4500000000     6.6750000000
  510      H      -2.1090000000     1.9070000000     6.8260000000
  511      N      -1.0920000000     3.3890000000     5.6840000000
  512      H      -1.7880000000     3.6580000000     4.9760000000
  513      C       0.1700000000     3.9110000000     5.6980000000
  514      C       0.7350000000     4.8740000000     4.8540000000
  515      H       0.1420000000     5.3090000000     4.0550000000
  516      C       2.0520000000     5.2280000000     5.0930000000
  517      H       2.5300000000     5.9680000000     4.4570000000
  518      C       2.7900000000     4.6360000000     6.1400000000
  519      H       3.8220000000     4.9380000000     6.2960000000
  520      C       2.2240000000     3.6800000000     6.9660000000
  521      H       2.8040000000     3.2350000000     7.7710000000
  522      C       0.8910000000     3.2920000000     6.7480000000
  523      H       0.9160000000     3.0630000000     9.8940000000
  524      H       8.5560000000     0.3800000000     9.6340000000
  525      C       8.6440000000     0.0410000000     8.5960000000
  526      H       7.6290000000    -0.1200000000     8.2170000000
  527      C       9.4080000000     1.0630000000     7.7520000000
  528      H      10.3600000000     1.2940000000     8.2480000000
  529      H       8.8420000000     2.0050000000     7.7160000000
  530      C       9.7080000000     0.6120000000     6.3140000000
  531      H      10.2570000000    -0.3410000000     6.3780000000
  532      C       8.4300000000     0.3680000000     5.5080000000
  533      H       7.8280000000     1.2840000000     5.4460000000
  534      H       8.6560000000     0.0510000000     4.4830000000
  535      H       7.8070000000    -0.4120000000     5.9530000000
  536      C      10.6070000000     1.6280000000     5.6040000000
  537      H      10.0840000000     2.5830000000     5.4630000000
  538      H      11.5200000000     1.8240000000     6.1790000000
  539      H      10.9090000000     1.2680000000     4.6130000000
  540      H       9.1570000000    -0.9280000000     8.6000000000
 ----------------------------------------------------------------
 Nuclear Repulsion Energy =       90609.50783776 hartrees
 There are      901 alpha and      901 beta electrons
 Requested basis set is 6-31G(d)
 There are 1543 shells and 4077 basis functions

 Total QAlloc Memory Limit  12000 MB
 Mega-Array Size      3911 MB
 MEM_STATIC part      4000 MB

 A cutoff of  1.0D-14 yielded 189565 shell pairs
 There are   1255166 function pairs
 Smallest overlap matrix eigenvalue = 3.54E-04

 Scale SEOQF with 1.000000e-02/1.000000e-02/1.000000e-02

 Standard Electronic Orientation quadrupole field applied
 Nucleus-field energy     =     0.0000002040 hartrees
 Guess from superposition of atomic densities
 Warning:  Energy on first SCF cycle will be non-variational
 SAD guess density has 1801.000005 electrons

 -----------------------------------------------------------------------
  General SCF calculation program by
  Eric Jon Sundstrom, Paul Horn, Yuezhi Mao, Dmitri Zuev, Alec White,
  David Stuck, Shaama M.S., Shane Yost, Joonho Lee, David Small,
  Daniel Levine, Susi Lehtola, Hugh Burton, Evgeny Epifanovsky,
  Bang C. Huynh
 -----------------------------------------------------------------------
=================================================
        Doing projection-based embedding         
      F. Manby et al. JCTC, 8, 2564 (2012)       
=================================================

****************************************************
   Low-level SCF calculation for the whole system   
****************************************************
----------------------------------------------
 Summary of the low-level theory: 
 Exchange:     0.1670 Hartree-Fock + 1.0000 wB97X-V + LR-HF
 Correlation:  1.0000 wB97X-V
 Using Euler-Maclaurin-Lebedev (75,302) quadrature formula
 Nonlocal Correlation:  VV10 with C = 0.0100 and b = 6.00 and scale = 1.00000
 Grid used for NLC:  SG-1 standard quadrature
----------------------------------------------
 using 8 threads for integral computing
 -------------------------------------------------------
 OpenMP Integral computing Module                
 Release: version 1.0, May 2013, Q-Chem Inc. Pittsburgh 
 -------------------------------------------------------
 A restricted SCF calculation will be
 performed using DIIS
 SCF converges when DIIS error is below 1.0e-08
 ---------------------------------------
  Cycle       Energy         DIIS error
 ---------------------------------------
    1  -11967.6840025756      1.22e-02  
    2  -11899.5212641507      1.19e-03  
    3  -11899.5606548995      1.34e-03  
    4  -11902.1838742070      1.87e-04  
    5  -11902.2370168532      8.50e-05  
    6  -11902.2490312482      2.16e-05  
    7  -11902.2498758813      6.37e-06  
    8  -11902.2499744404      2.76e-06  
    9  -11902.2499931596      1.11e-06  
   10  -11902.2499972830      4.24e-07  
   11  -11902.2499978869      1.64e-07  
   12  -11902.2499980056      6.16e-08  
   13  -11902.2499980217      2.75e-08  
   14  -11902.2499980263      1.39e-08  
   15  -11902.2499980275      5.45e-09  Convergence criterion met
 ---------------------------------------
 SCF time:   CPU 198167.62s  wall 25117.00s 
 SCF   energy in the final basis set =   -11902.2499980275
 Total energy in the final basis set =   -11902.2499980275

****************************************************
             Start embedding calculation            
****************************************************
----------------------------------------------
 Summary of the high-level theory: 
 Exchange:     0.1670 Hartree-Fock + 1.0000 wB97X-V + LR-HF
 Correlation:  1.0000 wB97X-V
 Using Euler-Maclaurin-Lebedev (75,302) quadrature formula
 Nonlocal Correlation:  VV10 with C = 0.0100 and b = 6.00 and scale = 1.00000
 Grid used for NLC:  SG-1 standard quadrature
----------------------------------------------
Doing R-in-R Embedding Calculation
Number of fragments: 2
Embedded fragment(s): 1 
NOcc for each fragment
           75
          826
NBasis for each fragment
          352
         3725
Variational space of the embedded problem: 
NOcc (active)  = 75
NOcc (fixed)   = 826
NVir (total)   = 3176
Read converged orbitals from disk
=========================================================
       Doing SPADE partition for the orbital space       
     D. Claudino and N. Mayhall JCTC 15, 1053 (2019)     
=========================================================
SPADE singular values:
 1.0000 1.0000 1.0000 1.0000 1.0000 1.0000 1.0000 1.0000 1.0000 1.0000
 1.0000 1.0000 1.0000 1.0000 1.0000 1.0000 1.0000 1.0000 1.0000 1.0000
 1.0000 1.0000 1.0000 1.0000 1.0000 1.0000 1.0000 1.0000 1.0000 1.0000
 1.0000 1.0000 1.0000 1.0000 1.0000 1.0000 1.0000 1.0000 1.0000 1.0000
 1.0000 1.0000 1.0000 1.0000 1.0000 0.9999 0.9999 0.9999 0.9999 0.9999
 0.9998 0.9998 0.9997 0.9997 0.9996 0.9996 0.9994 0.9994 0.9992 0.9991
 0.9990 0.9988 0.9986 0.9985 0.9983 0.9982 0.9981 0.9981 0.9977 0.9976
 0.9975 0.9968 0.9957 0.9740 0.9665 0.1584 0.1041 0.0979 0.0931 0.0840
 0.0808 0.0793 0.0753 0.0702 0.0699 0.0659 0.0615 0.0600 0.0560 0.0545
 0.0456 0.0419 0.0366 0.0351 0.0336 0.0331 0.0300 0.0299 0.0271 0.0259
 0.0232 0.0214 0.0205 0.0187 0.0173 0.0164 0.0151 0.0139 0.0134 0.0127
 0.0111 0.0109 0.0106 0.0102 0.0098 0.0090 0.0087 0.0080 0.0074 0.0072
 0.0069 0.0064 0.0060 0.0057 0.0054 0.0051 0.0050 0.0048 0.0047 0.0040
 0.0037 0.0036 0.0033 0.0031 0.0031 0.0030 0.0029 0.0027 0.0026 0.0026
 0.0024 0.0024 0.0023 0.0021 0.0020 0.0020 0.0019 0.0018 0.0017 0.0017
 0.0016 0.0016 0.0014 0.0014 0.0013 0.0013 0.0012 0.0012 0.0011 0.0011
 0.0010 0.0010 0.0010 0.0010 0.0009 0.0009 0.0009 0.0008 0.0008 0.0008
 0.0008 0.0008 0.0007 0.0007 0.0007 0.0007 0.0006 0.0006 0.0006 0.0006
 0.0006 0.0006 0.0005 0.0005 0.0005 0.0005 0.0005 0.0005 0.0005 0.0004
 0.0004 0.0004 0.0004 0.0004 0.0004 0.0004 0.0004 0.0004 0.0004 0.0004
 0.0003 0.0003 0.0003 0.0003 0.0003 0.0003 0.0003 0.0003 0.0003 0.0003
 0.0003 0.0003 0.0002 0.0002 0.0002 0.0002 0.0002 0.0002 0.0002 0.0002
 0.0002 0.0002 0.0002 0.0002 0.0002 0.0002 0.0002 0.0002 0.0002 0.0002
 0.0002 0.0001 0.0001 0.0001 0.0001 0.0001 0.0001 0.0001 0.0001 0.0001
 0.0001 0.0001 0.0001 0.0001 0.0001 0.0001 0.0001 0.0001 0.0001 0.0001
 0.0001 0.0001 0.0001 0.0001 0.0001 0.0001 0.0001 0.0001 0.0001 0.0001
 0.0001 0.0001 0.0001 0.0001 0.0001 0.0001 0.0001 0.0001 0.0001 0.0000
 0.0000 0.0000 0.0000 0.0000 0.0000 0.0000 0.0000 0.0000 0.0000 0.0000
 0.0000 0.0000 0.0000 0.0000 0.0000 0.0000 0.0000 0.0000 0.0000 0.0000
 0.0000 0.0000 0.0000 0.0000 0.0000 0.0000 0.0000 0.0000 0.0000 0.0000
 0.0000 0.0000 0.0000 0.0000 0.0000 0.0000 0.0000 0.0000 0.0000 0.0000
 0.0000 0.0000 0.0000 0.0000 0.0000 0.0000 0.0000 0.0000 0.0000 0.0000
 0.0000 0.0000 0.0000 0.0000 0.0000 0.0000 0.0000 0.0000 0.0000 0.0000
 0.0000 0.0000 0.0000 0.0000 0.0000 0.0000 0.0000 0.0000 0.0000 0.0000
 0.0000 0.0000 0.0000 0.0000 0.0000 0.0000 0.0000 0.0000 0.0000 0.0000
 0.0000 0.0000
Early stop requested; no embedded SCF will be performed

 826 environment occs will be part of frozen-core in future post-HF calculations
 
 --------------------------------------------------------------
 
                    Orbital Energies (a.u.)
 --------------------------------------------------------------
 
 Alpha MOs
 -- Occupied --
-88.8310 -88.8110 -88.8073 -88.8063 -88.7869 -19.2156 -19.2144 -19.2027
-19.1862 -19.1825 -19.1788 -19.1786 -19.1677 -19.1676 -19.1642 -19.1614
-19.1583 -19.1563 -19.1538 -19.1470 -19.1457 -19.1230 -19.0898 -19.0718
-19.0653 -19.0302 -19.0209 -14.5019 -14.4969 -14.4769 -14.4328 -14.4241
-14.4226 -14.4199 -14.4199 -14.4154 -14.4151 -14.4124 -14.4096 -14.4086
-14.3998 -14.3982 -14.3723 -14.3636 -14.3536 -10.4657 -10.3631 -10.3622
-10.3616 -10.3570 -10.3529 -10.3499 -10.3493 -10.3480 -10.3411 -10.3377
-10.3370 -10.3336 -10.3174 -10.3109 -10.3072 -10.3064 -10.3008 -10.2974
-10.2937 -10.2903 -10.2903 -10.2885 -10.2866 -10.2832 -10.2791 -10.2773
-10.2737 -10.2733 -10.2682 -10.2667 -10.2647 -10.2619 -10.2604 -10.2602
-10.2593 -10.2576 -10.2572 -10.2567 -10.2552 -10.2532 -10.2532 -10.2531
-10.2530 -10.2520 -10.2517 -10.2516 -10.2509 -10.2504 -10.2461 -10.2449
-10.2446 -10.2443 -10.2439 -10.2437 -10.2434 -10.2423 -10.2421 -10.2420
-10.2417 -10.2413 -10.2413 -10.2413 -10.2389 -10.2388 -10.2388 -10.2385
-10.2383 -10.2375 -10.2374 -10.2373 -10.2366 -10.2361 -10.2361 -10.2356
-10.2355 -10.2354 -10.2353 -10.2350 -10.2348 -10.2344 -10.2343 -10.2334
-10.2333 -10.2330 -10.2316 -10.2312 -10.2306 -10.2299 -10.2298 -10.2297
-10.2293 -10.2293 -10.2288 -10.2285 -10.2278 -10.2274 -10.2270 -10.2267
-10.2266 -10.2265 -10.2263 -10.2261 -10.2255 -10.2249 -10.2246 -10.2245
-10.2233 -10.2232 -10.2232 -10.2229 -10.2226 -10.2223 -10.2213 -10.2211
-10.2210 -10.2204 -10.2197 -10.2195 -10.2190 -10.2185 -10.2181 -10.2178
-10.2175 -10.2173 -10.2170 -10.2170 -10.2161 -10.2150 -10.2136 -10.2132
-10.2125 -10.2109 -10.2109 -10.2106 -10.2098 -10.2088 -10.2062 -10.2061
-10.2055 -10.2047 -10.2030 -10.2025 -10.2020 -10.2019 -10.2011 -10.1990
-10.1982 -10.1982 -10.1974 -10.1955 -10.1948 -10.1944 -10.1944 -10.1939
-10.1911 -10.1898 -10.1889 -10.1874 -10.1863 -10.1862 -10.1771 -10.1741
-10.1604  -7.9984  -7.9772  -7.9739  -7.9711  -7.9526  -5.9562  -5.9522
 -5.9451  -5.9352  -5.9318  -5.9311  -5.9293  -5.9276  -5.9251  -5.9236
 -5.9204  -5.9177  -5.9106  -5.9064  -5.8992  -1.1881  -1.1685  -1.1509
 -1.1500  -1.1386  -1.1385  -1.1376  -1.1365  -1.1326  -1.1286  -1.1253
 -1.1208  -1.1193  -1.1172  -1.1135  -1.1133  -1.0858  -1.0768  -1.0714
 -1.0673  -1.0607  -1.0576  -1.0460  -1.0323  -1.0252  -1.0241  -1.0236
 -1.0223  -1.0211  -1.0136  -1.0111  -1.0093  -1.0069  -1.0061  -0.9912
 -0.9844  -0.9781  -0.9775  -0.9553  -0.9534  -0.9504  -0.9350  -0.9346
 -0.9331  -0.9244  -0.9175  -0.9125  -0.9113  -0.9067  -0.9065  -0.9005
 -0.8995  -0.8976  -0.8973  -0.8965  -0.8938  -0.8934  -0.8926  -0.8915
 -0.8912  -0.8909  -0.8859  -0.8850  -0.8810  -0.8750  -0.8749  -0.8718
 -0.8699  -0.8646  -0.8634  -0.8590  -0.8580  -0.8558  -0.8553  -0.8507
 -0.8488  -0.8455  -0.8428  -0.8410  -0.8403  -0.8389  -0.8365  -0.8324
 -0.8243  -0.8233  -0.8212  -0.8205  -0.8177  -0.8160  -0.8155  -0.8147
 -0.8135  -0.8119  -0.8104  -0.8085  -0.8072  -0.8059  -0.8047  -0.8025
 -0.8004  -0.7953  -0.7944  -0.7935  -0.7909  -0.7904  -0.7885  -0.7876
 -0.7871  -0.7823  -0.7823  -0.7791  -0.7777  -0.7767  -0.7738  -0.7726
 -0.7712  -0.7701  -0.7665  -0.7655  -0.7610  -0.7609  -0.7587  -0.7580
 -0.7566  -0.7488  -0.7450  -0.7446  -0.7412  -0.7410  -0.7360  -0.7355
 -0.7341  -0.7326  -0.7316  -0.7308  -0.7294  -0.7279  -0.7241  -0.7190
 -0.7142  -0.7134  -0.7085  -0.7068  -0.7042  -0.7039  -0.7037  -0.6993
 -0.6990  -0.6945  -0.6909  -0.6865  -0.6852  -0.6841  -0.6827  -0.6820
 -0.6819  -0.6812  -0.6758  -0.6757  -0.6730  -0.6726  -0.6713  -0.6697
 -0.6679  -0.6670  -0.6665  -0.6661  -0.6643  -0.6629  -0.6621  -0.6589
 -0.6569  -0.6568  -0.6561  -0.6547  -0.6537  -0.6536  -0.6518  -0.6508
 -0.6504  -0.6480  -0.6451  -0.6442  -0.6433  -0.6422  -0.6402  -0.6387
 -0.6383  -0.6354  -0.6333  -0.6323  -0.6319  -0.6300  -0.6298  -0.6296
 -0.6284  -0.6248  -0.6244  -0.6239  -0.6206  -0.6190  -0.6158  -0.6148
 -0.6119  -0.6088  -0.6063  -0.6033  -0.6024  -0.6004  -0.5983  -0.5920
 -0.5913  -0.5912  -0.5906  -0.5904  -0.5842  -0.5783  -0.5763  -0.5732
 -0.5709  -0.5704  -0.5701  -0.5662  -0.5662  -0.5646  -0.5626  -0.5613
 -0.5592  -0.5582  -0.5571  -0.5563  -0.5531  -0.5495  -0.5494  -0.5482
 -0.5475  -0.5464  -0.5446  -0.5439  -0.5428  -0.5421  -0.5414  -0.5399
 -0.5397  -0.5377  -0.5373  -0.5362  -0.5351  -0.5344  -0.5330  -0.5311
 -0.5301  -0.5296  -0.5283  -0.5280  -0.5277  -0.5271  -0.5269  -0.5266
 -0.5251  -0.5248  -0.5223  -0.5215  -0.5213  -0.5192  -0.5180  -0.5176
 -0.5173  -0.5167  -0.5157  -0.5155  -0.5148  -0.5129  -0.5127  -0.5122
 -0.5119  -0.5110  -0.5104  -0.5095  -0.5083  -0.5076  -0.5066  -0.5062
 -0.5055  -0.5051  -0.5046  -0.5034  -0.5022  -0.5018  -0.5013  -0.5009
 -0.4999  -0.4996  -0.4993  -0.4985  -0.4976  -0.4962  -0.4960  -0.4956
 -0.4950  -0.4949  -0.4940  -0.4934  -0.4931  -0.4916  -0.4912  -0.4909
 -0.4905  -0.4902  -0.4894  -0.4887  -0.4867  -0.4866  -0.4851  -0.4843
 -0.4840  -0.4832  -0.4827  -0.4822  -0.4821  -0.4817  -0.4811  -0.4807
 -0.4804  -0.4791  -0.4787  -0.4775  -0.4769  -0.4765  -0.4758  -0.4753
 -0.4744  -0.4728  -0.4727  -0.4726  -0.4722  -0.4699  -0.4697  -0.4695
 -0.4693  -0.4690  -0.4683  -0.4676  -0.4671  -0.4662  -0.4649  -0.4645
 -0.4641  -0.4636  -0.4634  -0.4633  -0.4629  -0.4622  -0.4617  -0.4611
 -0.4610  -0.4607  -0.4601  -0.4596  -0.4594  -0.4585  -0.4580  -0.4577
 -0.4568  -0.4558  -0.4556  -0.4546  -0.4542  -0.4540  -0.4537  -0.4525
 -0.4524  -0.4521  -0.4517  -0.4511  -0.4508  -0.4505  -0.4501  -0.4489
 -0.4482  -0.4475  -0.4469  -0.4463  -0.4452  -0.4450  -0.4447  -0.4438
 -0.4434  -0.4428  -0.4424  -0.4423  -0.4415  -0.4413  -0.4412  -0.4396
 -0.4392  -0.4391  -0.4381  -0.4370  -0.4367  -0.4360  -0.4354  -0.4353
 -0.4334  -0.4324  -0.4316  -0.4307  -0.4303  -0.4291  -0.4286  -0.4284
 -0.4262  -0.4257  -0.4249  -0.4244  -0.4240  -0.4228  -0.4220  -0.4215
 -0.4210  -0.4208  -0.4200  -0.4198  -0.4191  -0.4185  -0.4182  -0.4181
 -0.4179  -0.4168  -0.4155  -0.4152  -0.4148  -0.4146  -0.4136  -0.4133
 -0.4132  -0.4127  -0.4120  -0.4108  -0.4106  -0.4100  -0.4090  -0.4082
 -0.4079  -0.4076  -0.4072  -0.4067  -0.4059  -0.4054  -0.4051  -0.4046
 -0.4042  -0.4038  -0.4033  -0.4025  -0.4014  -0.4008  -0.4003  -0.3993
 -0.3986  -0.3977  -0.3967  -0.3963  -0.3962  -0.3959  -0.3957  -0.3946
 -0.3940  -0.3936  -0.3916  -0.3910  -0.3904  -0.3898  -0.3886  -0.3883
 -0.3875  -0.3872  -0.3870  -0.3868  -0.3860  -0.3848  -0.3838  -0.3836
 -0.3834  -0.3827  -0.3822  -0.3818  -0.3816  -0.3801  -0.3788  -0.3786
 -0.3780  -0.3778  -0.3774  -0.3769  -0.3768  -0.3763  -0.3759  -0.3749
 -0.3744  -0.3744  -0.3742  -0.3735  -0.3731  -0.3724  -0.3723  -0.3721
 -0.3716  -0.3708  -0.3701  -0.3682  -0.3672  -0.3665  -0.3650  -0.3642
 -0.3632  -0.3627  -0.3625  -0.3623  -0.3616  -0.3611  -0.3598  -0.3584
 -0.3554  -0.3553  -0.3546  -0.3504  -0.3496  -0.3486  -0.3480  -0.3471
 -0.3463  -0.3457  -0.3442  -0.3433  -0.3413  -0.3412  -0.3407  -0.3386
 -0.3381  -0.3377  -0.3357  -0.3350  -0.3341  -0.3332  -0.3327  -0.3322
 -0.3297  -0.3275  -0.3269  -0.3239  -0.3225  -0.3197  -0.3197  -0.3179
 -0.3176  -0.3141  -0.3118  -0.3115  -0.3092  -0.3090  -0.3067  -0.3055
 -0.3045  -0.3030  -0.3026  -0.2981  -0.2978  -0.2920  -0.2884  -0.2874
 -0.2867  -0.2814  -0.2778  -0.2751  -0.2713  -0.2710  -0.2692  -0.2663
 -0.2630  -0.2615  -0.2591  -0.2569  -0.2524  -0.2490  -0.2422  -0.2413
 -0.2392  -0.2381  -0.2366  -0.2335  -0.2250  -0.2232  -0.2030  -0.2002
 -0.1985  -0.1836 -11.8513 -10.5178 -10.3018 -10.5685 -10.6459 -10.3395
-10.6465 -12.5780 -11.3709 -10.0391  -9.7936  -9.8939  -9.5714  -9.7850
 -8.4605  -2.3523  -9.6092  -9.3036  -9.8077  -5.4770  -3.0756  -3.3213
 -1.5816  -1.3165  -1.7470  -1.1899  -1.4176  -4.4698 -11.0579  -2.9161
 -0.8874  -1.1108  -0.8834  -0.7313  -0.7813  -0.7399  -0.6906  -0.7658
 -0.6529  -0.6889  -0.6749  -1.2838  -0.6015  -0.5751  -1.0490  -0.4921
 -0.7986  -0.5254  -0.4671  -0.4481  -0.4775  -0.4761  -0.5308  -0.5382
 -1.5925  -0.5063  -0.4378  -0.4454  -0.5035  -0.4486  -0.4648  -0.4702
 -0.4489  -0.4094  -0.4503  -0.4445  -0.3518  -0.4409  -0.4331  -0.4153
 -0.4400  -0.3806  -0.3879  -0.4775  -0.5728
 -- Virtual --
  0.0764   0.0878   0.1108   0.1192   0.1201   0.1209   0.1288   0.1332
  0.1334   0.1369   0.1380   0.1386   0.1402   0.1403   0.1410   0.1434
  0.1441   0.1472   0.1490   0.1542   0.1558   0.1560   0.1579   0.1613
  0.1625   0.1631   0.1637   0.1667   0.1685   0.1701   0.1727   0.1731
  0.1757   0.1765   0.1772   0.1801   0.1808   0.1840   0.1843   0.1865
  0.1877   0.1887   0.1892   0.1903   0.1926   0.1934   0.1941   0.1985
  0.2007   0.2025   0.2041   0.2049   0.2055   0.2061   0.2088   0.2098
  0.2110   0.2115   0.2132   0.2140   0.2154   0.2161   0.2175   0.2178
  0.2194   0.2202   0.2212   0.2217   0.2232   0.2248   0.2255   0.2260
  0.2264   0.2286   0.2297   0.2306   0.2312   0.2319   0.2322   0.2339
  0.2362   0.2366   0.2376   0.2382   0.2392   0.2399   0.2407   0.2413
  0.2421   0.2426   0.2435   0.2451   0.2456   0.2463   0.2469   0.2477
  0.2482   0.2486   0.2491   0.2497   0.2504   0.2508   0.2521   0.2528
  0.2536   0.2539   0.2547   0.2552   0.2555   0.2569   0.2576   0.2579
  0.2582   0.2593   0.2597   0.2602   0.2613   0.2618   0.2638   0.2643
  0.2649   0.2652   0.2655   0.2657   0.2664   0.2668   0.2675   0.2680
  0.2687   0.2700   0.2702   0.2709   0.2719   0.2721   0.2726   0.2734
  0.2743   0.2747   0.2749   0.2760   0.2769   0.2776   0.2781   0.2782
  0.2791   0.2794   0.2800   0.2802   0.2814   0.2821   0.2824   0.2831
  0.2835   0.2838   0.2846   0.2850   0.2858   0.2868   0.2874   0.2874
  0.2878   0.2884   0.2889   0.2895   0.2904   0.2904   0.2906   0.2909
  0.2912   0.2918   0.2923   0.2934   0.2943   0.2943   0.2950   0.2957
  0.2961   0.2966   0.2973   0.2979   0.2985   0.2989   0.2994   0.3005
  0.3006   0.3008   0.3016   0.3020   0.3028   0.3033   0.3037   0.3041
  0.3045   0.3054   0.3059   0.3061   0.3070   0.3077   0.3083   0.3092
  0.3093   0.3097   0.3106   0.3109   0.3113   0.3116   0.3119   0.3124
  0.3127   0.3129   0.3140   0.3143   0.3146   0.3150   0.3158   0.3160
  0.3163   0.3168   0.3172   0.3178   0.3180   0.3187   0.3189   0.3192
  0.3195   0.3203   0.3206   0.3208   0.3214   0.3220   0.3224   0.3228
  0.3233   0.3236   0.3238   0.3251   0.3259   0.3260   0.3264   0.3268
  0.3270   0.3275   0.3276   0.3278   0.3283   0.3285   0.3296   0.3299
  0.3301   0.3305   0.3311   0.3313   0.3318   0.3326   0.3331   0.3336
[...]
    3  -0.0117549   0.0148288  -0.0285496   0.0048116   0.0131447   0.0031020
          163         164         165         166         167         168
    1  -0.0271504  -0.0103092   0.0027280  -0.0043925   0.0206999  -0.0043203
    2  -0.0094200   0.0298852  -0.0061657  -0.0086906   0.0296317  -0.0041222
    3  -0.0151305   0.0098579   0.0080717   0.0045015  -0.0031368  -0.0017446
          169         170         171         172         173         174
    1   0.0260247   0.0024396   0.0098255   0.0078253  -0.0186821   0.0081122
    2   0.0073085  -0.0014226  -0.0240586   0.0059256  -0.0284168   0.0012906
    3   0.0279229   0.0026868   0.0326769   0.0016923   0.0069392   0.0065326
          175         176         177         178         179         180
    1  -0.0277364   0.0026336   0.1014906  -0.0015828  -0.0376863   0.0100022
    2  -0.0083147   0.0096470   0.0044787   0.0047404  -0.0008114  -0.0164656
    3  -0.0203734   0.0045631  -0.0128946  -0.0146264   0.0209098  -0.0032612
          181         182         183         184         185         186
    1   0.0174900  -0.0007073  -0.0179307   0.0138146  -0.0016303   0.0052404
    2  -0.0118627  -0.0003710   0.0138747  -0.0257116  -0.0008940  -0.0056402
    3   0.0299306  -0.0007048  -0.0249691  -0.0161539   0.0059586   0.0050622
          187         188         189         190         191         192
    1  -0.0145085   0.0055258  -0.0332457   0.0166485  -0.0709386   0.0106860
    2   0.0262914   0.0000936   0.0171611   0.0116303   0.0460551  -0.0361582
    3  -0.0224276  -0.0027960   0.0084449  -0.0265303   0.0400589   0.0122759
          193         194         195         196         197         198
    1   0.0030828   0.0165119  -0.0042934   0.0333087   0.0246705  -0.0322116
    2   0.0066837  -0.0262083   0.0051450  -0.0167005   0.0062497  -0.0050903
    3  -0.0057478   0.0166453   0.0009646  -0.0078722  -0.0233959  -0.0114465
          199         200         201         202         203         204
    1  -0.0004627   0.0220351   0.0014570   0.0304752  -0.0054382  -0.0008533
    2   0.0006387   0.0056488   0.0005075   0.0142799  -0.0138410   0.0002533
    3  -0.0012182  -0.0254841   0.0035023   0.0044594   0.0307730  -0.0024830
          205         206         207         208         209         210
    1   0.0083152  -0.0287726   0.0077887   0.0263235  -0.0157143  -0.0045491
    2   0.0210553  -0.0181633   0.0044364   0.1090771   0.0062693  -0.0450022
    3  -0.0258012  -0.0071200  -0.0114480  -0.0069290  -0.0092818   0.0030476
          211         212         213         214         215         216
    1  -0.0011224   0.0061055   0.0979627  -0.0066365  -0.0410146   0.0103952
    2   0.0255113   0.0071930  -0.0370103  -0.0068715   0.0166917  -0.0075861
    3   0.0378223  -0.0063655  -0.0285349  -0.0093574   0.0038944   0.0132648
          217         218         219         220         221         222
    1  -0.0228206   0.0289202   0.0046561   0.0732279   0.0022534  -0.0268365
    2  -0.0052914   0.0117139   0.0024395  -0.0551883  -0.0037727   0.0298262
    3   0.0290951   0.0162153   0.0109043   0.0703693   0.0055049  -0.0202114
          223         224         225         226         227         228
    1   0.0038523   0.0246196  -0.0015101  -0.0199580   0.0107211   0.0016198
    2  -0.0166698  -0.0141087  -0.0033362   0.0104204  -0.0278205   0.0008404
    3  -0.0041482   0.0241970   0.0033065  -0.0238282  -0.0151474   0.0020971
          229         230         231         232         233         234
    1  -0.0073294   0.0045324  -0.0172593  -0.0191013   0.0075031   0.0014275
    2   0.0316714   0.0013616  -0.0038023   0.0126347  -0.0300245   0.0027121
    3   0.0134455   0.0011737   0.0280434  -0.0231990  -0.0096613   0.0011334
          235         236         237         238         239         240
    1   0.0146692   0.0266708  -0.0149463  -0.0030693   0.0079965  -0.0106079
    2  -0.0287015   0.0219343  -0.0045032  -0.0096463  -0.0901059   0.0018570
    3  -0.0068570   0.0126871   0.0313111   0.0032824  -0.0656857   0.0013891
          241         242         243         244         245         246
    1   0.0039326   0.0061758  -0.0201970   0.0031956   0.0304320   0.0110421
    2   0.0331300   0.0001210  -0.0161038   0.0342809  -0.0163319   0.0096338
    3   0.0303718  -0.0147056  -0.0219281  -0.0057746  -0.0012227  -0.0303382
          247         248         249         250         251         252
    1   0.0015817   0.0261353  -0.0036208  -0.0262633   0.0015303  -0.0131856
    2   0.0063247   0.0025751   0.0040211  -0.0023334   0.0013576  -0.0297455
    3   0.0030786   0.0245281   0.0024918  -0.0212395   0.0018674   0.0082608
          253         254         255         256         257         258
    1   0.0238844  -0.0226174  -0.0028306   0.0237956   0.0094957  -0.0214425
    2   0.0025459   0.0244735   0.0020911   0.0097783   0.0098003   0.0276941
    3   0.0257848   0.0122868   0.0031331   0.0221476  -0.0292986   0.0110165
          259         260         261         262         263         264
    1   0.0018618  -0.0366913   0.0087839   0.0199240  -0.0026518  -0.0195924
    2   0.0123426  -0.0143735   0.0035019   0.0195175  -0.0146859  -0.0024296
    3  -0.0022059  -0.0923452   0.0026118   0.0369080   0.0021323  -0.0302335
          265         266         267         268         269         270
    1   0.0065649  -0.0108079   0.0153091   0.0027445   0.0193616   0.0149816
    2  -0.0025697  -0.0314440  -0.0106537  -0.0012813  -0.0221132   0.0257337
    3   0.0119183  -0.0030279   0.0327212   0.0079596   0.0228122   0.0177124
          271         272         273         274         275         276
    1   0.0109062  -0.0107949   0.0330391   0.0138266   0.0165863   0.0015168
    2   0.0199498   0.0349807   0.0034102   0.0090341  -0.0391517   0.0052773
    3   0.0163043  -0.0067508  -0.0102239  -0.0008470   0.0159266   0.0046690
          277         278         279         280         281         282
    1  -0.0012776   0.0038838  -0.0303467   0.0065060   0.0233277  -0.0437563
    2   0.0225822   0.0391032   0.0063712   0.0030283  -0.0394435  -0.0069699
    3   0.0124401   0.0182160  -0.0331899  -0.0260789   0.0004872  -0.0098514
          283         284         285         286         287         288
    1   0.0093458   0.0188030   0.0066477  -0.0085656  -0.0098923   0.0185956
    2   0.0070600   0.0744122  -0.0011027  -0.0276338   0.0032074   0.0137914
    3  -0.0027357   0.0772312   0.0102606  -0.0338520   0.0176964   0.0272313
          289         290         291         292         293         294
    1   0.0020092  -0.0185116  -0.0209964   0.0092802  -0.0081424  -0.0277442
    2   0.0030427   0.0081675  -0.0112402   0.0317657  -0.0316364   0.0137224
    3  -0.0001874   0.0264917  -0.0233688  -0.0117062   0.0115800   0.0114510
          295         296         297         298         299         300
    1   0.0002665  -0.0000160  -0.0001588  -0.0249694   0.0280371  -0.0007052
    2   0.0002964  -0.0306681  -0.0030550  -0.0174807  -0.0170928  -0.0009798
    3   0.0000449   0.0124824   0.0004775  -0.0144845  -0.0098767   0.0136511
          301         302         303         304         305         306
    1   0.0277746  -0.0280119   0.0019216  -0.0018499  -0.0316152   0.0299274
    2   0.0165222   0.0165084  -0.0366883   0.0107646   0.0107868   0.0095982
    3   0.0117878   0.0092497  -0.0249652   0.0009510   0.0132442   0.0135320
          307         308         309         310         311         312
    1  -0.0053868   0.0249750  -0.0205903   0.0013042   0.0098367   0.0012168
    2   0.0020540   0.0151519   0.0087675   0.0014801  -0.0310321  -0.0005727
    3  -0.0319583   0.0165897   0.0236464   0.0006144   0.0058863   0.0000904
          313         314         315         316         317         318
    1   0.0236228  -0.0253489   0.0001788  -0.0056012   0.0323113  -0.0017185
    2  -0.0100856  -0.0205412   0.0060436   0.0030740  -0.0123165  -0.0036238
    3  -0.0217912  -0.0062571   0.0001548   0.0038790  -0.0154107   0.0066234
          319         320         321         322         323         324
    1   0.0245111   0.0066977  -0.0054357   0.0085995  -0.0251085   0.0061389
    2   0.0233908  -0.0045128   0.0369048  -0.0025111   0.0171349   0.0051767
    3  -0.0227704   0.0046180   0.0022341  -0.0009606   0.0215266  -0.0045118
          325         326         327         328         329         330
    1  -0.0197522   0.0272198  -0.0087882  -0.0015434  -0.0085428   0.0015988
    2  -0.0218540   0.0194547  -0.0022480   0.0019968  -0.0263186   0.0046557
    3   0.0233482   0.0068996   0.0336941  -0.0003603  -0.0182470  -0.0025294
          331         332         333         334         335         336
    1   0.0162632   0.0052911  -0.0154548  -0.0009567  -0.0134469   0.0006487
    2   0.0075159   0.0016126  -0.0040371  -0.0233904   0.0300408   0.0013823
    3  -0.0297684   0.0009310   0.0277888  -0.0211353  -0.0139865  -0.0010574
          337         338         339         340         341         342
    1  -0.0157034  -0.0121056   0.0315279  -0.0077535   0.0478071  -0.0045362
    2   0.0004369   0.0325894   0.0093578   0.0052472   0.0360319   0.0002557
    3   0.0300412  -0.0151161   0.0075226   0.0077694   0.0902359   0.0013194
          343         344         345         346         347         348
    1  -0.0264601   0.0157156   0.0104413  -0.0033588   0.0332202  -0.0099084
    2  -0.0118792  -0.0061176   0.0099951  -0.0080439  -0.0037204  -0.0154426
    3  -0.0336407   0.0007461   0.0339385  -0.0019413  -0.0045446  -0.0297322
          349         350         351         352         353         354
    1   0.0028690  -0.0315771   0.0176775   0.0024006  -0.0250938   0.0376982
    2  -0.0100470   0.0013217  -0.0075337  -0.0054348  -0.0036494  -0.0803480
    3  -0.0014327   0.0103005   0.0276265   0.0010877  -0.0883751   0.0522452
          355         356         357         358         359         360
    1  -0.0095898  -0.0569490  -0.0063991   0.0316871  -0.0010597   0.0019107
    2  -0.0097593   0.0005350   0.0001315  -0.0054345   0.0130543  -0.0198964
    3   0.0067100  -0.0858828   0.0031030   0.0331329  -0.0127648  -0.0289345
          361         362         363         364         365         366
    1  -0.0067219  -0.0283602   0.0039502   0.0061319   0.0252773  -0.0145848
    2  -0.0018101  -0.0185474   0.0190844   0.0059001   0.0071764   0.0262304
    3   0.0001055  -0.0094819  -0.0281706  -0.0040510   0.0223940  -0.0090859
          367         368         369         370         371         372
    1  -0.0464975   0.0030063   0.0295753  -0.0003986  -0.0180335  -0.0031549
    2  -0.0094297  -0.0042712  -0.0130808   0.0299075  -0.0237821  -0.0098169
    3  -0.0117494   0.0136144  -0.0060068   0.0169430   0.0192669   0.0056571
          373         374         375         376         377         378
    1   0.0703484   0.0019292  -0.0318428   0.0187610   0.0171073  -0.0002890
    2  -0.0657707  -0.0044250   0.0285196   0.0042827  -0.0266802   0.0001332
    3   0.0547778  -0.0036125  -0.0145937   0.0008121   0.0191727  -0.0021225
          379         380         381         382         383         384
    1  -0.0200872  -0.0012901   0.0215837   0.0152983  -0.0013100  -0.0007331
    2   0.0219583   0.0001868  -0.0175576   0.0044505   0.0301566   0.0004100
    3  -0.0173136   0.0001444   0.0182386  -0.0283144   0.0142377   0.0012640
          385         386         387         388         389         390
    1   0.0173190  -0.0290013   0.0137133  -0.0062898  -0.0733848   0.0099982
    2  -0.0234933  -0.0144180   0.0032896  -0.0035631   0.0730829   0.0079977
    3   0.0160227  -0.0046429  -0.0295536  -0.0080691  -0.0400382  -0.0113912
          391         392         393         394         395         396
    1   0.0178757  -0.0032057  -0.0036304  -0.0010816  -0.0283309   0.0034013
    2  -0.0364199   0.0173887   0.0266055  -0.0033615  -0.0097342  -0.0245791
    3   0.0200534   0.0081818  -0.0215780  -0.0003262  -0.0160862   0.0243214
          397         398         399         400         401         402
    1   0.0003916  -0.0008334   0.0122874   0.0033161   0.0013101  -0.0077472
    2   0.0034127  -0.0170016  -0.0210396  -0.0011423   0.0244754   0.0027854
    3   0.0044891  -0.0150564   0.0289092  -0.0049095   0.0389031  -0.0212483
          403         404         405         406         407         408
    1  -0.0025548  -0.0018784   0.0024336  -0.0128316   0.0026904  -0.0124991
    2  -0.0024187   0.0294325  -0.0073114   0.0324454  -0.0030555   0.0049813
    3  -0.0096503   0.0226456   0.0029111  -0.0110068   0.0069251  -0.0343128
          409         410         411         412         413         414
    1  -0.0015809  -0.0005633  -0.0014948   0.0304333   0.0288019   0.0023789
    2   0.0071849  -0.0287861   0.0005827   0.0069571   0.0152849  -0.0024811
    3   0.0008662  -0.0245860  -0.0014973   0.0164020   0.0046953  -0.0023557
          415         416         417         418         419         420
    1   0.0010250  -0.0007905  -0.0306683   0.0006206   0.0208957  -0.0362751
    2  -0.0277523  -0.0126510  -0.0172283   0.0118772   0.0038476   0.0324297
    3   0.0182061   0.0111697  -0.0017576   0.0315655  -0.0358954   0.0246810
          421         422         423         424         425         426
    1   0.0007504   0.0157882  -0.0011085   0.0179670  -0.0040691  -0.0138902
    2  -0.0108202  -0.0213783   0.0006620   0.0126966   0.0019712  -0.0152954
    3  -0.0325716  -0.0201397  -0.0026631   0.0236567  -0.0014959  -0.0270208
          427         428         429         430         431         432
    1   0.0217080  -0.0003713  -0.0261073  -0.0032885   0.0093380   0.0241187
    2   0.0191969  -0.0003146  -0.0181373  -0.0006240  -0.0191171   0.0194477
    3  -0.0160401  -0.0027133   0.0107424  -0.0042485   0.0224421  -0.0109984
          433         434         435         436         437         438
    1  -0.0232113  -0.0020122  -0.0167857   0.0195038  -0.0262159  -0.0227249
    2   0.0213779   0.0008171  -0.0128268   0.0238743   0.0235210  -0.0188129
    3   0.0109152   0.0005733  -0.0284292  -0.0155329   0.0103927   0.0136902
          439         440         441         442         443         444
    1   0.0280138  -0.0007817   0.0090960   0.0006292  -0.0063437   0.0040205
    2  -0.0148571   0.0034270   0.0277581   0.0004577  -0.0269794   0.0015837
    3  -0.0064584  -0.0043616   0.0163131  -0.0017240  -0.0179647  -0.0039621
          445         446         447         448         449         450
    1  -0.0170270  -0.0189503   0.0059157  -0.0010899  -0.0130386   0.0303602
    2   0.0104350  -0.0173004   0.0301458   0.0032821   0.0119545  -0.0112949
    3  -0.0268432   0.0180760   0.0144479   0.0016876  -0.0293767  -0.0083009
          451         452         453         454         455         456
    1   0.0072962  -0.0181641   0.0069932   0.0036839   0.0313887  -0.0032331
    2   0.0349599  -0.0184052  -0.0325196  -0.0001153   0.0123051  -0.0004349
    3   0.0103130   0.0189506  -0.0041167   0.0050311   0.0126859   0.0073696
          457         458         459         460         461         462
    1  -0.0309845  -0.0087434   0.0035591   0.1113695  -0.1095793   0.0055241
    2  -0.0135558   0.0346933  -0.0036801  -0.0057656   0.0056139   0.0041308
    3  -0.0100198   0.0122117   0.0323944   0.0350082  -0.0155162   0.0137899
          463         464         465         466         467         468
    1  -0.0217955   0.0199444  -0.0001039  -0.0138872  -0.0025759  -0.0224805
    2   0.0000354   0.0147219   0.0002290   0.0252839  -0.0016744  -0.0151005
    3   0.0270424   0.0220160   0.0000198  -0.0168317   0.0010210  -0.0199366
          469         470         471         472         473         474
    1   0.0110858  -0.0071736   0.0226028  -0.0126027  -0.0106904   0.0067406
    2  -0.0257851   0.0087505   0.0136496   0.0247426  -0.0432222   0.0069095
    3   0.0191187   0.0079453   0.0198580  -0.0205044   0.0017288  -0.0062024
          475         476         477         478         479         480
    1   0.0198869   0.0114070  -0.0203539  -0.0247437  -0.0280728   0.0019026
    2   0.0131515  -0.0213563   0.0237991  -0.0119207   0.0166397   0.0013632
    3   0.0200178  -0.0245953  -0.0188795   0.0184965  -0.0041862  -0.0004798
          481         482         483         484         485         486
    1  -0.0079484  -0.0000900  -0.0221451   0.0063514  -0.0120331  -0.0040840
    2  -0.0256575   0.0039946  -0.0168180   0.0276298  -0.0036223  -0.0242928
    3   0.0203337  -0.0011062  -0.0195546  -0.0203208  -0.0036832   0.0227023
          487         488         489         490         491         492
    1   0.0050887   0.0068485   0.0110589  -0.0176941   0.0050005   0.0368968
    2  -0.0096254   0.0188694   0.0113769   0.0244216  -0.0148631   0.0212159
    3  -0.0280487   0.0429628  -0.0095155  -0.0226398  -0.0076698   0.0049038
          493         494         495         496         497         498
    1   0.0200245  -0.0222755   0.0026670  -0.0115374   0.0064805   0.0278571
    2   0.0210591   0.0237071   0.0014053  -0.0272859   0.0031096  -0.0243997
    3   0.0172636  -0.0024363  -0.0016784   0.0091528  -0.0040285  -0.0055060
          499         500         501         502         503         504
    1   0.0218052  -0.0147388   0.0220743  -0.0292194  -0.0003177   0.0064861
    2   0.0286355  -0.0034150   0.0098580   0.0138853   0.0005186  -0.0193821
    3  -0.0155650  -0.0231525   0.0232631   0.0024446  -0.0033404   0.0251579
          505         506         507         508         509         510
    1  -0.0001629   0.0297172  -0.0201371  -0.0045229   0.0119560  -0.0306429
    2  -0.0007485  -0.0158511  -0.0248144   0.0017937  -0.0087926  -0.0191742
    3  -0.0008973  -0.0059490  -0.0020319  -0.0067804   0.0090729   0.0015871
          511         512         513         514         515         516
    1  -0.0100295  -0.0262644   0.0174543   0.0051052  -0.0237232  -0.0067522
    2   0.0032637   0.0106733   0.0018886  -0.0037538   0.0098509  -0.0090050
    3  -0.0138562  -0.0410337  -0.0032501  -0.0013816  -0.0304900   0.0015825
          517         518         519         520         521         522
    1   0.0142253  -0.0096518   0.0335059  -0.0025165   0.0195845  -0.0003842
    2   0.0227159  -0.0054749   0.0086824   0.0046530  -0.0149988  -0.0005379
    3  -0.0231469  -0.0022770   0.0038700  -0.0106700   0.0250487  -0.0045059
          523         524         525         526         527         528
    1   0.0204744  -0.0037302  -0.0012024  -0.0310400  -0.0003892   0.0280765
    2   0.0253698   0.0090789   0.0004060  -0.0047623  -0.0003731   0.0081265
    3  -0.0011561   0.0305912  -0.0015941  -0.0107196  -0.0029951   0.0151565
          529         530         531         532         533         534
    1  -0.0173645  -0.0016719   0.0156737  -0.0004835  -0.0208100   0.0027313
    2   0.0287630   0.0000827  -0.0291936  -0.0003326   0.0264507  -0.0107197
    3  -0.0006379   0.0019763   0.0027057   0.0022848  -0.0028466  -0.0304289
          535         536         537         538         539         540
    1  -0.0207335  -0.0032969  -0.0161795   0.0270552   0.0098867   0.0138064
    2  -0.0230886  -0.0022446   0.0285103   0.0057033  -0.0093710  -0.0297506
    3   0.0113954   0.0012375  -0.0051852   0.0171510  -0.0290836   0.0007410
  --- DONE ESP SUMMARY ---
 Total job time:  39.07s(wall), 164.11s(cpu) 
 Tue Aug  6 20:06:18 2024

        *************************************************************
        *                                                           *
        *  Thank you very much for using Q-Chem.  Have a nice day.  *
        *                                                           *
        *************************************************************


