
Running Job 1 of 2 19nt_mm_min_distance_cutoff4_xtb_optimized_spade_wb97x-v_631gd.in
qchem 19nt_mm_min_distance_cutoff4_xtb_optimized_spade_wb97x-v_631gd.in_559002.0 ./qchem559002/ 1
srun -n 1 /cm/shared/apps/spack/0.17.3/cpu/b/opt/spack/linux-rocky8-zen2/gcc-10.2.0/qchem-6.0-rytxnwjazd34ekd2gqyi5ufsaimxsd3r/exe/qcprog.exe 19nt_mm_min_distance_cutoff4_xtb_optimized_spade_wb97x-v_631gd.in_559002.0 ./qchem559002/

                  Welcome to Q-Chem
     A Quantum Leap Into The Future Of Chemistry


 Q-Chem 6.0, Q-Chem, Inc., Pleasanton, CA (2022)

 License issued to: University of California, San Diego (site)

 E. Epifanovsky,  A. T. B. Gilbert,  Xintian Feng,  Joonho Lee,  Yuezhi Mao,  
 N. Mardirossian,  P. Pokhilko,  A. White,  M. Wormit,  M. P. Coons,  
 A. L. Dempwolff,  Zhengting Gan,  D. Hait,  P. R. Horn,  L. D. Jacobson,  
 I. Kaliman,  J. Kussmann,  A. W. Lange,  Ka Un Lao,  D. S. Levine,  Jie Liu,  
 S. C. McKenzie,  A. F. Morrison,  K. Nanda,  F. Plasser,  D. R. Rehn,  
 M. L. Vidal,  Zhi-Qiang You,  Ying Zhu,  B. Alam,  B. Albrecht,  
 A. Aldossary,  E. Alguire,  J. H. Andersen,  V. Athavale,  D. Barton,  
 K. Begam,  A. Behn,  N. Bellonzi,  Y. A. Bernard,  E. J. Berquist,  
 H. Burton,  A. Carreras,  K. Carter-Fenk,  Romit Chakraborty,  
 Chandrima Chakravarty,  Junhan Chen,  A. D. Chien,  K. D. Closser,  
 V. Cofer-Shabica,  L. Cunha,  S. Dasgupta,  Jia Deng,  M. de Wergifosse,  
 M. Diedenhofen,  Hainam Do,  S. Ehlert,  Po-Tung Fang,  S. Fatehi,  
 Qingguo Feng,  T. Friedhoff,  B. Ganoe,  J. Gayvert,  Qinghui Ge,  
 G. Gidofalvi,  M. Goldey,  J. Gomes,  C. Gonzalez-Espinoza,  S. Gulania,  
 A. Gunina,  J. A. Gyamfi,  M. W. D. Hanson-Heine,  P. H. P. Harbach,  
 A. W. Hauser,  M. F. Herbst,  M. Hernandez Vera,  M. Hodecker,  
 Z. C. Holden,  S. Houck,  Xunkun Huang,  Kerwin Hui,  B. C. Huynh,  
 K. Ikeda,  M. Ivanov,  Hyunjun Ji,  Zuxin Jin,  Hanjie Jiang,  B. Kaduk,  
 S. Kaehler,  R. Kang,  K. Khistyaev,  Jaehoon Kim,  Yongbin Kim,  
 P. Klunzinger,  Z. Koczor-Benda,  Joong Hoon Koh,  D. Kosenkov,  
 Saikiran Kotaru,  L. Koulias,  T. Kowalczyk,  C. M. Krauter,  K. Kue,  
 A. Kunitsa,  T. Kus,  A. Landau,  K. V. Lawler,  D. Lefrancois,  S. Lehtola,  
 Rain Li,  Shaozhi Li,  Yi-Pei Li,  Jiashu Liang,  M. Liebenthal,  
 Hung-Hsuan Lin,  You-Sheng Lin,  Fenglai Liu,  Kuan-Yu Liu,  
 M. Loipersberger,  A. Luenser,  C. Malbon,  A. Manjanath,  P. Manohar,  
 E. Mansoor,  S. F. Manzer,  Shan-Ping Mao,  A. V. Marenich,  T. Markovich,  
 S. Mason,  F. Matz,  S. A. Maurer,  P. F. McLaughlin,  M. F. S. J. Menger,  
 J.-M. Mewes,  S. A. Mewes,  P. Morgante,  Mohammad Mostafanejad,  
 J. W. Mullinax,  K. J. Oosterbaan,  G. Paran,  V. Parravicini,  
 Alexander C. Paul,  Suranjan K. Paul,  F. Pavosevic,  Zheng Pei,  S. Prager,  
 E. I. Proynov,  E. Ramos,  B. Rana,  A. E. Rask,  A. Rettig,  R. M. Richard,  
 F. Rob,  E. Rossomme,  T. Scheele,  M. Scheurer,  M. Schneider,  
 P. E. Schneider,  N. Sergueev,  S. M. Sharada,  Hengyuan Shen,  
 W. Skomorowski,  D. W. Small,  C. J. Stein,  Yingli Su,  Yu-Chuan Su,  
 E. J. Sundstrom,  Zhen Tao,  J. Thirman,  Hung-Yi Tsai,  T. Tsuchimochi,  
 N. M. Tubman,  C. Utku,  S. P. Veccham,  O. Vydrov,  J. Wenzel,  
 Jonathan Wong,  J. Witte,  A. Yamada,  Chou-Hsun Yang,  Kun Yao,  
 S. Yeganeh,  S. R. Yost,  A. Zech,  F. Zeller,  Igor Ying Zhang,  
 Xing Zhang,  Yu Zhang,  D. Zuev,  A. Aspuru-Guzik,  A. T. Bell,  
 N. A. Besley,  K. B. Bravaya,  B. R. Brooks,  D. Casanova,  Jeng-Da Chai,  
 Hsing-Ta Chen,  S. Coriani,  C. J. Cramer,  A. E. DePrince, III,  
 R. A. DiStasio Jr.,  A. Dreuw,  B. D. Dunietz,  T. R. Furlani,  
 W. A. Goddard III,  S. Grimme,  S. Hammes-Schiffer,  T. Head-Gordon,  
 W. J. Hehre,  Chao-Ping Hsu,  T.-C. Jagau,  Yousung Jung,  A. Klamt,  
 Jing Kong,  D. S. Lambrecht,  Xiangyuan Li,  WanZhen Liang,  N. J. Mayhall,  
 C. W. McCurdy,  J. B. Neaton,  T. Neudecker,  C. Ochsenfeld,  
 J. A. Parkhill,  R. Peverati,  V. A. Rassolov,  Haisheng Ren,  Yihan Shao,  
 L. V. Slipchenko,  R. P. Steele,  J. E. Subotnik,  A. J. W. Thom,  
 A. Tkatchenko,  D. G. Truhlar,  T. Van Voorhis,  Fan Wang,  
 T. A. Wesolowski,  K. B. Whaley,  H. L. Woodcock III,  P. M. Zimmerman,  
 S. Faraji,  P. M. W. Gill,  M. Head-Gordon,  J. M. Herbert,  A. I. Krylov

 Contributors to earlier versions of Q-Chem not listed above: 
 R. D. Adamson,  B. Austin,  R. Baer,  J. Baker,  G. J. O. Beran,  
 K. Brandhorst,  S. T. Brown,  E. F. C. Byrd,  Arup K. Chakraborty,  
 G. K. L. Chan,  Chun-Min Chang,  Yunqing Chen,  C.-L. Cheng,  
 Siu Hung Chien,  D. M. Chipman,  D. L. Crittenden,  H. Dachsel,  
 R. J. Doerksen,  A. D. Dutoi,  R. G. Edgar,  J. Fosso-Tande,  
 L. Fusti-Molnar,  D. Ghosh,  A. Ghysels,  A. Golubeva-Zadorozhnaya,  
 J. Gonthier,  M. S. Gordon,  S. R. Gwaltney,  G. Hawkins,  J. E. Herr,  
 A. Heyden,  S. Hirata,  E. G. Hohenstein,  G. Kedziora,  F. J. Keil,  
 C. Kelley,  Jihan Kim,  R. A. King,  R. Z. Khaliullin,  P. P. Korambath,  
 W. Kurlancheek,  A. Laurent,  A. M. Lee,  M. S. Lee,  S. V. Levchenko,  
 Ching Yeh Lin,  D. Liotard,  E. Livshits,  R. C. Lochan,  I. Lotan,  
 L. A. Martinez-Martinez,  P. E. Maslen,  N. Nair,  D. P. O'Neill,  
 D. Neuhauser,  E. Neuscamman,  C. M. Oana,  R. Olivares-Amaya,  R. Olson,  
 T. M. Perrine,  B. Peters,  P. A. Pieniazek,  A. Prociuk,  Y. M. Rhee,  
 J. Ritchie,  M. A. Rohrdanz,  E. Rosta,  N. J. Russ,  H. F. Schaefer III,  
 M. W. Schmidt,  N. E. Schultz,  S. Sharma,  N. Shenvi,  C. D. Sherrill,  
 A. C. Simmonett,  A. Sodt,  T. Stein,  D. Stuck,  K. S. Thanthiriwatte,  
 V. Vanovschi,  L. Vogt,  Tao Wang,  A. Warshel,  M. A. Watson,  
 C. F. Williams,  Q. Wu,  X. Xu,  Jun Yang,  W. Zhang,  Yan Zhao

   Please cite Q-Chem as follows:
  "Software for the frontiers of quantum chemistry:
   An overview of developments in the Q-Chem 5 package"
   J. Chem. Phys. 155, 084801 (2021)
   https://doi.org/10.1063/5.0055522 (open access)

 Q-Chem 6.0.2 for Intel X86 EM64T Linux

 Parts of Q-Chem use Armadillo 9.900.5 (Nocturnal Misbehaviour).
 http://arma.sourceforge.net/

 Q-Chem begins on Fri Aug  9 13:55:08 2024  

 Host: 
0

     Scratch files written to ./qchem559002//
 Dec722 |scratch|qcdevops|jenkins|workspace|build_RNUM    
 Processing $rem in /cm/shared/apps/spack/0.17.3/cpu/b/opt/spack/linux-rocky8-zen2/gcc-10.2.0/qchem-6.0-rytxnwjazd34ekd2gqyi5ufsaimxsd3r/config/preferences:
 Processing $rem in /home/hklem/.qchemrc:
 No nuclear gradient supported for projection-based embedding or EMFT. Set max ideriv = 0.

 Checking the input file for inconsistencies... 	...done.

--------------------------------------------------------------
User input:
--------------------------------------------------------------
$molecule
-1 1
--
0 1
C    2.76400    2.17500    -8.94900
O    2.40700    1.12100    -8.39000
C    2.95800    3.40100    -8.25500
C    3.24500    4.56700    -8.89000
C    3.58000    4.61100    -10.34700
C    3.97700    3.22400    -10.85200
C    2.92400    2.21100    -10.43900
C    3.09300    5.85300    -8.17800
C    4.07600    6.94300    -8.59300
C    4.18500    7.03800    -10.11200
C    4.64800    5.67800    -10.65900
C    5.18600    8.10600    -10.53000
C    5.38500    8.18800    -12.05100
C    5.92000    6.84700    -12.53900
C    4.95500    5.72200    -12.16200
C    4.92200    9.55900    -10.13100
C    5.83600    10.36500   -11.07300
C    6.39300    9.35400    -12.10800
C    4.12500    8.55900    -12.83900
O    6.62000    9.91800    -13.37200
H    2.76600    3.39600    -7.19100
H    2.65100    4.91200    -10.85800
H    4.94800    2.94200    -10.43400
H    4.05600    3.22100    -11.93800
H    1.95700    2.51800    -10.85000
H    3.15700    1.21500    -10.82200
H    3.12200    5.70400    -7.09800
H    2.07200    6.19900    -8.42000
H    5.06000    6.71700    -8.17200
H    3.75000    7.89600    -8.17600
H    3.19800    7.27600    -10.51600
H    5.57200    5.40300    -10.13300
H    6.15700    7.82100    -10.10500
H    6.89700    6.66000    -12.08500
H    6.05000    6.86700    -13.62300
H    4.02500    5.83000    -12.72000
H    5.41100    4.77900    -12.46300
H    5.15000    9.75000    -9.08400
H    3.87300    9.80900    -10.28700
H    6.64300    10.85400   -10.52600
H    5.28200    11.14700   -11.59500
H    7.37300    8.98500    -11.78600
H    3.81400    9.58200    -12.65000
H    4.32300    8.44300    -13.90400
H    3.29800    7.90400    -12.59000
H    5.75800    10.12900   -13.76100
--
-1 1
H    6.97900    -6.28700   -9.23900
C    6.28000    -5.48600   -9.47300
H    5.70600    -5.76900   -10.35100
C    5.34700    -5.21800   -8.29200
H    4.80100    -6.13400   -8.05000
H    5.93800    -4.93400   -7.41900
C    4.37800    -4.12200   -8.63300
C    3.25700    -4.39500   -9.40800
H    3.06500    -5.41000   -9.72500
C    2.38300    -3.39400   -9.77900
H    1.51800    -3.61500   -10.38400
C    2.61600    -2.08200   -9.37300
O    1.74700    -1.11500   -9.76800
H    1.96800    -0.27100   -9.29900
C    3.73200    -1.80000   -8.59400
H    3.91400    -0.78500   -8.27100
C    4.60100    -2.81200   -8.23500
H    5.46900    -2.57500   -7.63400
H    6.84700    -4.58900   -9.71300
H    8.56300    -1.72300   -13.66400
C    7.98900    -0.82300   -13.45400
H    7.27300    -0.67400   -14.25800
C    7.25800    -0.95100   -12.11700
H    8.00200    -1.13300   -11.33200
C    6.51100    0.33800    -11.78100
H    7.19300    1.18500    -11.76000
H    5.73900    0.53200    -12.52400
H    6.03400    0.25600    -10.80800
C    6.28300    -2.12700   -12.14500
H    5.78200    -2.23600   -11.18500
H    6.80400    -3.05600   -12.36700
H    5.52300    -1.96900   -12.90700
H    8.67100    0.02500    -13.43700
H    -3.63500   6.68500    -6.79600
C    -2.91100   6.63800    -7.60900
H    -2.69000   7.65300    -7.93800
C    -1.63200   5.94100    -7.15000
H    -1.86700   4.92900    -6.81400
H    -1.18400   6.50100    -6.32500
C    -0.62300   5.86200    -8.31100
O    0.22500    6.78200    -8.40400
O    -0.70900   4.90000    -9.09800
H    -3.35400   6.09400    -8.44100
H    0.55500    1.83400    -17.40700
C    0.68900    2.72800    -16.80200
H    -0.18700   2.84100    -16.16700
C    1.95100    2.61100    -15.94700
H    2.81200    2.49000    -16.60700
H    2.08200    3.52300    -15.36300
C    1.85200    1.42900    -15.02400
C    2.15200    0.14800    -15.47300
H    2.48300    0.00400    -16.49200
C    2.04200    -0.94700   -14.64000
H    2.28800    -1.93900   -14.98600
C    1.61000    -0.78200   -13.32600
O    1.52100    -1.87100   -12.52700
H    1.38200    -1.59000   -11.60400
C    1.27800    0.49100    -12.87900
H    0.91300    0.61300    -11.86900
C    1.40700    1.58200    -13.71800
H    1.16300    2.56800    -13.35200
H    0.74700    3.59100    -17.46400
H    2.33400    6.70000    -17.34900
C    2.94500    7.04100    -16.51900
H    2.54300    6.64000    -15.58700
H    2.93100    8.12500    -16.46300
C    4.39000    6.57200    -16.65600
O    5.31800    7.20900    -16.17700
N    4.59700    5.42200    -17.33100
H    3.79900    4.91300    -17.67900
C    5.90900    4.83800    -17.61900
H    6.63100    5.37600    -17.00300
C    5.93900    3.33900    -17.34300
H    5.19600    2.85400    -17.98300
H    6.92100    2.96300    -17.63900
C    5.67000    2.94600    -15.88500
H    4.71800    3.38400    -15.57100
C    5.57000    1.42600    -15.78400
H    5.28100    1.13000    -14.77900
H    4.82800    1.03200    -16.47300
H    6.53100    0.97100    -16.01900
C    6.76000    3.45600    -14.94900
H    7.73900    3.11400    -15.27800
H    6.76100    4.54100    -14.90900
H    6.59000    3.08000    -13.94300
H    6.15000    5.02000    -18.67300
H    11.29100   6.39100    -16.38500
C    11.18600   6.09500    -15.34300
H    11.57100   6.89800    -14.71700
C    9.72400    5.81500    -15.00100
H    9.37600    4.99700    -15.64300
C    9.60200    5.38500    -13.54200
H    10.19400   4.49200    -13.35300
H    9.95900    6.18000    -12.88900
H    8.56800    5.17100    -13.29000
C    8.85900    7.04600    -15.26200
H    9.06600    7.80700    -14.51500
H    9.05600    7.46100    -16.24700
H    7.80100    6.80300    -15.20300
H    11.79600   5.21000    -15.17400
H    9.41200    2.06400    -2.31600
C    10.13900   2.61100    -2.91200
H    11.10100   2.58000    -2.40400
C    10.24700   2.00100    -4.31100
H    10.98900   2.55600    -4.88900
H    10.58800   0.96700    -4.22500
C    8.91900    2.03900    -5.01800
C    8.59900    3.07800    -5.88100
H    9.32800    3.85700    -6.06300
C    7.36700    3.12400    -6.50900
H    7.13100    3.93700    -7.17800
C    6.43300    2.13000    -6.27700
H    5.46400    2.17000    -6.74900
C    6.74000    1.09200    -5.41600
H    6.01000    0.31700    -5.22900
C    7.97300    1.04700    -4.79200
H    8.21000    0.23100    -4.12100
H    9.81300    3.64700    -2.97700
H    10.93900   5.58800    -7.95500
C    10.76600   6.34300    -8.72000
H    11.44300   6.15600    -9.55000
C    9.31600    6.30000    -9.19100
H    9.19600    7.02600    -10.00300
C    8.97200    4.91500    -9.73200
H    9.06400    4.16400    -8.95000
H    9.64000    4.64900    -10.54800
H    7.95200    4.89500    -10.11000
C    8.37800    6.68000    -8.04900
H    8.50700    6.00300    -7.20700
H    7.34000    6.62900    -8.37200
H    8.57800    7.69200    -7.70500
H    11.00900   7.31700    -8.29700
H    12.72800   9.87500    -13.17200
C    12.32700   10.54400   -13.93100
H    12.87400   10.38400   -14.85700
C    10.84300   10.27600   -14.13500
H    10.71000   9.25800    -14.50200
H    10.43600   10.95400   -14.88800
C    10.04800   10.45500   -12.85300
H    10.27000   11.42000   -12.39400
H    8.97800    10.37600   -13.04400
S    10.47600   9.17000    -11.61500
C    9.91000    10.02600   -10.12000
H    10.44700   10.96600   -10.01400
H    8.84000    10.20200   -10.18400
H    10.13000   9.37800    -9.28000
H    12.49200   11.57100   -13.60700
H    10.26900   11.28600   -6.58500
C    9.68100    10.69300   -5.88700
H    9.72200    11.17900   -4.91500
C    8.24500    10.56200   -6.37900
H    8.25900    10.14300   -7.38800
H    7.78800    11.55200   -6.44300
C    7.37400    9.66700    -5.48900
H    7.91900    8.73400    -5.29900
C    7.07200    10.33300   -4.15000
H    7.98400    10.57300   -3.60900
H    6.50900    11.25000   -4.30600
H    6.47800    9.66700    -3.52700
C    6.07200    9.33000    -6.20900
H    6.27000    8.78300    -7.12700
H    5.52800    10.23900   -6.45900
H    5.42900    8.71900    -5.58200
H    10.14400   9.71200    -5.79800
H    6.93200    6.99200    -3.29300
C    6.17900    6.36400    -2.82100
H    5.29900    6.97300    -2.62500
C    5.81800    5.18800    -3.72600
H    6.72000    4.59000    -3.90600
C    4.77700    4.29100    -3.06200
H    4.51800    3.46800    -3.72400
H    5.16000    3.88100    -2.12800
H    3.87400    4.85800    -2.84300
C    5.29500    5.68600    -5.06900
H    5.00900    4.84100    -5.69000
H    6.05800    6.25900    -5.59100
H    4.42500    6.32600    -4.92500
H    6.57300    6.01200    -1.86900
H    2.94400    1.95800    -2.51900
C    2.24300    1.12700    -2.55200
H    1.25200    1.52500    -2.75700
C    2.65400    0.14000    -3.63900
H    3.62900    -0.29000   -3.39300
H    1.92700    -0.66700   -3.73500
C    2.79100    0.83300    -4.98100
O    3.48600    1.79900    -5.17400
O    2.06700    0.25100    -5.91900
H    2.20200    0.67700    -6.82000
H    2.22800    0.63800    -1.58100
H    -4.16800   -1.84300   -5.51300
C    -3.57400   -1.02100   -5.12100
H    -3.46600   -1.15000   -4.04500
C    -2.20500   -0.97700   -5.79200
H    -1.65500   -1.89500   -5.56700
H    -2.33100   -0.92600   -6.87600
C    -1.37000   0.21000    -5.32700
H    -1.41600   0.30600    -4.24200
H    -0.32900   0.10000    -5.63200
S    -1.94800   1.81600    -5.98500
C    -1.08500   1.84500    -7.57900
H    -1.51200   1.09900    -8.24300
H    -0.03000   1.64900    -7.41500
H    -1.20900   2.83700    -8.00600
H    -4.10300   -0.08800   -5.30300
H    -1.08500   4.18400    -4.35700
C    -0.11000   4.57800    -4.08200
H    0.14400    4.20600    -3.09000
C    0.93500    4.14800    -5.09900
H    1.92900    4.48600    -4.81000
H    0.69900    4.55100    -6.08100
H    0.95700    3.06400    -5.17200
H    -0.18300   5.66300    -4.02800
H    1.39000    9.80000    -2.19000
C    2.44400    10.03800   -2.31100
H    2.92000    10.02000   -1.33100
C    3.11200    9.03100    -3.25000
H    4.17600    9.27400    -3.32000
H    3.01800    8.02900    -2.82300
C    2.51900    9.02700    -4.62300
C    1.78500    8.02700    -5.20400
H    1.49500    7.08200    -4.78500
N    1.42800    8.35800    -6.47600
H    0.90300    7.77100    -7.13900
C    1.93900    9.58500    -6.75700
C    1.87200    10.33700   -7.92400
H    1.34300    9.95900    -8.78600
C    2.50000    11.56200   -7.93700
H    2.47100    12.17200   -8.82900
C    3.18000    12.03900   -6.81100
H    3.65800    13.00900   -6.86200
C    3.25200    11.30200   -5.65100
H    3.78600    11.68100   -4.79000
C    2.63300    10.05200   -5.60800
H    2.52000    11.04400   -2.71700
O    0.76400    5.76200    -11.10100
H    0.85700    6.62600    -10.68400
H    0.19800    5.28200    -10.42900
O    5.46400    9.88700    -16.84600
H    5.45000    8.95300    -16.57500
H    5.02300    10.38200   -16.13300
O    1.43100    5.53100    -13.76200
H    1.26800    5.62100    -12.80300
H    0.56900    5.33300    -14.13200
O    6.97100    12.56800   -14.47600
H    7.15200    12.17200   -13.61800
H    7.40500    11.95400   -15.11800
O    7.90700    10.53300   -15.91900
H    7.10700    10.32600   -16.45200
H    7.85900    9.92000    -15.17600
O    4.55000    11.49900   -14.77100
H    3.88600    12.13200   -15.04400
H    5.40000    12.00300   -14.69300
$end

$rem
JOBTYPE  SP
METHOD  WB97X-V
BASIS  6-31G(D)
SYMMETRY  FALSE
SYM_IGNORE  TRUE
MEM_TOTAL  64000
MEM_STATIC  4000
BASIS_LIN_DEP_THRESH  6
THRESH  14
SCF_CONVERGENCE  8
FD_MAT_VEC_PROD  FALSE
XC_GRID  000075000302
NL_GRID  1
MAX_SCF_CYCLES  200
ENV_METHOD  WB97X-V
GEN_SCFMAN_EMBED  TRUE
SPADE_PARTITION  TRUE
EMBEDDING_EARLY_STOP  TRUE
$end

--------------------------------------------------------------
 ----------------------------------------------------------------
             Standard Nuclear Orientation (Angstroms)
    I     Atom           X                Y                Z
 ----------------------------------------------------------------
    1      C       2.7640000000     2.1750000000    -8.9490000000
    2      O       2.4070000000     1.1210000000    -8.3900000000
    3      C       2.9580000000     3.4010000000    -8.2550000000
    4      C       3.2450000000     4.5670000000    -8.8900000000
    5      C       3.5800000000     4.6110000000   -10.3470000000
    6      C       3.9770000000     3.2240000000   -10.8520000000
    7      C       2.9240000000     2.2110000000   -10.4390000000
    8      C       3.0930000000     5.8530000000    -8.1780000000
    9      C       4.0760000000     6.9430000000    -8.5930000000
   10      C       4.1850000000     7.0380000000   -10.1120000000
   11      C       4.6480000000     5.6780000000   -10.6590000000
   12      C       5.1860000000     8.1060000000   -10.5300000000
   13      C       5.3850000000     8.1880000000   -12.0510000000
   14      C       5.9200000000     6.8470000000   -12.5390000000
   15      C       4.9550000000     5.7220000000   -12.1620000000
   16      C       4.9220000000     9.5590000000   -10.1310000000
   17      C       5.8360000000    10.3650000000   -11.0730000000
   18      C       6.3930000000     9.3540000000   -12.1080000000
   19      C       4.1250000000     8.5590000000   -12.8390000000
   20      O       6.6200000000     9.9180000000   -13.3720000000
   21      H       2.7660000000     3.3960000000    -7.1910000000
   22      H       2.6510000000     4.9120000000   -10.8580000000
   23      H       4.9480000000     2.9420000000   -10.4340000000
   24      H       4.0560000000     3.2210000000   -11.9380000000
   25      H       1.9570000000     2.5180000000   -10.8500000000
   26      H       3.1570000000     1.2150000000   -10.8220000000
   27      H       3.1220000000     5.7040000000    -7.0980000000
   28      H       2.0720000000     6.1990000000    -8.4200000000
   29      H       5.0600000000     6.7170000000    -8.1720000000
   30      H       3.7500000000     7.8960000000    -8.1760000000
   31      H       3.1980000000     7.2760000000   -10.5160000000
   32      H       5.5720000000     5.4030000000   -10.1330000000
   33      H       6.1570000000     7.8210000000   -10.1050000000
   34      H       6.8970000000     6.6600000000   -12.0850000000
   35      H       6.0500000000     6.8670000000   -13.6230000000
   36      H       4.0250000000     5.8300000000   -12.7200000000
   37      H       5.4110000000     4.7790000000   -12.4630000000
   38      H       5.1500000000     9.7500000000    -9.0840000000
   39      H       3.8730000000     9.8090000000   -10.2870000000
   40      H       6.6430000000    10.8540000000   -10.5260000000
   41      H       5.2820000000    11.1470000000   -11.5950000000
   42      H       7.3730000000     8.9850000000   -11.7860000000
   43      H       3.8140000000     9.5820000000   -12.6500000000
   44      H       4.3230000000     8.4430000000   -13.9040000000
   45      H       3.2980000000     7.9040000000   -12.5900000000
   46      H       5.7580000000    10.1290000000   -13.7610000000
   47      H       6.9790000000    -6.2870000000    -9.2390000000
   48      C       6.2800000000    -5.4860000000    -9.4730000000
   49      H       5.7060000000    -5.7690000000   -10.3510000000
   50      C       5.3470000000    -5.2180000000    -8.2920000000
   51      H       4.8010000000    -6.1340000000    -8.0500000000
   52      H       5.9380000000    -4.9340000000    -7.4190000000
   53      C       4.3780000000    -4.1220000000    -8.6330000000
   54      C       3.2570000000    -4.3950000000    -9.4080000000
   55      H       3.0650000000    -5.4100000000    -9.7250000000
   56      C       2.3830000000    -3.3940000000    -9.7790000000
   57      H       1.5180000000    -3.6150000000   -10.3840000000
   58      C       2.6160000000    -2.0820000000    -9.3730000000
   59      O       1.7470000000    -1.1150000000    -9.7680000000
   60      H       1.9680000000    -0.2710000000    -9.2990000000
   61      C       3.7320000000    -1.8000000000    -8.5940000000
   62      H       3.9140000000    -0.7850000000    -8.2710000000
   63      C       4.6010000000    -2.8120000000    -8.2350000000
   64      H       5.4690000000    -2.5750000000    -7.6340000000
   65      H       6.8470000000    -4.5890000000    -9.7130000000
   66      H       8.5630000000    -1.7230000000   -13.6640000000
   67      C       7.9890000000    -0.8230000000   -13.4540000000
   68      H       7.2730000000    -0.6740000000   -14.2580000000
   69      C       7.2580000000    -0.9510000000   -12.1170000000
   70      H       8.0020000000    -1.1330000000   -11.3320000000
   71      C       6.5110000000     0.3380000000   -11.7810000000
   72      H       7.1930000000     1.1850000000   -11.7600000000
   73      H       5.7390000000     0.5320000000   -12.5240000000
   74      H       6.0340000000     0.2560000000   -10.8080000000
   75      C       6.2830000000    -2.1270000000   -12.1450000000
   76      H       5.7820000000    -2.2360000000   -11.1850000000
   77      H       6.8040000000    -3.0560000000   -12.3670000000
   78      H       5.5230000000    -1.9690000000   -12.9070000000
   79      H       8.6710000000     0.0250000000   -13.4370000000
   80      H      -3.6350000000     6.6850000000    -6.7960000000
   81      C      -2.9110000000     6.6380000000    -7.6090000000
   82      H      -2.6900000000     7.6530000000    -7.9380000000
   83      C      -1.6320000000     5.9410000000    -7.1500000000
   84      H      -1.8670000000     4.9290000000    -6.8140000000
   85      H      -1.1840000000     6.5010000000    -6.3250000000
   86      C      -0.6230000000     5.8620000000    -8.3110000000
   87      O       0.2250000000     6.7820000000    -8.4040000000
   88      O      -0.7090000000     4.9000000000    -9.0980000000
   89      H      -3.3540000000     6.0940000000    -8.4410000000
   90      H       0.5550000000     1.8340000000   -17.4070000000
   91      C       0.6890000000     2.7280000000   -16.8020000000
   92      H      -0.1870000000     2.8410000000   -16.1670000000
   93      C       1.9510000000     2.6110000000   -15.9470000000
   94      H       2.8120000000     2.4900000000   -16.6070000000
   95      H       2.0820000000     3.5230000000   -15.3630000000
   96      C       1.8520000000     1.4290000000   -15.0240000000
   97      C       2.1520000000     0.1480000000   -15.4730000000
   98      H       2.4830000000     0.0040000000   -16.4920000000
   99      C       2.0420000000    -0.9470000000   -14.6400000000
  100      H       2.2880000000    -1.9390000000   -14.9860000000
  101      C       1.6100000000    -0.7820000000   -13.3260000000
  102      O       1.5210000000    -1.8710000000   -12.5270000000
  103      H       1.3820000000    -1.5900000000   -11.6040000000
  104      C       1.2780000000     0.4910000000   -12.8790000000
  105      H       0.9130000000     0.6130000000   -11.8690000000
  106      C       1.4070000000     1.5820000000   -13.7180000000
  107      H       1.1630000000     2.5680000000   -13.3520000000
  108      H       0.7470000000     3.5910000000   -17.4640000000
  109      H       2.3340000000     6.7000000000   -17.3490000000
  110      C       2.9450000000     7.0410000000   -16.5190000000
  111      H       2.5430000000     6.6400000000   -15.5870000000
  112      H       2.9310000000     8.1250000000   -16.4630000000
  113      C       4.3900000000     6.5720000000   -16.6560000000
  114      O       5.3180000000     7.2090000000   -16.1770000000
  115      N       4.5970000000     5.4220000000   -17.3310000000
  116      H       3.7990000000     4.9130000000   -17.6790000000
  117      C       5.9090000000     4.8380000000   -17.6190000000
  118      H       6.6310000000     5.3760000000   -17.0030000000
  119      C       5.9390000000     3.3390000000   -17.3430000000
  120      H       5.1960000000     2.8540000000   -17.9830000000
  121      H       6.9210000000     2.9630000000   -17.6390000000
  122      C       5.6700000000     2.9460000000   -15.8850000000
  123      H       4.7180000000     3.3840000000   -15.5710000000
  124      C       5.5700000000     1.4260000000   -15.7840000000
  125      H       5.2810000000     1.1300000000   -14.7790000000
  126      H       4.8280000000     1.0320000000   -16.4730000000
  127      H       6.5310000000     0.9710000000   -16.0190000000
  128      C       6.7600000000     3.4560000000   -14.9490000000
  129      H       7.7390000000     3.1140000000   -15.2780000000
  130      H       6.7610000000     4.5410000000   -14.9090000000
  131      H       6.5900000000     3.0800000000   -13.9430000000
  132      H       6.1500000000     5.0200000000   -18.6730000000
  133      H      11.2910000000     6.3910000000   -16.3850000000
  134      C      11.1860000000     6.0950000000   -15.3430000000
  135      H      11.5710000000     6.8980000000   -14.7170000000
  136      C       9.7240000000     5.8150000000   -15.0010000000
  137      H       9.3760000000     4.9970000000   -15.6430000000
  138      C       9.6020000000     5.3850000000   -13.5420000000
  139      H      10.1940000000     4.4920000000   -13.3530000000
  140      H       9.9590000000     6.1800000000   -12.8890000000
  141      H       8.5680000000     5.1710000000   -13.2900000000
  142      C       8.8590000000     7.0460000000   -15.2620000000
  143      H       9.0660000000     7.8070000000   -14.5150000000
  144      H       9.0560000000     7.4610000000   -16.2470000000
  145      H       7.8010000000     6.8030000000   -15.2030000000
  146      H      11.7960000000     5.2100000000   -15.1740000000
  147      H       9.4120000000     2.0640000000    -2.3160000000
  148      C      10.1390000000     2.6110000000    -2.9120000000
  149      H      11.1010000000     2.5800000000    -2.4040000000
  150      C      10.2470000000     2.0010000000    -4.3110000000
  151      H      10.9890000000     2.5560000000    -4.8890000000
  152      H      10.5880000000     0.9670000000    -4.2250000000
  153      C       8.9190000000     2.0390000000    -5.0180000000
  154      C       8.5990000000     3.0780000000    -5.8810000000
  155      H       9.3280000000     3.8570000000    -6.0630000000
  156      C       7.3670000000     3.1240000000    -6.5090000000
  157      H       7.1310000000     3.9370000000    -7.1780000000
  158      C       6.4330000000     2.1300000000    -6.2770000000
  159      H       5.4640000000     2.1700000000    -6.7490000000
  160      C       6.7400000000     1.0920000000    -5.4160000000
  161      H       6.0100000000     0.3170000000    -5.2290000000
  162      C       7.9730000000     1.0470000000    -4.7920000000
  163      H       8.2100000000     0.2310000000    -4.1210000000
  164      H       9.8130000000     3.6470000000    -2.9770000000
  165      H      10.9390000000     5.5880000000    -7.9550000000
  166      C      10.7660000000     6.3430000000    -8.7200000000
  167      H      11.4430000000     6.1560000000    -9.5500000000
  168      C       9.3160000000     6.3000000000    -9.1910000000
  169      H       9.1960000000     7.0260000000   -10.0030000000
  170      C       8.9720000000     4.9150000000    -9.7320000000
  171      H       9.0640000000     4.1640000000    -8.9500000000
  172      H       9.6400000000     4.6490000000   -10.5480000000
  173      H       7.9520000000     4.8950000000   -10.1100000000
  174      C       8.3780000000     6.6800000000    -8.0490000000
  175      H       8.5070000000     6.0030000000    -7.2070000000
  176      H       7.3400000000     6.6290000000    -8.3720000000
  177      H       8.5780000000     7.6920000000    -7.7050000000
  178      H      11.0090000000     7.3170000000    -8.2970000000
  179      H      12.7280000000     9.8750000000   -13.1720000000
  180      C      12.3270000000    10.5440000000   -13.9310000000
  181      H      12.8740000000    10.3840000000   -14.8570000000
  182      C      10.8430000000    10.2760000000   -14.1350000000
  183      H      10.7100000000     9.2580000000   -14.5020000000
  184      H      10.4360000000    10.9540000000   -14.8880000000
  185      C      10.0480000000    10.4550000000   -12.8530000000
  186      H      10.2700000000    11.4200000000   -12.3940000000
  187      H       8.9780000000    10.3760000000   -13.0440000000
  188      S      10.4760000000     9.1700000000   -11.6150000000
  189      C       9.9100000000    10.0260000000   -10.1200000000
  190      H      10.4470000000    10.9660000000   -10.0140000000
  191      H       8.8400000000    10.2020000000   -10.1840000000
  192      H      10.1300000000     9.3780000000    -9.2800000000
  193      H      12.4920000000    11.5710000000   -13.6070000000
  194      H      10.2690000000    11.2860000000    -6.5850000000
  195      C       9.6810000000    10.6930000000    -5.8870000000
  196      H       9.7220000000    11.1790000000    -4.9150000000
  197      C       8.2450000000    10.5620000000    -6.3790000000
  198      H       8.2590000000    10.1430000000    -7.3880000000
  199      H       7.7880000000    11.5520000000    -6.4430000000
  200      C       7.3740000000     9.6670000000    -5.4890000000
  201      H       7.9190000000     8.7340000000    -5.2990000000
  202      C       7.0720000000    10.3330000000    -4.1500000000
  203      H       7.9840000000    10.5730000000    -3.6090000000
  204      H       6.5090000000    11.2500000000    -4.3060000000
  205      H       6.4780000000     9.6670000000    -3.5270000000
  206      C       6.0720000000     9.3300000000    -6.2090000000
  207      H       6.2700000000     8.7830000000    -7.1270000000
  208      H       5.5280000000    10.2390000000    -6.4590000000
  209      H       5.4290000000     8.7190000000    -5.5820000000
  210      H      10.1440000000     9.7120000000    -5.7980000000
  211      H       6.9320000000     6.9920000000    -3.2930000000
  212      C       6.1790000000     6.3640000000    -2.8210000000
  213      H       5.2990000000     6.9730000000    -2.6250000000
  214      C       5.8180000000     5.1880000000    -3.7260000000
  215      H       6.7200000000     4.5900000000    -3.9060000000
  216      C       4.7770000000     4.2910000000    -3.0620000000
  217      H       4.5180000000     3.4680000000    -3.7240000000
  218      H       5.1600000000     3.8810000000    -2.1280000000
  219      H       3.8740000000     4.8580000000    -2.8430000000
  220      C       5.2950000000     5.6860000000    -5.0690000000
  221      H       5.0090000000     4.8410000000    -5.6900000000
  222      H       6.0580000000     6.2590000000    -5.5910000000
  223      H       4.4250000000     6.3260000000    -4.9250000000
  224      H       6.5730000000     6.0120000000    -1.8690000000
  225      H       2.9440000000     1.9580000000    -2.5190000000
  226      C       2.2430000000     1.1270000000    -2.5520000000
  227      H       1.2520000000     1.5250000000    -2.7570000000
  228      C       2.6540000000     0.1400000000    -3.6390000000
  229      H       3.6290000000    -0.2900000000    -3.3930000000
  230      H       1.9270000000    -0.6670000000    -3.7350000000
  231      C       2.7910000000     0.8330000000    -4.9810000000
  232      O       3.4860000000     1.7990000000    -5.1740000000
  233      O       2.0670000000     0.2510000000    -5.9190000000
  234      H       2.2020000000     0.6770000000    -6.8200000000
  235      H       2.2280000000     0.6380000000    -1.5810000000
  236      H      -4.1680000000    -1.8430000000    -5.5130000000
  237      C      -3.5740000000    -1.0210000000    -5.1210000000
  238      H      -3.4660000000    -1.1500000000    -4.0450000000
  239      C      -2.2050000000    -0.9770000000    -5.7920000000
  240      H      -1.6550000000    -1.8950000000    -5.5670000000
  241      H      -2.3310000000    -0.9260000000    -6.8760000000
  242      C      -1.3700000000     0.2100000000    -5.3270000000
  243      H      -1.4160000000     0.3060000000    -4.2420000000
  244      H      -0.3290000000     0.1000000000    -5.6320000000
  245      S      -1.9480000000     1.8160000000    -5.9850000000
  246      C      -1.0850000000     1.8450000000    -7.5790000000
  247      H      -1.5120000000     1.0990000000    -8.2430000000
  248      H      -0.0300000000     1.6490000000    -7.4150000000
  249      H      -1.2090000000     2.8370000000    -8.0060000000
  250      H      -4.1030000000    -0.0880000000    -5.3030000000
  251      H      -1.0850000000     4.1840000000    -4.3570000000
  252      C      -0.1100000000     4.5780000000    -4.0820000000
  253      H       0.1440000000     4.2060000000    -3.0900000000
  254      C       0.9350000000     4.1480000000    -5.0990000000
  255      H       1.9290000000     4.4860000000    -4.8100000000
  256      H       0.6990000000     4.5510000000    -6.0810000000
  257      H       0.9570000000     3.0640000000    -5.1720000000
  258      H      -0.1830000000     5.6630000000    -4.0280000000
  259      H       1.3900000000     9.8000000000    -2.1900000000
  260      C       2.4440000000    10.0380000000    -2.3110000000
  261      H       2.9200000000    10.0200000000    -1.3310000000
  262      C       3.1120000000     9.0310000000    -3.2500000000
  263      H       4.1760000000     9.2740000000    -3.3200000000
  264      H       3.0180000000     8.0290000000    -2.8230000000
  265      C       2.5190000000     9.0270000000    -4.6230000000
  266      C       1.7850000000     8.0270000000    -5.2040000000
  267      H       1.4950000000     7.0820000000    -4.7850000000
  268      N       1.4280000000     8.3580000000    -6.4760000000
  269      H       0.9030000000     7.7710000000    -7.1390000000
  270      C       1.9390000000     9.5850000000    -6.7570000000
  271      C       1.8720000000    10.3370000000    -7.9240000000
  272      H       1.3430000000     9.9590000000    -8.7860000000
  273      C       2.5000000000    11.5620000000    -7.9370000000
  274      H       2.4710000000    12.1720000000    -8.8290000000
  275      C       3.1800000000    12.0390000000    -6.8110000000
  276      H       3.6580000000    13.0090000000    -6.8620000000
  277      C       3.2520000000    11.3020000000    -5.6510000000
  278      H       3.7860000000    11.6810000000    -4.7900000000
  279      C       2.6330000000    10.0520000000    -5.6080000000
  280      H       2.5200000000    11.0440000000    -2.7170000000
  281      O       0.7640000000     5.7620000000   -11.1010000000
  282      H       0.8570000000     6.6260000000   -10.6840000000
  283      H       0.1980000000     5.2820000000   -10.4290000000
  284      O       5.4640000000     9.8870000000   -16.8460000000
  285      H       5.4500000000     8.9530000000   -16.5750000000
  286      H       5.0230000000    10.3820000000   -16.1330000000
  287      O       1.4310000000     5.5310000000   -13.7620000000
  288      H       1.2680000000     5.6210000000   -12.8030000000
  289      H       0.5690000000     5.3330000000   -14.1320000000
  290      O       6.9710000000    12.5680000000   -14.4760000000
  291      H       7.1520000000    12.1720000000   -13.6180000000
  292      H       7.4050000000    11.9540000000   -15.1180000000
  293      O       7.9070000000    10.5330000000   -15.9190000000
  294      H       7.1070000000    10.3260000000   -16.4520000000
  295      H       7.8590000000     9.9200000000   -15.1760000000
  296      O       4.5500000000    11.4990000000   -14.7710000000
  297      H       3.8860000000    12.1320000000   -15.0440000000
  298      H       5.4000000000    12.0030000000   -14.6930000000
 ----------------------------------------------------------------
 Nuclear Repulsion Energy =       30533.02641185 hartrees
 There are      463 alpha and      463 beta electrons
 Requested basis set is 6-31G(d)
 There are 828 shells and 2099 basis functions

 Total QAlloc Memory Limit  64000 MB
 Mega-Array Size      3911 MB
 MEM_STATIC part      4000 MB

 A cutoff of  1.0D-14 yielded  95502 shell pairs
 There are    592503 function pairs
 Smallest overlap matrix eigenvalue = 3.41E-04

 Scale SEOQF with 1.000000e-02/1.000000e-02/1.000000e-03

 Standard Electronic Orientation quadrupole field applied
 Nucleus-field energy     =     0.0000002752 hartrees
 Guess from superposition of atomic densities
 Warning:  Energy on first SCF cycle will be non-variational
 SAD guess density has 925.000003 electrons

 -----------------------------------------------------------------------
  General SCF calculation program by
  Eric Jon Sundstrom, Paul Horn, Yuezhi Mao, Dmitri Zuev, Alec White,
  David Stuck, Shaama M.S., Shane Yost, Joonho Lee, David Small,
  Daniel Levine, Susi Lehtola, Hugh Burton, Evgeny Epifanovsky,
  Bang C. Huynh
 -----------------------------------------------------------------------
=================================================
        Doing projection-based embedding         
      F. Manby et al. JCTC, 8, 2564 (2012)       
=================================================

****************************************************
   Low-level SCF calculation for the whole system   
****************************************************
----------------------------------------------
 Summary of the low-level theory: 
 Exchange:     0.1670 Hartree-Fock + 1.0000 wB97X-V + LR-HF
 Correlation:  1.0000 wB97X-V
 Using Euler-Maclaurin-Lebedev (75,302) quadrature formula
 Nonlocal Correlation:  VV10 with C = 0.0100 and b = 6.00 and scale = 1.00000
 Grid used for NLC:  SG-1 standard quadrature
----------------------------------------------
 using 32 threads for integral computing
 -------------------------------------------------------
 OpenMP Integral computing Module                
 Release: version 1.0, May 2013, Q-Chem Inc. Pittsburgh 
 -------------------------------------------------------
 A restricted SCF calculation will be
 performed using DIIS
 SCF converges when DIIS error is below 1.0e-08
 ---------------------------------------
  Cycle       Energy         DIIS error
 ---------------------------------------
    1   -5833.1164974211      1.70e-02  
    2   -5800.2636485431      1.56e-03  
    3   -5800.7211714251      1.39e-03  
    4   -5801.4706243965      2.29e-04  
    5   -5801.4893918146      1.14e-04  
    6   -5801.4947946882      2.68e-05  
    7   -5801.4951198265      7.00e-06  
    8   -5801.4951496725      2.42e-06  
    9   -5801.4951541948      1.06e-06  
   10   -5801.4951553670      4.13e-07  
   11   -5801.4951555637      1.99e-07  
   12   -5801.4951556210      6.92e-08  
   13   -5801.4951556282      2.69e-08  
   14   -5801.4951556296      1.17e-08  
   15   -5801.4951556299      4.70e-09  Convergence criterion met
 ---------------------------------------
 SCF time:   CPU 65127.69s  wall 2184.00s 
 SCF   energy in the final basis set =    -5801.4951556299
 Total energy in the final basis set =    -5801.4951556299

****************************************************
             Start embedding calculation            
****************************************************
----------------------------------------------
 Summary of the high-level theory: 
 Exchange:     0.1670 Hartree-Fock + 1.0000 wB97X-V + LR-HF
 Correlation:  1.0000 wB97X-V
 Using Euler-Maclaurin-Lebedev (75,302) quadrature formula
 Nonlocal Correlation:  VV10 with C = 0.0100 and b = 6.00 and scale = 1.00000
 Grid used for NLC:  SG-1 standard quadrature
----------------------------------------------
Doing R-in-R Embedding Calculation
Number of fragments: 2
Embedded fragment(s): 1 
NOcc for each fragment
           75
          388
NBasis for each fragment
          352
         1747
Variational space of the embedded problem: 
NOcc (active)  = 75
NOcc (fixed)   = 388
NVir (total)   = 1636
Read converged orbitals from disk
=========================================================
       Doing SPADE partition for the orbital space       
     D. Claudino and N. Mayhall JCTC 15, 1053 (2019)     
=========================================================
SPADE singular values:
 1.0000 1.0000 1.0000 1.0000 1.0000 1.0000 1.0000 1.0000 1.0000 1.0000
 1.0000 1.0000 1.0000 1.0000 1.0000 1.0000 1.0000 1.0000 1.0000 1.0000
 1.0000 1.0000 1.0000 1.0000 1.0000 1.0000 1.0000 1.0000 1.0000 1.0000
 1.0000 1.0000 1.0000 1.0000 1.0000 1.0000 1.0000 1.0000 1.0000 1.0000
 1.0000 0.9999 0.9999 0.9999 0.9999 0.9999 0.9998 0.9998 0.9998 0.9997
 0.9996 0.9996 0.9996 0.9995 0.9994 0.9994 0.9994 0.9992 0.9991 0.9990
 0.9988 0.9987 0.9985 0.9984 0.9984 0.9983 0.9980 0.9978 0.9976 0.9966
 0.9953 0.9935 0.9887 0.9741 0.9714 0.1765 0.1461 0.1432 0.0875 0.0868
 0.0770 0.0735 0.0656 0.0648 0.0628 0.0600 0.0592 0.0565 0.0551 0.0541
 0.0529 0.0486 0.0448 0.0443 0.0422 0.0402 0.0382 0.0359 0.0346 0.0330
 0.0325 0.0322 0.0315 0.0299 0.0288 0.0277 0.0267 0.0238 0.0223 0.0209
 0.0201 0.0173 0.0162 0.0159 0.0156 0.0147 0.0140 0.0131 0.0119 0.0115
 0.0105 0.0101 0.0098 0.0092 0.0087 0.0086 0.0079 0.0076 0.0073 0.0068
 0.0064 0.0060 0.0059 0.0056 0.0052 0.0051 0.0047 0.0044 0.0042 0.0039
 0.0039 0.0036 0.0035 0.0033 0.0032 0.0031 0.0030 0.0029 0.0027 0.0027
 0.0026 0.0025 0.0023 0.0022 0.0021 0.0019 0.0019 0.0019 0.0018 0.0017
 0.0017 0.0016 0.0015 0.0014 0.0014 0.0014 0.0013 0.0013 0.0013 0.0012
 0.0012 0.0012 0.0011 0.0010 0.0010 0.0009 0.0009 0.0009 0.0009 0.0009
 0.0008 0.0008 0.0008 0.0008 0.0007 0.0007 0.0007 0.0007 0.0007 0.0007
 0.0007 0.0006 0.0006 0.0006 0.0005 0.0005 0.0005 0.0005 0.0005 0.0005
 0.0005 0.0005 0.0004 0.0004 0.0004 0.0004 0.0004 0.0004 0.0004 0.0004
 0.0004 0.0003 0.0003 0.0003 0.0003 0.0003 0.0003 0.0003 0.0003 0.0003
 0.0003 0.0003 0.0003 0.0002 0.0002 0.0002 0.0002 0.0002 0.0002 0.0002
 0.0002 0.0002 0.0002 0.0002 0.0002 0.0002 0.0002 0.0002 0.0002 0.0002
 0.0001 0.0001 0.0001 0.0001 0.0001 0.0001 0.0001 0.0001 0.0001 0.0001
 0.0001 0.0001 0.0001 0.0001 0.0001 0.0001 0.0001 0.0001 0.0001 0.0001
 0.0001 0.0001 0.0001 0.0001 0.0001 0.0001 0.0001 0.0001 0.0001 0.0001
 0.0001 0.0001 0.0001 0.0001 0.0001 0.0000 0.0000 0.0000 0.0000 0.0000
 0.0000 0.0000 0.0000 0.0000 0.0000 0.0000 0.0000 0.0000 0.0000 0.0000
 0.0000 0.0000 0.0000 0.0000 0.0000 0.0000 0.0000 0.0000 0.0000 0.0000
 0.0000 0.0000 0.0000 0.0000 0.0000 0.0000 0.0000 0.0000 0.0000 0.0000
 0.0000 0.0000 0.0000 0.0000 0.0000 0.0000 0.0000 0.0000 0.0000 0.0000
 0.0000 0.0000 0.0000 0.0000 0.0000 0.0000 0.0000 0.0000 0.0000 0.0000
 0.0000 0.0000 0.0000 0.0000 0.0000 0.0000 0.0000 0.0000 0.0000 0.0000
 0.0000 0.0000 0.0000 0.0000 0.0000 0.0000 0.0000 0.0000 0.0000 0.0000
 0.0000 0.0000
Early stop requested; no embedded SCF will be performed

 388 environment occs will be part of frozen-core in future post-HF calculations
 
 --------------------------------------------------------------
 
                    Orbital Energies (a.u.)
 --------------------------------------------------------------
 
 Alpha MOs
 -- Occupied --
-88.8082 -88.7848 -19.1941 -19.1899 -19.1777 -19.1740 -19.1562 -19.1540
-19.1479 -19.1471 -19.1415 -19.1392 -19.1287 -19.0910 -19.0894 -14.4070
-14.3662 -10.3416 -10.3415 -10.2792 -10.2773 -10.2724 -10.2674 -10.2493
-10.2467 -10.2330 -10.2310 -10.2282 -10.2274 -10.2273 -10.2261 -10.2253
-10.2252 -10.2246 -10.2244 -10.2207 -10.2206 -10.2196 -10.2194 -10.2194
-10.2191 -10.2190 -10.2187 -10.2180 -10.2180 -10.2177 -10.2175 -10.2169
-10.2166 -10.2161 -10.2158 -10.2155 -10.2152 -10.2144 -10.2141 -10.2140
-10.2138 -10.2132 -10.2126 -10.2117 -10.2109 -10.2108 -10.2105 -10.2102
-10.2091 -10.2089 -10.2083 -10.2082 -10.2068 -10.2054 -10.2043 -10.2042
-10.2038 -10.2031 -10.2029 -10.2023 -10.2019 -10.2015 -10.2013 -10.2010
-10.1998 -10.1982 -10.1978 -10.1972 -10.1937 -10.1934 -10.1929 -10.1898
-10.1880 -10.1858 -10.1854 -10.1849 -10.1842 -10.1826 -10.1825  -7.9741
 -7.9511  -5.9321  -5.9280  -5.9206  -5.9090  -5.9048  -5.8978  -1.1609
 -1.1238  -1.1193  -1.1077  -1.0833  -1.0783  -1.0665  -1.0626  -1.0516
 -1.0457  -1.0350  -1.0280  -1.0242  -1.0076  -0.9782  -0.9339  -0.9312
 -0.9275  -0.8977  -0.8975  -0.8931  -0.8841  -0.8791  -0.8766  -0.8764
 -0.8752  -0.8642  -0.8622  -0.8601  -0.8598  -0.8570  -0.8547  -0.8387
 -0.8366  -0.8179  -0.8177  -0.8140  -0.8132  -0.8126  -0.8067  -0.8051
 -0.8051  -0.7955  -0.7927  -0.7855  -0.7833  -0.7830  -0.7628  -0.7623
 -0.7585  -0.7533  -0.7515  -0.7511  -0.7487  -0.7467  -0.7462  -0.7444
 -0.7439  -0.7379  -0.7321  -0.7274  -0.7118  -0.7005  -0.6996  -0.6974
 -0.6884  -0.6877  -0.6831  -0.6786  -0.6745  -0.6741  -0.6734  -0.6645
 -0.6628  -0.6605  -0.6577  -0.6402  -0.6371  -0.6365  -0.6358  -0.6340
 -0.6323  -0.6301  -0.6199  -0.6183  -0.6167  -0.6146  -0.6145  -0.6036
 -0.5948  -0.5948  -0.5900  -0.5865  -0.5696  -0.5664  -0.5661  -0.5624
 -0.5585  -0.5554  -0.5548  -0.5428  -0.5422  -0.5404  -0.5389  -0.5364
 -0.5322  -0.5285  -0.5252  -0.5244  -0.5238  -0.5221  -0.5214  -0.5203
 -0.5184  -0.5179  -0.5170  -0.5160  -0.5134  -0.5113  -0.5107  -0.5092
 -0.5082  -0.5065  -0.5018  -0.5013  -0.4992  -0.4962  -0.4935  -0.4934
 -0.4912  -0.4879  -0.4845  -0.4839  -0.4832  -0.4826  -0.4818  -0.4813
 -0.4804  -0.4803  -0.4800  -0.4799  -0.4793  -0.4791  -0.4770  -0.4769
 -0.4747  -0.4719  -0.4711  -0.4701  -0.4692  -0.4685  -0.4668  -0.4662
 -0.4650  -0.4644  -0.4637  -0.4626  -0.4621  -0.4600  -0.4586  -0.4572
 -0.4564  -0.4556  -0.4544  -0.4504  -0.4500  -0.4492  -0.4479  -0.4473
 -0.4466  -0.4458  -0.4450  -0.4414  -0.4400  -0.4380  -0.4359  -0.4348
 -0.4338  -0.4325  -0.4310  -0.4305  -0.4297  -0.4296  -0.4290  -0.4267
 -0.4252  -0.4241  -0.4232  -0.4228  -0.4225  -0.4207  -0.4192  -0.4190
 -0.4175  -0.4139  -0.4131  -0.4128  -0.4121  -0.4113  -0.4097  -0.4076
 -0.4053  -0.4044  -0.4025  -0.4012  -0.4005  -0.3999  -0.3996  -0.3990
 -0.3987  -0.3980  -0.3951  -0.3941  -0.3936  -0.3925  -0.3902  -0.3899
 -0.3891  -0.3879  -0.3870  -0.3858  -0.3843  -0.3814  -0.3794  -0.3773
 -0.3769  -0.3760  -0.3740  -0.3718  -0.3716  -0.3710  -0.3700  -0.3684
 -0.3679  -0.3677  -0.3673  -0.3665  -0.3660  -0.3655  -0.3646  -0.3641
 -0.3634  -0.3631  -0.3624  -0.3612  -0.3609  -0.3601  -0.3600  -0.3592
 -0.3581  -0.3574  -0.3573  -0.3567  -0.3539  -0.3515  -0.3492  -0.3477
 -0.3460  -0.3447  -0.3433  -0.3418  -0.3409  -0.3390  -0.3303  -0.3261
 -0.3224  -0.3184  -0.3159  -0.3102  -0.3044  -0.3029  -0.2908  -0.2815
 -0.2790  -0.2777  -0.2669  -0.2662  -0.2583  -0.2545  -0.2501  -0.2391
 -0.2371  -0.2325  -0.2263  -0.2021 -10.1639 -10.1392 -10.0505 -10.0933
-10.0274 -10.1004 -10.0907 -10.0067 -10.3703  -9.9517  -9.9044  -9.8544
-10.1630  -9.7789  -9.9971  -9.6522  -9.6331  -9.4060 -14.7315  -1.9041
 -1.3836  -2.3053  -1.0654  -1.4637  -2.0775  -1.7062  -2.8501 -12.4875
 -1.3608  -1.1834  -1.3003  -0.9068  -1.3481  -1.2290  -1.0552  -0.9262
 -0.9075  -0.5839  -1.3129  -0.7604  -0.7449  -0.6292  -0.6047  -0.4907
 -0.4443  -0.4807  -0.5202  -0.6779  -1.7339  -0.4842  -0.4958  -0.4915
 -0.4658  -0.4779  -0.4505  -0.4548  -0.4924  -0.4563  -0.4362  -0.4265
 -0.4214  -0.4288  -0.4703  -0.5054  -0.4913  -0.4314  -0.4507  -0.4184
 -0.3866  -0.4035  -0.3476  -0.3503  -0.4921  -0.4340  -0.5757
 -- Virtual --
  0.0883   0.1464   0.1483   0.1485   0.1492   0.1501   0.1623   0.1628
  0.1657   0.1701   0.1788   0.1804   0.1853   0.1903   0.1914   0.1970
  0.1988   0.2042   0.2086   0.2107   0.2118   0.2138   0.2167   0.2194
  0.2239   0.2250   0.2282   0.2296   0.2313   0.2319   0.2335   0.2344
  0.2377   0.2394   0.2410   0.2430   0.2463   0.2473   0.2480   0.2503
  0.2508   0.2515   0.2521   0.2545   0.2555   0.2565   0.2597   0.2607
  0.2617   0.2630   0.2638   0.2652   0.2675   0.2691   0.2692   0.2712
  0.2726   0.2743   0.2750   0.2766   0.2775   0.2792   0.2798   0.2815
  0.2817   0.2833   0.2862   0.2878   0.2882   0.2882   0.2896   0.2907
  0.2920   0.2933   0.2941   0.2956   0.2962   0.2983   0.2989   0.3004
  0.3011   0.3020   0.3021   0.3045   0.3055   0.3065   0.3070   0.3074
  0.3078   0.3091   0.3101   0.3116   0.3128   0.3144   0.3149   0.3153
  0.3170   0.3177   0.3185   0.3189   0.3198   0.3210   0.3224   0.3232
  0.3237   0.3247   0.3248   0.3253   0.3262   0.3269   0.3281   0.3288
  0.3291   0.3296   0.3300   0.3315   0.3317   0.3331   0.3338   0.3343
  0.3352   0.3363   0.3370   0.3377   0.3382   0.3399   0.3405   0.3408
  0.3424   0.3428   0.3444   0.3453   0.3454   0.3456   0.3464   0.3469
  0.3476   0.3487   0.3497   0.3499   0.3514   0.3527   0.3535   0.3537
  0.3540   0.3553   0.3560   0.3572   0.3581   0.3588   0.3607   0.3613
  0.3632   0.3641   0.3647   0.3652   0.3666   0.3672   0.3688   0.3691
  0.3699   0.3715   0.3729   0.3740   0.3746   0.3757   0.3761   0.3771
  0.3787   0.3797   0.3809   0.3815   0.3838   0.3839   0.3847   0.3854
  0.3875   0.3890   0.3894   0.3897   0.3910   0.3920   0.3931   0.3934
  0.3937   0.3954   0.3957   0.3982   0.3984   0.3995   0.4004   0.4013
  0.4028   0.4047   0.4048   0.4054   0.4059   0.4064   0.4081   0.4093
  0.4104   0.4111   0.4120   0.4130   0.4140   0.4155   0.4167   0.4169
  0.4176   0.4180   0.4196   0.4200   0.4214   0.4232   0.4241   0.4246
  0.4256   0.4274   0.4281   0.4294   0.4299   0.4303   0.4316   0.4334
  0.4347   0.4350   0.4368   0.4385   0.4395   0.4414   0.4417   0.4451
  0.4462   0.4467   0.4493   0.4502   0.4512   0.4538   0.4547   0.4551
  0.4559   0.4584   0.4596   0.4607   0.4631   0.4657   0.4663   0.4671
  0.4684   0.4697   0.4723   0.4739   0.4745   0.4754   0.4779   0.4794
  0.4802   0.4815   0.4851   0.4872   0.4891   0.4901   0.4932   0.4945
  0.5000   0.5015   0.5034   0.5045   0.5076   0.5112   0.5129   0.5161
  0.5190   0.5215   0.5236   0.5269   0.5291   0.5331   0.5356   0.5385
  0.5394   0.5408   0.5448   0.5498   0.5530   0.5586   0.5600   0.5647
  0.5692   0.5733   0.5833   0.5897   0.5913   0.5952   0.6015   0.6024
  0.6125   0.6134   0.6185   0.6268   0.6316   0.6319   0.6350   0.6412
  0.6441   0.6470   0.6520   0.6524   0.6562   0.6578   0.6609   0.6626
  0.6642   0.6648   0.6666   0.6689   0.6697   0.6716   0.6733   0.6741
  0.6753   0.6762   0.6766   0.6789   0.6799   0.6818   0.6819   0.6834
  0.6846   0.6851   0.6876   0.6890   0.6900   0.6909   0.6930   0.6937
  0.6956   0.6959   0.6977   0.6986   0.6989   0.7014   0.7029   0.7038
  0.7053   0.7058   0.7077   0.7086   0.7089   0.7098   0.7103   0.7121
  0.7131   0.7139   0.7153   0.7168   0.7178   0.7210   0.7219   0.7237
  0.7249   0.7259   0.7279   0.7285   0.7293   0.7308   0.7313   0.7335
  0.7350   0.7363   0.7380   0.7382   0.7415   0.7420   0.7431   0.7438
  0.7462   0.7471   0.7492   0.7515   0.7525   0.7526   0.7531   0.7539
  0.7557   0.7560   0.7586   0.7594   0.7620   0.7632   0.7648   0.7658
  0.7673   0.7686   0.7693   0.7700   0.7714   0.7729   0.7751   0.7764
  0.7783   0.7799   0.7806   0.7827   0.7828   0.7844   0.7851   0.7871
  0.7886   0.7899   0.7920   0.7933   0.7944   0.7951   0.7969   0.7981
  0.8014   0.8023   0.8034   0.8037   0.8053   0.8066   0.8082   0.8095
  0.8106   0.8130   0.8138   0.8153   0.8169   0.8197   0.8209   0.8223
  0.8234   0.8246   0.8261   0.8272   0.8280   0.8298   0.8313   0.8322
  0.8336   0.8361   0.8369   0.8374   0.8381   0.8389   0.8413   0.8427
  0.8434   0.8449   0.8454   0.8470   0.8488   0.8495   0.8511   0.8518
  0.8526   0.8539   0.8542   0.8558   0.8565   0.8589   0.8608   0.8618
  0.8629   0.8646   0.8649   0.8665   0.8675   0.8689   0.8735   0.8737
  0.8771   0.8785   0.8798   0.8815   0.8828   0.8847   0.8866   0.8892
  0.8904   0.8916   0.8947   0.8954   0.8962   0.8977   0.8992   0.9007
  0.9010   0.9026   0.9040   0.9049   0.9056   0.9065   0.9070   0.9084
  0.9101   0.9107   0.9115   0.9138   0.9153   0.9162   0.9177   0.9185
  0.9198   0.9217   0.9231   0.9244   0.9251   0.9280   0.9329   0.9342
  0.9345   0.9359   0.9403   0.9414   0.9420   0.9429   0.9450   0.9466
  0.9474   0.9504   0.9511   0.9520   0.9544   0.9552   0.9571   0.9579
  0.9587   0.9606   0.9622   0.9626   0.9645   0.9655   0.9689   0.9706
  0.9741   0.9761   0.9786   0.9795   0.9816   0.9838   0.9858   0.9870
  0.9882   0.9902   0.9931   0.9943   0.9958   0.9960   0.9964   0.9978
  1.0007   1.0018   1.0023   1.0045   1.0051   1.0069   1.0085   1.0093
  1.0100   1.0117   1.0129   1.0150   1.0152   1.0161   1.0173   1.0184
  1.0186   1.0214   1.0218   1.0240   1.0266   1.0272   1.0286   1.0301
  1.0316   1.0326   1.0328   1.0348   1.0357   1.0373   1.0375   1.0391
  1.0399   1.0427   1.0451   1.0462   1.0477   1.0490   1.0506   1.0512
  1.0527   1.0530   1.0542   1.0556   1.0569   1.0578   1.0590   1.0597
  1.0612   1.0616   1.0626   1.0653   1.0655   1.0661   1.0676   1.0680
  1.0692   1.0699   1.0721   1.0735   1.0740   1.0746   1.0752   1.0767
  1.0777   1.0782   1.0795   1.0802   1.0813   1.0828   1.0835   1.0839
  1.0864   1.0870   1.0882   1.0887   1.0918   1.0921   1.0925   1.0935
  1.0940   1.0947   1.0953   1.0960   1.0970   1.0989   1.0997   1.1002
  1.1022   1.1025   1.1033   1.1044   1.1061   1.1068   1.1082   1.1087
  1.1091   1.1098   1.1115   1.1122   1.1127   1.1136   1.1154   1.1160
  1.1166   1.1170   1.1184   1.1211   1.1213   1.1230   1.1233   1.1239
  1.1250   1.1264   1.1282   1.1286   1.1291   1.1317   1.1323   1.1331
  1.1338   1.1358   1.1365   1.1387   1.1390   1.1405   1.1413   1.1417
  1.1443   1.1450   1.1464   1.1466   1.1492   1.1512   1.1527   1.1535
  1.1549   1.1557   1.1580   1.1588   1.1601   1.1611   1.1616   1.1622
  1.1640   1.1661   1.1668   1.1695   1.1699   1.1711   1.1731   1.1736
  1.1750   1.1755   1.1778   1.1785   1.1800   1.1816   1.1828   1.1831
  1.1838   1.1851   1.1859   1.1865   1.1888   1.1896   1.1907   1.1911
  1.1918   1.1945   1.1948   1.1970   1.1978   1.1996   1.2010   1.2035
  1.2039   1.2056   1.2076   1.2078   1.2085   1.2107   1.2111   1.2152
  1.2159   1.2164   1.2187   1.2207   1.2220   1.2246   1.2250   1.2265
  1.2281   1.2310   1.2329   1.2336   1.2350   1.2364   1.2391   1.2398
  1.2408   1.2425   1.2458   1.2463   1.2472   1.2485   1.2495   1.2520
  1.2538   1.2555   1.2567   1.2600   1.2617   1.2633   1.2647   1.2675
  1.2684   1.2697   1.2713   1.2727   1.2759   1.2774   1.2785   1.2808
  1.2829   1.2851   1.2881   1.2899   1.2904   1.2924   1.2935   1.2976
  1.2989   1.3011   1.3025   1.3052   1.3107   1.3127   1.3144   1.3168
  1.3193   1.3214   1.3228   1.3247   1.3281   1.3315   1.3332   1.3360
  1.3385   1.3410   1.3427   1.3448   1.3464   1.3497   1.3513   1.3538
  1.3560   1.3597   1.3601   1.3629   1.3638   1.3669   1.3674   1.3698
  1.3729   1.3743   1.3757   1.3788   1.3797   1.3820   1.3848   1.3863
  1.3894   1.3925   1.3948   1.3984   1.4019   1.4033   1.4082   1.4098
  1.4124   1.4136   1.4153   1.4168   1.4192   1.4221   1.4252   1.4263
  1.4300   1.4323   1.4358   1.4361   1.4363   1.4378   1.4414   1.4448
  1.4500   1.4540   1.4564   1.4618   1.4646   1.4668   1.4698   1.4724
  1.4757   1.4793   1.4812   1.4871   1.4896   1.4927   1.4948   1.4964
  1.4989   1.5035   1.5074   1.5125   1.5146   1.5170   1.5230   1.5268
  1.5293   1.5309   1.5348   1.5392   1.5400   1.5447   1.5489   1.5499
  1.5522   1.5547   1.5560   1.5606   1.5646   1.5661   1.5704   1.5772
  1.5785   1.5852   1.5867   1.5883   1.5910   1.5926   1.5939   1.5950
  1.5962   1.5981   1.5997   1.6001   1.6016   1.6026   1.6042   1.6074
  1.6082   1.6110   1.6119   1.6161   1.6168   1.6179   1.6190   1.6206
  1.6222   1.6234   1.6257   1.6279   1.6289   1.6311   1.6315   1.6335
  1.6355   1.6362   1.6395   1.6408   1.6420   1.6460   1.6461   1.6481
  1.6486   1.6500   1.6507   1.6517   1.6567   1.6588   1.6590   1.6606
  1.6622   1.6627   1.6629   1.6649   1.6671   1.6701   1.6737   1.6742
  1.6761   1.6793   1.6797   1.6827   1.6877   1.6879   1.6881   1.6899
  1.6908   1.6922   1.6973   1.6996   1.7017   1.7034   1.7056   1.7081
  1.7093   1.7146   1.7164   1.7199   1.7244   1.7259   1.7269   1.7278
  1.7305   1.7389   1.7482   1.7521   1.7561   1.7637   1.7685   1.7738
  1.7819   1.7830   1.7871   1.7904   1.7926   1.7967   1.8050   1.8122
  1.8152   1.8201   1.8243   1.8262   1.8308   1.8323   1.8354   1.8462
  1.8487   1.8535   1.8548   1.8600   1.8618   1.8677   1.8717   1.8749
  1.8787   1.8808   1.8837   1.8841   1.8849   1.8877   1.8887   1.8894
  1.8904   1.8916   1.8948   1.8961   1.8979   1.9005   1.9042   1.9047
  1.9068   1.9073   1.9082   1.9095   1.9110   1.9123   1.9125   1.9134
  1.9171   1.9179   1.9188   1.9200   1.9227   1.9244   1.9264   1.9267
  1.9279   1.9305   1.9316   1.9348   1.9375   1.9390   1.9421   1.9428
  1.9484   1.9515   1.9526   1.9537   1.9559   1.9584   1.9613   1.9651
  1.9686   1.9704   1.9737   1.9744   1.9751   1.9789   1.9808   1.9825
  1.9833   1.9852   1.9859   1.9872   1.9890   1.9905   1.9932   1.9953
  1.9957   1.9969   1.9977   1.9994   2.0009   2.0036   2.0050   2.0077
  2.0095   2.0101   2.0126   2.0143   2.0152   2.0193   2.0218   2.0237
  2.0261   2.0293   2.0303   2.0355   2.0373   2.0385   2.0407   2.0425
  2.0442   2.0455   2.0473   2.0491   2.0516   2.0534   2.0586   2.0618
  2.0669   2.0683   2.0710   2.0725   2.0735   2.0790   2.0809   2.0830
  2.0837   2.0869   2.0901   2.0929   2.0938   2.0952   2.0982   2.1011
  2.1033   2.1046   2.1078   2.1105   2.1124   2.1126   2.1142   2.1161
  2.1196   2.1197   2.1228   2.1251   2.1260   2.1286   2.1294   2.1316
  2.1326   2.1338   2.1347   2.1359   2.1369   2.1401   2.1407   2.1426
  2.1436   2.1446   2.1460   2.1462   2.1477   2.1491   2.1504   2.1517
  2.1533   2.1540   2.1566   2.1577   2.1601   2.1615   2.1621   2.1649
  2.1669   2.1678   2.1711   2.1720   2.1729   2.1772   2.1789   2.1801
  2.1810   2.1841   2.1862   2.1877   2.1911   2.1913   2.1938   2.1956
  2.1969   2.1978   2.1992   2.2038   2.2052   2.2070   2.2079   2.2085
  2.2108   2.2117   2.2127   2.2143   2.2199   2.2215   2.2240   2.2248
  2.2260   2.2276   2.2323   2.2328   2.2381   2.2386   2.2416   2.2427
  2.2438   2.2477   2.2514   2.2537   2.2540   2.2566   2.2589   2.2663
  2.2699   2.2717   2.2744   2.2759   2.2771   2.2837   2.2848   2.2878
  2.2899   2.2926   2.2941   2.2963   2.2975   2.2977   2.3001   2.3076
  2.3100   2.3116   2.3132   2.3153   2.3165   2.3196   2.3203   2.3208
  2.3228   2.3242   2.3296   2.3315   2.3318   2.3354   2.3365   2.3385
  2.3396   2.3406   2.3442   2.3486   2.3488   2.3518   2.3545   2.3561
  2.3588   2.3607   2.3622   2.3679   2.3716   2.3733   2.3751   2.3814
  2.3819   2.3837   2.3877   2.3897   2.3966   2.3998   2.4010   2.4031
  2.4121   2.4125   2.4133   2.4207   2.4228   2.4273   2.4293   2.4300
  2.4335   2.4339   2.4354   2.4362   2.4379   2.4390   2.4400   2.4409
  2.4417   2.4418   2.4428   2.4441   2.4463   2.4468   2.4475   2.4500
  2.4521   2.4529   2.4541   2.4544   2.4580   2.4611   2.4621   2.4632
  2.4634   2.4650   2.4658   2.4671   2.4688   2.4696   2.4705   2.4708
  2.4721   2.4739   2.4741   2.4768   2.4773   2.4802   2.4805   2.4821
  2.4842   2.4875   2.4930   2.4966   2.4972   2.4983   2.5012   2.5017
  2.5027   2.5053   2.5059   2.5070   2.5082   2.5106   2.5121   2.5125
  2.5175   2.5191   2.5197   2.5209   2.5215   2.5246   2.5255   2.5284
  2.5300   2.5348   2.5361   2.5385   2.5400   2.5423   2.5444   2.5447
  2.5466   2.5482   2.5500   2.5535   2.5591   2.5607   2.5631   2.5660
  2.5665   2.5691   2.5700   2.5772   2.5824   2.5846   2.5913   2.5995
  2.6016   2.6026   2.6059   2.6072   2.6079   2.6176   2.6205   2.6219
  2.6223   2.6275   2.6313   2.6357   2.6367   2.6443   2.6532   2.6561
  2.6580   2.6630   2.6652   2.6690   2.6715   2.6743   2.6812   2.6859
  2.6875   2.6892   2.6902   2.6915   2.6946   2.6957   2.6989   2.7004
  2.7018   2.7049   2.7072   2.7092   2.7098   2.7117   2.7147   2.7161
  2.7166   2.7171   2.7201   2.7248   2.7278   2.7389   2.7415   2.7447
  2.7522   2.7561   2.7586   2.7588   2.7637   2.7700   2.7727   2.7761
  2.7786   2.7827   2.7838   2.7859   2.7886   2.7921   2.7964   2.8060
  2.8140   2.8159   2.8206   2.8226   2.8254   2.8262   2.8307   2.8334
  2.8349   2.8367   2.8402   2.8431   2.8508   2.8533   2.8592   2.8611
  2.8618   2.8687   2.8692   2.8714   2.8721   2.8746   2.8782   2.8802
  2.8828   2.8841   2.8857   2.8907   2.8939   2.8955   2.8987   2.9018
  2.9034   2.9062   2.9065   2.9085   2.9094   2.9138   2.9149   2.9180
  2.9204   2.9266   2.9279   2.9307   2.9350   2.9381   2.9404   2.9427
  2.9447   2.9464   2.9499   2.9524   2.9565   2.9577   2.9636   2.9658
  2.9754   2.9836   2.9880   2.9922   2.9981   3.0036   3.0066   3.0234
  3.0357   3.0419   3.0490   3.0643   3.0685   3.0810   3.0818   3.0839
  3.0924   3.0936   3.0944   3.1020   3.1046   3.1180   3.1318   3.1436
  3.1554   3.1756   3.1814   3.2100   3.2208   3.2238   3.2306   3.2453
  3.2494   3.2522   3.2600   3.2772   3.2878   3.3114   3.3293   3.3357
  3.3377   3.3694   3.3878   3.3894   3.4741   3.6327   3.6390   3.6399
  3.6782   3.9584   3.9719   4.0557   4.1040   4.1394   4.1481   4.1493
  4.1640   4.1751   4.2052   4.2317   4.2829   4.2925   4.3065   4.3093
  4.3137   4.3228   4.3323   4.3340   4.3367   4.3387   4.3407   4.3432
  4.3459   4.3572   4.3609   4.3632   4.3691   4.3722   4.3740   4.3774
  4.3796   4.3882   4.3924   4.3962   4.3981   4.4037   4.4087   4.4137
  4.4150   4.4192   4.4291   4.4358   4.4476   4.4498   4.4545   4.4574
  4.4703   4.4762   4.4777   4.4883   4.5012   4.5083   4.5089   4.5120
  4.5149   4.5168   4.5189   4.5241   4.5259   4.5274   4.5294   4.5313
  4.5381   4.5396   4.5416   4.5430   4.5459   4.5474   4.5534   4.5630
  4.5638   4.5719   4.5802   4.5894   4.5916   4.6097   4.6152   4.6269
  4.6324   4.6353   4.6393   4.6418   4.6496   4.6552   4.6632   4.6758
  4.6858   4.6990   4.7003   4.7071   4.7102   4.7128   4.7296   4.7375
  4.7493   4.7599   4.7848   4.7931   4.8003   4.8054   4.8110   4.8176
  4.8267   4.8369   4.8693   4.9134   4.9211   4.9375   4.9670   4.9707
  4.9800   5.0310   5.0391   5.0533
 --------------------------------------------------------------
 
          Ground-State Mulliken Net Atomic Charges

     Atom                 Charge (a.u.)
  ----------------------------------------
      1 C                     0.490725
      2 O                    -0.604320
      3 C                    -0.282894
      4 C                     0.178113
      5 C                    -0.221029
      6 C                    -0.310998
      7 C                    -0.399740
      8 C                    -0.411962
      9 C                    -0.309966
     10 C                    -0.128426
     11 C                    -0.134279
     12 C                    -0.131873
     13 C                     0.003453
     14 C                    -0.303784
     15 C                    -0.321231
     16 C                    -0.302016
     17 C                    -0.341228
     18 C                     0.112446
     19 C                    -0.533230
     20 O                    -0.697566
     21 H                     0.199069
     22 H                     0.237233
     23 H                     0.152459
     24 H                     0.171502
     25 H                     0.204090
     26 H                     0.181326
     27 H                     0.171689
     28 H                     0.253168
     29 H                     0.146651
     30 H                     0.181921
     31 H                     0.135438
     32 H                     0.131073
     33 H                     0.129629
     34 H                     0.137737
     35 H                     0.174534
     36 H                     0.172785
     37 H                     0.149452
     38 H                     0.170105
     39 H                     0.152558
     40 H                     0.148874
     41 H                     0.149087
     42 H                     0.155828
     43 H                     0.161185
     44 H                     0.168601
     45 H                     0.177044
     46 H                     0.446350
     47 H                     0.142873
     48 C                    -0.456865
     49 H                     0.157794
     50 C                    -0.347717
     51 H                     0.149464
     52 H                     0.150459
     53 C                     0.107613
     54 C                    -0.192737
     55 H                     0.140385
     56 C                    -0.191877
     57 H                     0.163062
     58 C                     0.342548
     59 O                    -0.735871
     60 H                     0.470658
     61 C                    -0.218079
     62 H                     0.165400
     63 C                    -0.199657
     64 H                     0.146706
     65 H                     0.162444
     66 H                     0.143018
     67 C                    -0.460117
     68 H                     0.152665
     69 C                    -0.121841
     70 H                     0.135706
     71 C                    -0.464856
     72 H                     0.150187
     73 H                     0.157607
     74 H                     0.155072
     75 C                    -0.460582
     76 H                     0.167398
     77 H                     0.138382
     78 H                     0.154279
     79 H                     0.147189
     80 H                     0.144956
     81 C                    -0.472871
     82 H                     0.155935
     83 C                    -0.351610
     84 H                     0.167653
     85 H                     0.142259
     86 C                     0.585748
     87 O                    -0.605373
     88 O                    -0.596177
     89 H                     0.162355
     90 H                     0.153135
     91 C                    -0.454521
     92 H                     0.159844
     93 C                    -0.374541
     94 H                     0.134750
     95 H                     0.188943
     96 C                     0.101812
     97 C                    -0.189281
     98 H                     0.133679
     99 C                    -0.197533
    100 H                     0.150933
    101 C                     0.344364
    102 O                    -0.689568
    103 H                     0.460430
    104 C                    -0.233429
    105 H                     0.159948
    106 C                    -0.201494
    107 H                     0.159397
    108 H                     0.133343
    109 H                     0.151642
    110 C                    -0.586835
    111 H                     0.253425
    112 H                     0.192704
    113 C                     0.600853
    114 O                    -0.532016
    115 N                    -0.609584
    116 H                     0.340473
    117 C                    -0.151956
    118 H                     0.208595
    119 C                    -0.303892
    120 H                     0.135446
    121 H                     0.152081
    122 C                    -0.127617
    123 H                     0.163460
    124 C                    -0.466234
    125 H                     0.175657
    126 H                     0.144820
    127 H                     0.144237
    128 C                    -0.477061
    129 H                     0.146112
    130 H                     0.173081
    131 H                     0.163888
    132 H                     0.161703
    133 H                     0.144944
    134 C                    -0.458714
    135 H                     0.153814
    136 C                    -0.124109
    137 H                     0.127848
    138 C                    -0.470738
    139 H                     0.138649
    140 H                     0.170433
    141 H                     0.162600
    142 C                    -0.488561
    143 H                     0.152562
    144 H                     0.152152
    145 H                     0.186377
    146 H                     0.142929
    147 H                     0.157875
    148 C                    -0.457507
    149 H                     0.146193
    150 C                    -0.348080
    151 H                     0.153330
    152 H                     0.151785
    153 C                     0.115445
    154 C                    -0.203795
    155 H                     0.141296
    156 C                    -0.148214
    157 H                     0.154559
    158 C                    -0.147495
    159 H                     0.173608
    160 C                    -0.148511
    161 H                     0.145873
    162 C                    -0.194648
    163 H                     0.134949
    164 H                     0.163551
    165 H                     0.142888
    166 C                    -0.460240
    167 H                     0.158872
    168 C                    -0.134138
    169 H                     0.162534
    170 C                    -0.471868
    171 H                     0.149818
    172 H                     0.158096
    173 H                     0.159032
    174 C                    -0.482866
    175 H                     0.152689
    176 H                     0.170396
    177 H                     0.151365
    178 H                     0.142956
    179 H                     0.176850
    180 C                    -0.469252
    181 H                     0.151324
    182 C                    -0.313348
    183 H                     0.170060
    184 H                     0.187164
    185 C                    -0.457738
    186 H                     0.165751
    187 H                     0.206136
    188 S                     0.075386
    189 C                    -0.631113
    190 H                     0.182666
    191 H                     0.195373
    192 H                     0.198523
    193 H                     0.142945
    194 H                     0.146257
    195 C                    -0.469387
    196 H                     0.151029
    197 C                    -0.277244
    198 H                     0.140085
    199 H                     0.140381
    200 C                    -0.117967
    201 H                     0.131654
    202 C                    -0.472897
    203 H                     0.143401
    204 H                     0.146484
    205 H                     0.166010
    206 C                    -0.475422
    207 H                     0.147646
    208 H                     0.168122
    209 H                     0.167820
    210 H                     0.148732
    211 H                     0.146001
    212 C                    -0.463639
    213 H                     0.149928
    214 C                    -0.118629
    215 H                     0.141948
    216 C                    -0.482151
    217 H                     0.200563
    218 H                     0.129384
    219 H                     0.134971
    220 C                    -0.466496
    221 H                     0.160208
    222 H                     0.145557
    223 H                     0.153380
    224 H                     0.138491
    225 H                     0.193487
    226 C                    -0.486350
    227 H                     0.171357
    228 C                    -0.370951
    229 H                     0.175290
    230 H                     0.175702
    231 C                     0.575736
    232 O                    -0.460737
    233 O                    -0.609864
    234 H                     0.472829
    235 H                     0.151590
    236 H                     0.145985
    237 C                    -0.470521
    238 H                     0.140166
    239 C                    -0.271210
    240 H                     0.145405
    241 H                     0.158040
    242 C                    -0.468920
    243 H                     0.167284
    244 H                     0.211146
    245 S                     0.055961
    246 C                    -0.642991
    247 H                     0.173455
    248 H                     0.176273
    249 H                     0.246946
    250 H                     0.178799
    251 H                     0.182831
    252 C                    -0.476411
    253 H                     0.135476
    254 C                    -0.471305
    255 H                     0.151675
    256 H                     0.166556
    257 H                     0.156043
    258 H                     0.143828
    259 H                     0.155101
    260 C                    -0.457393
    261 H                     0.139229
    262 C                    -0.348423
    263 H                     0.156499
    264 H                     0.150234
    265 C                     0.012229
    266 C                    -0.009213
    267 H                     0.172837
    268 N                    -0.720656
    269 H                     0.409043
    270 C                     0.279638
    271 C                    -0.182493
    272 H                     0.156697
    273 C                    -0.175542
    274 H                     0.133819
    275 C                    -0.177371
    276 H                     0.127340
    277 C                    -0.213078
    278 H                     0.136300
    279 C                     0.035950
    280 H                     0.154574
    281 O                    -0.864612
    282 H                     0.408736
    283 H                     0.445928
    284 O                    -0.892923
    285 H                     0.439793
    286 H                     0.420833
    287 O                    -0.841585
    288 H                     0.454887
    289 H                     0.384826
    290 O                    -0.848869
    291 H                     0.407480
    292 H                     0.440276
    293 O                    -0.867706
    294 H                     0.435048
    295 H                     0.427709
    296 O                    -0.848165
    297 H                     0.406510
    298 H                     0.432670
  ----------------------------------------
  Sum of atomic charges =    -1.000000

 -----------------------------------------------------------------
                    Cartesian Multipole Moments
 -----------------------------------------------------------------
    Charge (ESU x 10^10)
                -4.8032
    Dipole Moment (Debye)
         X     -15.3001      Y     -27.1843      Z      45.0596
       Tot      54.8038
    Quadrupole Moments (Debye-Ang)
        XX    -893.4337     XY    -131.4042     YY   -1009.9177
        XZ     198.5576     YZ     269.3043     ZZ   -1238.6103
    Octopole Moments (Debye-Ang^2)
       XXX  -11600.1961    XXY   -4705.6967    XYY   -4836.6321
       YYY  -13136.9502    XXZ    9077.3231    XYZ    1822.3550
       YYZ   10112.6922    XZZ   -6290.7959    YZZ   -6962.5876
       ZZZ   27565.3591
    Hexadecapole Moments (Debye-Ang^3)
      XXXX -165420.9074   XXXY  -69314.8764   XXYY  -67777.8144
      XYYY  -73164.9924   YYYY -212063.6860   XXXZ  123677.4966
      XXYZ   51079.4280   XYYZ   55909.8827   YYYZ  133501.3994
      XXZZ -134422.9864   XYZZ  -47973.4799   YYZZ -153834.9882
      XZZZ  148845.5857   YZZZ  154294.2454   ZZZZ -573098.3913
 -----------------------------------------------------------------
 Total job time:  2240.43s(wall), 66125.89s(cpu) 
 Fri Aug  9 14:32:28 2024

        *************************************************************
        *                                                           *
        *  Thank you very much for using Q-Chem.  Have a nice day.  *
        *                                                           *
        *************************************************************



Running Job 2 of 2 19nt_mm_min_distance_cutoff4_xtb_optimized_spade_wb97x-v_631gd.in
qchem 19nt_mm_min_distance_cutoff4_xtb_optimized_spade_wb97x-v_631gd.in_559002.1 ./qchem559002/ 1
srun -n 1 /cm/shared/apps/spack/0.17.3/cpu/b/opt/spack/linux-rocky8-zen2/gcc-10.2.0/qchem-6.0-rytxnwjazd34ekd2gqyi5ufsaimxsd3r/exe/qcprog.exe 19nt_mm_min_distance_cutoff4_xtb_optimized_spade_wb97x-v_631gd.in_559002.1 ./qchem559002/

                  Welcome to Q-Chem
     A Quantum Leap Into The Future Of Chemistry


 Q-Chem 6.0, Q-Chem, Inc., Pleasanton, CA (2022)

 License issued to: University of California, San Diego (site)

 E. Epifanovsky,  A. T. B. Gilbert,  Xintian Feng,  Joonho Lee,  Yuezhi Mao,  
 N. Mardirossian,  P. Pokhilko,  A. White,  M. Wormit,  M. P. Coons,  
 A. L. Dempwolff,  Zhengting Gan,  D. Hait,  P. R. Horn,  L. D. Jacobson,  
 I. Kaliman,  J. Kussmann,  A. W. Lange,  Ka Un Lao,  D. S. Levine,  Jie Liu,  
 S. C. McKenzie,  A. F. Morrison,  K. Nanda,  F. Plasser,  D. R. Rehn,  
 M. L. Vidal,  Zhi-Qiang You,  Ying Zhu,  B. Alam,  B. Albrecht,  
 A. Aldossary,  E. Alguire,  J. H. Andersen,  V. Athavale,  D. Barton,  
 K. Begam,  A. Behn,  N. Bellonzi,  Y. A. Bernard,  E. J. Berquist,  
 H. Burton,  A. Carreras,  K. Carter-Fenk,  Romit Chakraborty,  
 Chandrima Chakravarty,  Junhan Chen,  A. D. Chien,  K. D. Closser,  
 V. Cofer-Shabica,  L. Cunha,  S. Dasgupta,  Jia Deng,  M. de Wergifosse,  
 M. Diedenhofen,  Hainam Do,  S. Ehlert,  Po-Tung Fang,  S. Fatehi,  
 Qingguo Feng,  T. Friedhoff,  B. Ganoe,  J. Gayvert,  Qinghui Ge,  
 G. Gidofalvi,  M. Goldey,  J. Gomes,  C. Gonzalez-Espinoza,  S. Gulania,  
 A. Gunina,  J. A. Gyamfi,  M. W. D. Hanson-Heine,  P. H. P. Harbach,  
 A. W. Hauser,  M. F. Herbst,  M. Hernandez Vera,  M. Hodecker,  
 Z. C. Holden,  S. Houck,  Xunkun Huang,  Kerwin Hui,  B. C. Huynh,  
 K. Ikeda,  M. Ivanov,  Hyunjun Ji,  Zuxin Jin,  Hanjie Jiang,  B. Kaduk,  
 S. Kaehler,  R. Kang,  K. Khistyaev,  Jaehoon Kim,  Yongbin Kim,  
 P. Klunzinger,  Z. Koczor-Benda,  Joong Hoon Koh,  D. Kosenkov,  
 Saikiran Kotaru,  L. Koulias,  T. Kowalczyk,  C. M. Krauter,  K. Kue,  
 A. Kunitsa,  T. Kus,  A. Landau,  K. V. Lawler,  D. Lefrancois,  S. Lehtola,  
 Rain Li,  Shaozhi Li,  Yi-Pei Li,  Jiashu Liang,  M. Liebenthal,  
 Hung-Hsuan Lin,  You-Sheng Lin,  Fenglai Liu,  Kuan-Yu Liu,  
[...]
          217         218         219         220         221         222
    1  -0.3182187   0.6812717  -1.7285136   0.0823280  -0.4162122   1.5163293
    2  -1.4214513  -1.0178995   0.7164542   0.4454912  -0.9073940   1.1666883
    3   0.9493370   3.6626708   2.4731686   0.1321308  -0.7541452  -0.3975700
          223         224         225         226         227         228
    1  -1.2554102   1.4204055   0.7149969  -0.5738616  -2.2847168  -0.1014003
    2   1.1941208  -0.0295076   0.7747126  -0.4615560   0.0986080  -1.9307150
    3   0.7539534   3.6198733   2.5231945   2.6142941   2.0009163   2.0487490
          229         230         231         232         233         234
    1   1.7340783  -1.4971263  -0.2243337   0.7993942  -1.0484204  -0.2354004
    2  -2.3616885  -3.0503273  -1.3084331   0.5606748  -1.7903037   0.0519461
    3   2.2301130   1.6614238   1.3816066   0.6029576  -0.0175987  -2.1078920
          235         236         237         238         239         240
    1  -0.4064634  -2.5476883  -2.1732921  -1.4501274  -1.2299267  -0.1697552
    2  -1.4288377  -2.3245100  -1.1791872  -1.2315006  -1.9312443  -3.1862002
    3   3.6257492  -0.0953929   0.9165699   2.7556892   0.1838124   0.8653890
          241         242         243         244         245         246
    1  -1.7000491  -0.7019847  -1.0557798   0.6230895  -2.0802828  -1.0174217
    2  -1.5805146  -1.3733994  -0.8454869  -1.6230998   0.1315899  -0.4507041
    3  -1.8475685   1.4224859   3.4255150   0.5390170   0.7851954  -1.1278270
          247         248         249         250         251         252
    1  -2.1029298   0.7286397  -1.6091931  -3.0045783  -2.9906205  -1.5228562
    2  -1.7769572  -0.7484131   0.9105772   0.5709000  -0.1659243   0.4138888
    3  -1.9076706  -0.3427010  -1.2568646   0.4417659   1.3576184   1.9803099
          253         254         255         256         257         258
    1  -0.8456097  -0.4251178   0.8967119  -0.8020606  -0.6405694  -1.5567664
    2  -0.3071214   0.0379766   0.6117345   0.5796095  -1.4327430   2.0125283
    3   3.4495661   0.7828478   1.4048903  -0.7622444   0.8176166   1.8673788
          259         260         261         262         263         264
    1  -2.6270975  -0.7908088   0.3132831   0.0949274   1.8142081  -0.4343648
    2   0.7847754   1.4983159   1.0679496   0.5647341   1.2544229  -1.0751009
    3   2.1228051   2.3037707   3.4478818   2.1785634   1.8713130   2.7973330
          265         266         267         268         269         270
    1  -0.4394835  -1.1823422  -1.3970878  -1.5593401  -1.8401894  -1.0119892
    2   0.8547049  -0.4046941  -1.1266973   0.1821444  -0.0738915   1.3432877
    3   1.7346868   1.5446989   1.9953243  -0.2723647  -0.9428405  -0.4382173
          271         272         273         274         275         276
    1  -1.3029300  -1.8774096  -0.5980159  -0.6175413   0.1055072   0.7010263
    2   1.3014158   0.8510514   2.3943473   2.8577816   2.9428860   3.8117510
    3  -1.4278774  -2.3534042  -1.2438739  -2.1448737  -0.0097009   0.0230357
          277         278         279         280         281         282
    1   0.1802041   0.8410981  -0.3629188  -0.5227018  -0.6606151  -0.3618692
    2   2.4334339   2.8178875   1.6995045   3.1641534   0.4423153   3.0867428
    3   1.3094573   2.4078713   0.9540903   1.3059564  -1.1131827  -0.1025974
          283         284         285         286         287         288
    1  -1.8607977  -0.2712298  -0.1709863  -1.5989238  -0.7589369  -1.1120732
    2  -0.8209401   1.2932049  -0.6607968   2.1742354   0.7164075   0.8255251
    3  -0.1430139  -1.9192827  -0.8734900   0.1650467  -0.8888549   1.0909831
          289         290         291         292         293         294
    1  -3.6176791   0.0454888   0.5065384   1.1668377   0.8927804  -0.9087728
    2   0.1643617   2.2538096   0.8569575   0.8806254   1.3072122   0.7828875
    3  -1.8541085  -0.4554086   2.0703955  -2.0086929  -1.4509789  -2.6711765
          295         296         297         298
    1   0.3135358  -0.9604966  -2.6184748   0.7953434
    2  -0.5291371   1.1410597   3.0640747   2.5572951
    3   0.8628537  -0.3362202  -1.2907673  -0.3018288
 EField
            1           2           3           4           5           6
    1   0.0040214   0.0128147  -0.0022460  -0.0085274  -0.0129563  -0.0041201
    2   0.0288972   0.0490114   0.0192121   0.0125638   0.0095403   0.0098013
    3  -0.0097643  -0.0222545  -0.0014097  -0.0036668  -0.0033411  -0.0034718
            7           8           9          10          11          12
    1   0.0013686  -0.0134704  -0.0094662  -0.0077905  -0.0089319  -0.0059106
    2   0.0160518   0.0065313   0.0006181  -0.0016192   0.0016527  -0.0016368
    3  -0.0107714  -0.0039536   0.0015005   0.0012800  -0.0003490   0.0008467
           13          14          15          16          17          18
    1  -0.0060603  -0.0055422  -0.0073313  -0.0063809  -0.0084990  -0.0090207
    2  -0.0024495  -0.0000216   0.0017394  -0.0025088  -0.0044140  -0.0064549
    3  -0.0007328  -0.0013946  -0.0002743   0.0032841   0.0022295   0.0019231
           19          20          21          22          23          24
    1  -0.0025081  -0.0232197   0.0015229  -0.0251988  -0.0019350  -0.0053120
    2  -0.0010015  -0.0092998   0.0158535   0.0148484   0.0065818   0.0067700
    3  -0.0022582   0.0055611   0.0055882  -0.0007528  -0.0035702  -0.0013975
           25          26          27          28          29          30
    1   0.0009194   0.0048782  -0.0057684  -0.0272231  -0.0102080  -0.0078367
    2   0.0173827   0.0106961   0.0066288   0.0074301   0.0019932  -0.0000980
    3  -0.0061572  -0.0172937  -0.0063052  -0.0069691   0.0011675   0.0023780
           31          32          33          34          35          36
    1  -0.0036368  -0.0078080  -0.0057813  -0.0036384  -0.0084104  -0.0092880
    2  -0.0061049   0.0027415  -0.0005609   0.0008443   0.0016207   0.0004280
    3   0.0029022  -0.0012789  -0.0004876  -0.0001006  -0.0037238  -0.0003166
           37          38          39          40          41          42
    1  -0.0063609  -0.0082728  -0.0026743  -0.0091540  -0.0093444  -0.0028790
    2   0.0037600  -0.0016451  -0.0032599  -0.0031246  -0.0050181  -0.0095059
    3   0.0002620   0.0040208   0.0046282   0.0038924  -0.0004768   0.0030432
           43          44          45          46          47          48
    1   0.0007016  -0.0004415  -0.0015211  -0.0288860   0.0261299   0.0001231
    2   0.0003198  -0.0012495  -0.0043706  -0.0002557  -0.0283503   0.0003403
    3  -0.0050829  -0.0010906  -0.0007731  -0.0020487   0.0055896   0.0000817
           49          50          51          52          53          54
    1  -0.0180236   0.0006542  -0.0164363   0.0192328  -0.0006832   0.0034214
    2  -0.0093962  -0.0006705  -0.0307231   0.0057342   0.0010925   0.0059804
    3  -0.0336577  -0.0008249   0.0114309   0.0308136  -0.0026970   0.0019620
           55          56          57          58          59          60
    1  -0.0074992   0.0055372  -0.0342952   0.0222244  -0.0858827  -0.0065299
    2  -0.0411998  -0.0047790  -0.0118346  -0.0333062  -0.0204492   0.0017058
    3  -0.0135766   0.0007682  -0.0270207   0.0031506  -0.0751867  -0.0167933
           61          62          63          64          65          66
    1   0.0081998   0.0246932  -0.0029497   0.0364314   0.0205460   0.0206661
    2  -0.0156380   0.0265867  -0.0078455   0.0068558   0.0302538  -0.0304844
    3  -0.0039117   0.0114953  -0.0058190   0.0230549  -0.0115980  -0.0096036
           67          68          69          70          71          72
    1  -0.0029576  -0.0250342  -0.0006967   0.0242510   0.0019216   0.0220727
    2   0.0006089   0.0068921   0.0006444  -0.0048837  -0.0016650   0.0343469
    3   0.0036811  -0.0307275  -0.0014346   0.0247311  -0.0023501   0.0007484
           73          74          75          76          77          78
    1  -0.0291915  -0.0171774   0.0020448  -0.0189236   0.0166203  -0.0291925
    2   0.0110499   0.0016202   0.0038325  -0.0060715  -0.0343124   0.0045581
    3  -0.0263252   0.0326430  -0.0003771   0.0309042  -0.0084982  -0.0276813
           79          80          81          82          83          84
    1   0.0239630  -0.0238224   0.0026583   0.0092743   0.0066771  -0.0037186
    2   0.0305018   0.0027759   0.0005610   0.0347178  -0.0001173  -0.0310362
    3  -0.0018643   0.0256418  -0.0020710  -0.0122450  -0.0030431   0.0111182
           85          86          87          88          89          90
    1   0.0187109   0.0037044   0.0773931  -0.0091235  -0.0132268  -0.0070248
    2   0.0174907   0.0012721   0.0652527  -0.0751354  -0.0177922  -0.0302560
    3   0.0252309   0.0031289  -0.0157446  -0.0568503  -0.0295314  -0.0203138
           91          92          93          94          95          96
    1   0.0014591  -0.0309562   0.0000194   0.0322253   0.0083620  -0.0007912
    2   0.0001909   0.0037406   0.0028363  -0.0013436   0.0342347  -0.0010368
    3   0.0029492   0.0219043   0.0034523  -0.0188037   0.0236119   0.0035901
           97          98          99         100         101         102
    1  -0.0026979   0.0134504  -0.0004650   0.0098937   0.0024299   0.0088378
    2   0.0040857  -0.0045363   0.0072593  -0.0381056   0.0242995  -0.1082398
    3   0.0093667  -0.0393253   0.0002450  -0.0131182  -0.0190935  -0.0313482
          103         104         105         106         107         108
    1  -0.0036013   0.0028430  -0.0141964   0.0036458  -0.0060155  -0.0005728
    2   0.0139451   0.0050030   0.0120006  -0.0022528   0.0454513   0.0308123
    3   0.0427881  -0.0085572   0.0326772  -0.0033623   0.0171720  -0.0230135
          109         110         111         112         113         114
    1  -0.0268562  -0.0017160  -0.0168668   0.0003446  -0.0072386   0.0796489
    2  -0.0076642   0.0016868  -0.0127223   0.0383893   0.0100360   0.0528527
    3  -0.0274022   0.0073145   0.0389390   0.0046438   0.0063873   0.0477271
          115         116         117         118         119         120
    1   0.0042462  -0.0384756   0.0178437   0.0221266  -0.0015578  -0.0228887
    2   0.0045248  -0.0210597  -0.0058233   0.0204636   0.0001232  -0.0202273
    3   0.0039805  -0.0122311   0.0003706   0.0195150   0.0072736  -0.0215763
          121         122         123         124         125         126
    1   0.0317924  -0.0015616  -0.0328797  -0.0013449  -0.0120900  -0.0276743
    2  -0.0148980   0.0009219   0.0161762   0.0046156  -0.0112086  -0.0159571
    3  -0.0107024   0.0024899   0.0133962   0.0016331   0.0348456  -0.0218211
          127         128         129         130         131         132
    1   0.0330492  -0.0043769   0.0362735  -0.0003283  -0.0064694   0.0088510
    2  -0.0180328   0.0005742  -0.0104635   0.0406518  -0.0100788   0.0095023
    3  -0.0064467  -0.0004488  -0.0085016   0.0059655   0.0387417  -0.0314154
          133         134         135         136         137         138
    1   0.0051819  -0.0050638   0.0155825  -0.0006172  -0.0131579  -0.0008192
    2   0.0106475  -0.0011958   0.0277783  -0.0000284  -0.0273007   0.0016114
    3  -0.0361824   0.0014094   0.0219558   0.0008475  -0.0200303  -0.0024041
          139         140         141         142         143         144
    1   0.0195353   0.0099256  -0.0392856  -0.0003060   0.0075394   0.0041774
    2  -0.0323718   0.0276415  -0.0083138  -0.0060281   0.0243421   0.0169114
    3   0.0094893   0.0266396   0.0130734  -0.0000435   0.0273169  -0.0362994
          145         146         147         148         149         150
    1  -0.0424711   0.0229182  -0.0258933  -0.0007066   0.0326703  -0.0003593
    2  -0.0072591  -0.0304415  -0.0163488   0.0007622   0.0004733   0.0009035
    3   0.0008049   0.0058516   0.0221159  -0.0009345   0.0196112  -0.0002690
          151         152         153         154         155         156
    1   0.0262342   0.0143188  -0.0045940  -0.0058404   0.0271900   0.0008419
    2   0.0158980  -0.0334143   0.0017011  -0.0046814   0.0312892  -0.0031496
    3  -0.0201682   0.0001659  -0.0017140   0.0013179  -0.0080172   0.0046995
          157         158         159         160         161         162
    1  -0.0103357   0.0063367  -0.0362256   0.0068525  -0.0260388  -0.0011506
    2   0.0358621   0.0038498   0.0081789   0.0083684  -0.0262982   0.0079773
    3  -0.0274842   0.0034913  -0.0132937  -0.0002920   0.0095220  -0.0055911
          163         164         165         166         167         168
    1   0.0095462  -0.0125865   0.0072273  -0.0052837   0.0246398  -0.0022701
    2  -0.0303320   0.0365609  -0.0264019  -0.0003900  -0.0060281   0.0004703
    3   0.0255421  -0.0004111   0.0272125  -0.0021618  -0.0286509  -0.0011519
          169         170         171         172         173         174
    1  -0.0066459  -0.0005574   0.0011722   0.0206744  -0.0391887   0.0001253
    2   0.0232738   0.0041812  -0.0284541  -0.0104456  -0.0014956  -0.0005757
    3  -0.0284761   0.0008596   0.0263801  -0.0301275  -0.0148856  -0.0042044
          175         176         177         178         179         180
    1   0.0006964  -0.0416712   0.0024035   0.0100722   0.0155866   0.0000863
    2  -0.0224697   0.0002826   0.0369332   0.0328928  -0.0217733  -0.0015631
    3   0.0316929  -0.0099468   0.0142598   0.0154032   0.0272907   0.0010970
          181         182         183         184         185         186
    1   0.0213095   0.0046523  -0.0038666  -0.0133274   0.0004139   0.0082910
    2  -0.0048856  -0.0003462  -0.0339116   0.0185641   0.0074112   0.0357828
    3  -0.0317405  -0.0038081  -0.0178346  -0.0294043  -0.0076556   0.0153785
          187         188         189         190         191         192
    1  -0.0252450   0.0181239  -0.0049859   0.0178198  -0.0408414   0.0051000
    2  -0.0018745  -0.0402766   0.0048293   0.0321986   0.0048951  -0.0225983
    3   0.0004713  -0.0060074   0.0100147   0.0075524   0.0032145   0.0340477
          193         194         195         196         197         198
    1   0.0089283   0.0215637  -0.0037248   0.0026751  -0.0040677  -0.0039933
    2   0.0352758   0.0201233  -0.0005122   0.0165767  -0.0034523  -0.0128012
    3   0.0111550  -0.0228885  -0.0008488   0.0335143   0.0023215  -0.0356105
          199         200         201         202         203         204
    1  -0.0188193  -0.0023741   0.0162900  -0.0005436   0.0303560  -0.0223184
    2   0.0324249   0.0004898  -0.0315976  -0.0029037   0.0088768   0.0327528
    3  -0.0055107  -0.0029713   0.0052935  -0.0044127   0.0204656  -0.0050819
          205         206         207         208         209         210
    1  -0.0217151  -0.0016270   0.0006314  -0.0261072  -0.0298142   0.0169070
    2  -0.0219771   0.0008116  -0.0210011   0.0278948  -0.0227957  -0.0341248
    3   0.0213567  -0.0001369  -0.0361217  -0.0124883   0.0170691   0.0036461
          211         212         213         214         215         216
    1   0.0257199  -0.0025119  -0.0314747  -0.0011129   0.0281337   0.0022579
    2   0.0246177  -0.0033225   0.0237266   0.0008184  -0.0191258   0.0017011
    3  -0.0167610  -0.0044845   0.0058377  -0.0013716  -0.0081655  -0.0057934
          217         218         219         220         221         222
    1  -0.0114057   0.0120626  -0.0346036  -0.0012905  -0.0144491   0.0236858
    2  -0.0272852  -0.0138686   0.0207435   0.0000716  -0.0261996   0.0233272
    3  -0.0235038   0.0325259   0.0065786   0.0010681  -0.0261262  -0.0238214
          223         224         225         226         227         228
    1  -0.0344862   0.0134464   0.0234158   0.0007867  -0.0354327  -0.0020243
    2   0.0252177  -0.0101502   0.0323020   0.0056388   0.0186965  -0.0008904
    3  -0.0021958   0.0331347   0.0021953   0.0033713  -0.0031112   0.0066667
          229         230         231         232         233         234
    1   0.0325164  -0.0231329   0.0113790   0.0677427  -0.0645995   0.0013182
    2  -0.0154145  -0.0286446   0.0099754   0.0981957  -0.0849930   0.0088803
    3   0.0116922   0.0009351   0.0281576  -0.0095353   0.0282838   0.0221169
          235         236         237         238         239         240
    1  -0.0013764  -0.0238332   0.0000558   0.0002502  -0.0032693   0.0156697
    2  -0.0138126  -0.0278817   0.0023772  -0.0044729   0.0006721  -0.0323787
    3   0.0365952  -0.0120409  -0.0010380   0.0382230   0.0008267   0.0057800
          241         242         243         244         245         246
    1  -0.0060962   0.0017901  -0.0000901   0.0308622  -0.0282344   0.0002127
    2  -0.0000410  -0.0100967   0.0038593  -0.0034877   0.0326106   0.0092797
    3  -0.0354363   0.0031200   0.0395224  -0.0010030   0.0205297  -0.0130381
          247         248         249         250         251         252
    1  -0.0196128   0.0253925  -0.0017059  -0.0199874  -0.0333091  -0.0015628
    2  -0.0217727   0.0061720   0.0428945   0.0332145  -0.0128267   0.0014287
    3  -0.0278284   0.0045737  -0.0224271  -0.0067083  -0.0106595  -0.0025945
          253         254         255         256         257         258
    1   0.0073826   0.0015619   0.0393700  -0.0036893   0.0021628  -0.0041496
    2  -0.0101570   0.0044189   0.0128962   0.0181456  -0.0304455   0.0391893
    3   0.0345303  -0.0026916   0.0041626  -0.0402703  -0.0047162   0.0015078
          259         260         261         262         263         264
    1  -0.0371408  -0.0001860   0.0151942   0.0002086   0.0363129   0.0011061
    2  -0.0072009  -0.0017162   0.0006802   0.0003845   0.0036707  -0.0331738
    3   0.0024164  -0.0030928   0.0331871  -0.0009285  -0.0035629   0.0122547
          265         266         267         268         269         270
    1  -0.0025234   0.0121413  -0.0104724  -0.0068082  -0.0204438   0.0110958
    2  -0.0041339   0.0058351  -0.0401328  -0.0105785  -0.0327257   0.0133167
    3  -0.0059158   0.0114892   0.0137012  -0.0132312  -0.0385733  -0.0037829
          271         272         273         274         275         276
    1   0.0059121  -0.0189648   0.0000742  -0.0015440  -0.0029871   0.0172996
    2   0.0022673  -0.0182356  -0.0084372   0.0197306  -0.0099914   0.0339999
    3   0.0011418  -0.0354992   0.0055563  -0.0348843   0.0009350  -0.0019796
          277         278         279         280         281         282
    1  -0.0027763   0.0204181   0.0007840   0.0003849   0.0396141   0.0133626
    2  -0.0024225   0.0137007  -0.0025183   0.0352128  -0.0435307   0.0413899
    3  -0.0110472   0.0311220  -0.0030103  -0.0145295  -0.0712999   0.0324727
          283         284         285         286         287         288
    1  -0.0142914   0.0261304  -0.0065567  -0.0284979   0.1017110  -0.0051302
    2  -0.0172957   0.0369457  -0.0498714   0.0270807   0.0130268   0.0046606
    3   0.0324399  -0.0896479   0.0163555   0.0448620  -0.0382043   0.0613933
          289         290         291         292         293         294
    1  -0.0464906  -0.0461691   0.0048357   0.0211682   0.0734390  -0.0487762
    2  -0.0095788   0.0985324  -0.0112530  -0.0273166   0.0673473  -0.0124822
    3  -0.0191113  -0.0343745   0.0443881  -0.0364165  -0.0406690  -0.0333636
          295         296         297         298
    1  -0.0004477   0.0005418  -0.0414162   0.0363179
    2  -0.0329943  -0.1076976   0.0308001   0.0199344
    3   0.0245308   0.0340277  -0.0121294   0.0077062
  --- DONE ESP SUMMARY ---
 Total job time:  9.52s(wall), 110.84s(cpu) 
 Fri Aug  9 14:32:40 2024

        *************************************************************
        *                                                           *
        *  Thank you very much for using Q-Chem.  Have a nice day.  *
        *                                                           *
        *************************************************************


