
Running Job 1 of 2 19nt_mm_min_distance_cutoff3_xtb_optimized_spade_wb97x-v_631gd.in
qchem 19nt_mm_min_distance_cutoff3_xtb_optimized_spade_wb97x-v_631gd.in_619636.0 ./qchem619636/ 1
srun -n 1 /cm/shared/apps/spack/0.17.3/cpu/b/opt/spack/linux-rocky8-zen2/gcc-10.2.0/qchem-6.0-rytxnwjazd34ekd2gqyi5ufsaimxsd3r/exe/qcprog.exe 19nt_mm_min_distance_cutoff3_xtb_optimized_spade_wb97x-v_631gd.in_619636.0 ./qchem619636/

                  Welcome to Q-Chem
     A Quantum Leap Into The Future Of Chemistry


 Q-Chem 6.0, Q-Chem, Inc., Pleasanton, CA (2022)

 License issued to: University of California, San Diego (site)

 E. Epifanovsky,  A. T. B. Gilbert,  Xintian Feng,  Joonho Lee,  Yuezhi Mao,  
 N. Mardirossian,  P. Pokhilko,  A. White,  M. Wormit,  M. P. Coons,  
 A. L. Dempwolff,  Zhengting Gan,  D. Hait,  P. R. Horn,  L. D. Jacobson,  
 I. Kaliman,  J. Kussmann,  A. W. Lange,  Ka Un Lao,  D. S. Levine,  Jie Liu,  
 S. C. McKenzie,  A. F. Morrison,  K. Nanda,  F. Plasser,  D. R. Rehn,  
 M. L. Vidal,  Zhi-Qiang You,  Ying Zhu,  B. Alam,  B. Albrecht,  
 A. Aldossary,  E. Alguire,  J. H. Andersen,  V. Athavale,  D. Barton,  
 K. Begam,  A. Behn,  N. Bellonzi,  Y. A. Bernard,  E. J. Berquist,  
 H. Burton,  A. Carreras,  K. Carter-Fenk,  Romit Chakraborty,  
 Chandrima Chakravarty,  Junhan Chen,  A. D. Chien,  K. D. Closser,  
 V. Cofer-Shabica,  L. Cunha,  S. Dasgupta,  Jia Deng,  M. de Wergifosse,  
 M. Diedenhofen,  Hainam Do,  S. Ehlert,  Po-Tung Fang,  S. Fatehi,  
 Qingguo Feng,  T. Friedhoff,  B. Ganoe,  J. Gayvert,  Qinghui Ge,  
 G. Gidofalvi,  M. Goldey,  J. Gomes,  C. Gonzalez-Espinoza,  S. Gulania,  
 A. Gunina,  J. A. Gyamfi,  M. W. D. Hanson-Heine,  P. H. P. Harbach,  
 A. W. Hauser,  M. F. Herbst,  M. Hernandez Vera,  M. Hodecker,  
 Z. C. Holden,  S. Houck,  Xunkun Huang,  Kerwin Hui,  B. C. Huynh,  
 K. Ikeda,  M. Ivanov,  Hyunjun Ji,  Zuxin Jin,  Hanjie Jiang,  B. Kaduk,  
 S. Kaehler,  R. Kang,  K. Khistyaev,  Jaehoon Kim,  Yongbin Kim,  
 P. Klunzinger,  Z. Koczor-Benda,  Joong Hoon Koh,  D. Kosenkov,  
 Saikiran Kotaru,  L. Koulias,  T. Kowalczyk,  C. M. Krauter,  K. Kue,  
 A. Kunitsa,  T. Kus,  A. Landau,  K. V. Lawler,  D. Lefrancois,  S. Lehtola,  
 Rain Li,  Shaozhi Li,  Yi-Pei Li,  Jiashu Liang,  M. Liebenthal,  
 Hung-Hsuan Lin,  You-Sheng Lin,  Fenglai Liu,  Kuan-Yu Liu,  
 M. Loipersberger,  A. Luenser,  C. Malbon,  A. Manjanath,  P. Manohar,  
 E. Mansoor,  S. F. Manzer,  Shan-Ping Mao,  A. V. Marenich,  T. Markovich,  
 S. Mason,  F. Matz,  S. A. Maurer,  P. F. McLaughlin,  M. F. S. J. Menger,  
 J.-M. Mewes,  S. A. Mewes,  P. Morgante,  Mohammad Mostafanejad,  
 J. W. Mullinax,  K. J. Oosterbaan,  G. Paran,  V. Parravicini,  
 Alexander C. Paul,  Suranjan K. Paul,  F. Pavosevic,  Zheng Pei,  S. Prager,  
 E. I. Proynov,  E. Ramos,  B. Rana,  A. E. Rask,  A. Rettig,  R. M. Richard,  
 F. Rob,  E. Rossomme,  T. Scheele,  M. Scheurer,  M. Schneider,  
 P. E. Schneider,  N. Sergueev,  S. M. Sharada,  Hengyuan Shen,  
 W. Skomorowski,  D. W. Small,  C. J. Stein,  Yingli Su,  Yu-Chuan Su,  
 E. J. Sundstrom,  Zhen Tao,  J. Thirman,  Hung-Yi Tsai,  T. Tsuchimochi,  
 N. M. Tubman,  C. Utku,  S. P. Veccham,  O. Vydrov,  J. Wenzel,  
 Jonathan Wong,  J. Witte,  A. Yamada,  Chou-Hsun Yang,  Kun Yao,  
 S. Yeganeh,  S. R. Yost,  A. Zech,  F. Zeller,  Igor Ying Zhang,  
 Xing Zhang,  Yu Zhang,  D. Zuev,  A. Aspuru-Guzik,  A. T. Bell,  
 N. A. Besley,  K. B. Bravaya,  B. R. Brooks,  D. Casanova,  Jeng-Da Chai,  
 Hsing-Ta Chen,  S. Coriani,  C. J. Cramer,  A. E. DePrince, III,  
 R. A. DiStasio Jr.,  A. Dreuw,  B. D. Dunietz,  T. R. Furlani,  
 W. A. Goddard III,  S. Grimme,  S. Hammes-Schiffer,  T. Head-Gordon,  
 W. J. Hehre,  Chao-Ping Hsu,  T.-C. Jagau,  Yousung Jung,  A. Klamt,  
 Jing Kong,  D. S. Lambrecht,  Xiangyuan Li,  WanZhen Liang,  N. J. Mayhall,  
 C. W. McCurdy,  J. B. Neaton,  T. Neudecker,  C. Ochsenfeld,  
 J. A. Parkhill,  R. Peverati,  V. A. Rassolov,  Haisheng Ren,  Yihan Shao,  
 L. V. Slipchenko,  R. P. Steele,  J. E. Subotnik,  A. J. W. Thom,  
 A. Tkatchenko,  D. G. Truhlar,  T. Van Voorhis,  Fan Wang,  
 T. A. Wesolowski,  K. B. Whaley,  H. L. Woodcock III,  P. M. Zimmerman,  
 S. Faraji,  P. M. W. Gill,  M. Head-Gordon,  J. M. Herbert,  A. I. Krylov

 Contributors to earlier versions of Q-Chem not listed above: 
 R. D. Adamson,  B. Austin,  R. Baer,  J. Baker,  G. J. O. Beran,  
 K. Brandhorst,  S. T. Brown,  E. F. C. Byrd,  Arup K. Chakraborty,  
 G. K. L. Chan,  Chun-Min Chang,  Yunqing Chen,  C.-L. Cheng,  
 Siu Hung Chien,  D. M. Chipman,  D. L. Crittenden,  H. Dachsel,  
 R. J. Doerksen,  A. D. Dutoi,  R. G. Edgar,  J. Fosso-Tande,  
 L. Fusti-Molnar,  D. Ghosh,  A. Ghysels,  A. Golubeva-Zadorozhnaya,  
 J. Gonthier,  M. S. Gordon,  S. R. Gwaltney,  G. Hawkins,  J. E. Herr,  
 A. Heyden,  S. Hirata,  E. G. Hohenstein,  G. Kedziora,  F. J. Keil,  
 C. Kelley,  Jihan Kim,  R. A. King,  R. Z. Khaliullin,  P. P. Korambath,  
 W. Kurlancheek,  A. Laurent,  A. M. Lee,  M. S. Lee,  S. V. Levchenko,  
 Ching Yeh Lin,  D. Liotard,  E. Livshits,  R. C. Lochan,  I. Lotan,  
 L. A. Martinez-Martinez,  P. E. Maslen,  N. Nair,  D. P. O'Neill,  
 D. Neuhauser,  E. Neuscamman,  C. M. Oana,  R. Olivares-Amaya,  R. Olson,  
 T. M. Perrine,  B. Peters,  P. A. Pieniazek,  A. Prociuk,  Y. M. Rhee,  
 J. Ritchie,  M. A. Rohrdanz,  E. Rosta,  N. J. Russ,  H. F. Schaefer III,  
 M. W. Schmidt,  N. E. Schultz,  S. Sharma,  N. Shenvi,  C. D. Sherrill,  
 A. C. Simmonett,  A. Sodt,  T. Stein,  D. Stuck,  K. S. Thanthiriwatte,  
 V. Vanovschi,  L. Vogt,  Tao Wang,  A. Warshel,  M. A. Watson,  
 C. F. Williams,  Q. Wu,  X. Xu,  Jun Yang,  W. Zhang,  Yan Zhao

   Please cite Q-Chem as follows:
  "Software for the frontiers of quantum chemistry:
   An overview of developments in the Q-Chem 5 package"
   J. Chem. Phys. 155, 084801 (2021)
   https://doi.org/10.1063/5.0055522 (open access)

 Q-Chem 6.0.2 for Intel X86 EM64T Linux

 Parts of Q-Chem use Armadillo 9.900.5 (Nocturnal Misbehaviour).
 http://arma.sourceforge.net/

 Q-Chem begins on Fri Aug  9 13:54:15 2024  

 Host: 
0

     Scratch files written to ./qchem619636//
 Dec722 |scratch|qcdevops|jenkins|workspace|build_RNUM    
 Processing $rem in /cm/shared/apps/spack/0.17.3/cpu/b/opt/spack/linux-rocky8-zen2/gcc-10.2.0/qchem-6.0-rytxnwjazd34ekd2gqyi5ufsaimxsd3r/config/preferences:
 Processing $rem in /home/hklem/.qchemrc:
 No nuclear gradient supported for projection-based embedding or EMFT. Set max ideriv = 0.

 Checking the input file for inconsistencies... 	...done.

--------------------------------------------------------------
User input:
--------------------------------------------------------------
$molecule
-1 1
--
0 1
C    2.25100    1.37500    -9.28300
O    1.80900    0.36400    -8.70700
C    2.55800    2.58500    -8.60400
C    2.90000    3.73500    -9.24500
C    3.12300    3.75600    -10.72200
C    3.46900    2.35300    -11.22500
C    2.40700    1.36500    -10.77800
C    2.90300    5.01500    -8.51100
C    3.86900    6.07500    -9.03500
C    3.78700    6.17200    -10.55600
C    4.16900    4.80200    -11.14700
C    4.72700    7.23300    -11.11900
C    4.66500    7.28600    -12.65000
C    5.17300    5.95700    -13.19500
C    4.30500    4.81300    -12.67600
C    4.53600    8.69800    -10.70800
C    5.16400    9.51000    -11.86300
C    5.59300    8.48000    -12.92800
C    3.27200    7.60300    -13.19400
O    5.50600    9.00000    -14.23600
H    2.42000    2.58900    -7.53200
H    2.16000    4.05500    -11.16600
H    4.44300    2.05500    -10.82700
H    3.52200    2.33900    -12.31300
H    1.43900    1.65500    -11.20100
H    2.62500    0.35200    -11.12200
H    3.05400    4.84900    -7.44400
H    1.87100    5.40000    -8.62200
H    4.89000    5.82300    -8.73600
H    3.62200    7.03700    -8.58500
H    2.75700    6.41000    -10.82700
H    5.14100    4.51500    -10.72400
H    5.75100    6.94400    -10.84700
H    6.20600    5.81000    -12.86600
H    5.16200    5.95300    -14.28500
H    3.31500    4.86900    -13.12800
H    4.76300    3.87700    -13.00100
H    5.02000    8.91600    -9.75800
H    3.47800    8.92900    -10.59400
H    6.01000    10.10900   -11.52600
H    4.44600    10.19600   -12.31100
H    6.63600    8.16700    -12.74700
H    2.56500    6.81700    -12.96100
H    2.89300    8.53500    -12.78700
H    3.31500    7.69800    -14.27600
H    5.37100    8.24400    -14.83200
--
-1 1
H    6.70400    -6.57000   -9.54800
C    5.99400    -5.77200   -9.75900
H    5.81200    -5.74100   -10.83100
C    4.68100    -5.99700   -9.00800
H    4.25200    -6.95500   -9.30800
H    4.88200    -6.03300   -7.93500
C    3.71700    -4.88400   -9.31100
C    2.78100    -5.00500   -10.32800
H    2.71500    -5.93000   -10.88500
C    1.92800    -3.96500   -10.64000
H    1.19700    -4.06100   -11.42800
C    1.99600    -2.76600   -9.93200
O    1.15000    -1.77000   -10.26000
H    1.31900    -0.99300   -9.67400
C    2.93800    -2.63700   -8.91400
H    2.99700    -1.71100   -8.36200
C    3.78400    -3.68500   -8.61300
H    4.50900    -3.57000   -7.81900
H    6.43900    -4.82400   -9.46300
H    8.04700    -2.06500   -14.12800
C    7.70300    -1.10900   -13.74000
H    7.03400    -0.66000   -14.47100
C    6.97700    -1.29700   -12.40800
H    7.67400    -1.74800   -11.69300
C    6.52100    0.05100    -11.85600
H    7.37100    0.71500    -11.71000
H    5.82900    0.52600    -12.54900
H    6.01800    -0.08100   -10.90100
C    5.78100    -2.23300   -12.57300
H    5.27600    -2.38600   -11.62100
H    6.10000    -3.20300   -12.94900
H    5.06400    -1.81200   -13.27500
H    8.56400    -0.45600   -13.61700
H    -3.97200   6.94200    -7.40800
C    -3.19600   6.35200    -7.89500
H    -3.60300   5.91900    -8.80700
C    -1.98600   7.22000    -8.23200
H    -1.54500   7.62900    -7.32000
H    -2.29400   8.04400    -8.88000
C    -0.91800   6.39300    -8.98700
O    0.12400    6.10200    -8.36300
O    -1.17500   6.07700    -10.16100
H    -2.90400   5.54100    -7.22900
H    2.08900    6.50200    -17.69400
C    2.65900    6.75500    -16.80500
H    2.20600    6.26500    -15.94200
H    2.64900    7.83200    -16.64700
C    4.10000    6.29100    -16.92700
O    5.02600    6.87800    -16.37100
N    4.32600    5.19200    -17.67700
H    3.53100    4.73100    -18.09300
C    5.62300    4.55200    -17.90500
H    6.33500    5.02700    -17.22900
C    5.53600    3.04700    -17.66800
H    4.74900    2.64300    -18.31100
H    6.47900    2.59200    -17.97800
C    5.24200    2.66100    -16.21200
H    4.43100    3.29500    -15.83800
C    4.78900    1.20400    -16.13900
H    4.57500    0.92400    -15.11100
H    3.88600    1.04600    -16.72600
H    5.56700    0.54500    -16.52100
C    6.47000    2.87000    -15.33000
H    7.31100    2.28700    -15.70100
H    6.75500    3.91700    -15.30700
H    6.26400    2.55500    -14.31100
H    5.93600    4.74800    -18.93700
H    10.99100   6.16500    -16.65300
C    10.90000   5.80900    -15.62900
H    11.25700   6.58800    -14.95800
C    9.44900    5.46300    -15.30000
H    9.12400    4.66400    -15.97700
C    9.34900    4.96400    -13.86100
H    9.96500    4.07900    -13.71600
H    9.68900    5.73900    -13.17800
H    8.32200    4.71000    -13.61000
C    8.54500    6.67700    -15.49900
H    8.79500    7.44400    -14.77100
H    8.66300    7.09200    -16.49800
H    7.49900    6.41100    -15.36300
H    11.53900   4.93600    -15.51100
H    8.99800    2.63600    -2.60200
C    9.85300    2.32500    -3.19800
H    10.67900   2.09100    -2.52900
C    9.49100    1.10800    -4.05200
H    10.36600   0.80500    -4.63100
H    9.21900    0.27900    -3.39300
C    8.34600    1.40300    -4.98500
C    8.58200    1.88000    -6.26800
H    9.60100    2.03500    -6.59800
C    7.53100    2.14300    -7.12900
H    7.73100    2.50100    -8.12900
C    6.22700    1.93900    -6.71600
H    5.40200    2.13200    -7.38600
C    5.97700    1.47300    -5.43600
H    4.95800    1.31100    -5.12000
C    7.03100    1.21000    -4.57900
H    6.83400    0.84100    -3.58100
H    10.14400   3.15900    -3.83300
H    10.69500   5.42100    -8.14900
C    10.48000   6.05700    -9.00600
H    11.35300   6.07300    -9.65400
C    9.26100    5.53400    -9.76100
H    9.10800    6.15500    -10.65100
C    9.50100    4.09800    -10.22000
H    9.66800    3.44900    -9.36300
H    10.37400   4.04600    -10.86700
H    8.64400    3.72500    -10.77600
C    8.01400    5.61400    -8.88500
H    8.14100    5.02300    -7.98000
H    7.14600    5.23600    -9.42100
H    7.81000    6.64300    -8.59300
H    10.30900   7.06700    -8.64000
H    12.34300   9.48100    -13.51800
C    12.04100   10.25800   -14.21700
H    12.68600   10.21000   -15.09000
C    10.58400   10.06100   -14.62000
H    10.47500   9.10600    -15.13700
H    10.28100   10.85200   -15.31000
C    9.64900    10.09200   -13.42000
H    9.81900    10.99000   -12.82400
H    8.60500    10.06000   -13.73700
S    9.92600    8.66200    -12.31000
C    9.08900    9.30500    -10.83800
H    9.60600    10.19300   -10.48400
H    8.05500    9.53200    -11.08000
H    9.12800    8.52700    -10.08500
H    12.17900   11.22600   -13.73800
H    10.19200   10.63900   -6.87700
C    9.39500    10.40700   -6.17300
H    9.20200    11.29500   -5.57800
C    8.14300    9.96000    -6.92000
H    8.41300    9.15300    -7.60600
H    7.76400    10.78900   -7.52300
C    7.02500    9.46000    -6.00000
H    7.41700    8.63100    -5.39900
C    6.53900    10.55600   -5.05700
H    7.32200    10.86800   -4.37000
H    6.20600    11.42100   -5.62700
H    5.69900    10.19200   -4.47100
C    5.85600    8.94300    -6.83600
H    6.17600    8.14400    -7.50100
H    5.43100    9.74700    -7.43300
H    5.06900    8.55500    -6.19600
H    9.74500    9.61700    -5.51100
H    6.89500    6.44800    -3.31500
C    5.89300    6.07800    -3.10700
H    5.19100    6.89500    -3.24800
C    5.54300    4.91900    -4.04000
H    6.28800    4.12400    -3.91000
C    4.16700    4.35300    -3.70000
H    3.92500    3.52200    -4.35900
H    4.14000    3.99600    -2.67200
H    3.40800    5.12300    -3.81800
C    5.57600    5.37600    -5.49500
H    5.39500    4.53300    -6.15600
H    6.54400    5.80400    -5.74300
H    4.81100    6.12900    -5.67200
H    5.85400    5.76200    -2.06600
H    2.88400    0.27300    -2.87900
C    1.95700    0.84100    -2.83800
H    2.20300    1.89300    -2.95700
C    1.01700    0.39700    -3.94500
H    0.76900    -0.66200   -3.85900
H    0.08000    0.95700    -3.90800
C    1.62000    0.62600    -5.31800
O    2.65500    1.21700    -5.51100
O    0.87500    0.10300    -6.26800
H    1.26900    0.25400    -7.18400
H    1.49800    0.69400    -1.86200
H    -1.47000   4.36200    -4.53700
C    -0.39700   4.29200    -4.36800
H    -0.22100   3.55800    -3.58300
C    0.32200    3.89800    -5.65000
H    1.39000    3.79800    -5.46900
H    0.17000    4.64100    -6.43000
H    -0.05100   2.94400    -6.01600
H    -0.05200   5.25900    -4.00800
H    1.13300    9.39800    -2.51200
C    2.15800    9.75200    -2.59700
H    2.57500    9.85400    -1.59600
C    2.98600    8.77300    -3.43000
H    4.02000    9.13100    -3.46700
H    2.98500    7.79700    -2.93800
C    2.45500    8.61800    -4.81900
C    1.83000    7.51900    -5.34200
H    1.61900    6.57900    -4.86900
N    1.47500    7.72900    -6.63800
H    0.95500    7.07600    -7.24200
C    1.86600    8.98000    -6.99100
C    1.74200    9.64400    -8.20500
H    1.26000    9.16300    -9.04300
C    2.24800    10.92200   -8.29200
H    2.17300    11.46800   -9.22200
C    2.85700    11.53500   -7.19200
H    3.23600    12.54300   -7.30000
C    2.98100    10.88700   -5.98400
H    3.45400    11.37700   -5.14500
C    2.49000    9.58600    -5.86700
H    2.14000    10.73100   -3.06900
O    0.22300    4.51800    -11.68400
H    -0.41500   3.80700    -11.75500
H    -0.22300   5.17900    -11.06100
O    6.20300    9.31600    -17.10000
H    5.90800    8.39900    -16.99500
H    6.45600    9.59500    -16.21500
O    0.84200    5.48100    -14.15700
H    0.67000    5.08800    -13.27400
H    0.31900    6.28600    -14.16500
O    3.54000    9.90800    -16.22700
H    3.87900    9.82500    -15.32800
H    4.32900    9.86900    -16.78700
$end

$rem
JOBTYPE  SP
METHOD  WB97X-V
BASIS  6-31G(D)
SYMMETRY  FALSE
SYM_IGNORE  TRUE
MEM_TOTAL  64000
MEM_STATIC  4000
BASIS_LIN_DEP_THRESH  6
THRESH  14
SCF_CONVERGENCE  8
FD_MAT_VEC_PROD  FALSE
XC_GRID  000075000302
NL_GRID  1
MAX_SCF_CYCLES  200
ENV_METHOD  WB97X-V
GEN_SCFMAN_EMBED  TRUE
SPADE_PARTITION  TRUE
EMBEDDING_EARLY_STOP  TRUE
$end

--------------------------------------------------------------
 ----------------------------------------------------------------
             Standard Nuclear Orientation (Angstroms)
    I     Atom           X                Y                Z
 ----------------------------------------------------------------
    1      C       2.2510000000     1.3750000000    -9.2830000000
    2      O       1.8090000000     0.3640000000    -8.7070000000
    3      C       2.5580000000     2.5850000000    -8.6040000000
    4      C       2.9000000000     3.7350000000    -9.2450000000
    5      C       3.1230000000     3.7560000000   -10.7220000000
    6      C       3.4690000000     2.3530000000   -11.2250000000
    7      C       2.4070000000     1.3650000000   -10.7780000000
    8      C       2.9030000000     5.0150000000    -8.5110000000
    9      C       3.8690000000     6.0750000000    -9.0350000000
   10      C       3.7870000000     6.1720000000   -10.5560000000
   11      C       4.1690000000     4.8020000000   -11.1470000000
   12      C       4.7270000000     7.2330000000   -11.1190000000
   13      C       4.6650000000     7.2860000000   -12.6500000000
   14      C       5.1730000000     5.9570000000   -13.1950000000
   15      C       4.3050000000     4.8130000000   -12.6760000000
   16      C       4.5360000000     8.6980000000   -10.7080000000
   17      C       5.1640000000     9.5100000000   -11.8630000000
   18      C       5.5930000000     8.4800000000   -12.9280000000
   19      C       3.2720000000     7.6030000000   -13.1940000000
   20      O       5.5060000000     9.0000000000   -14.2360000000
   21      H       2.4200000000     2.5890000000    -7.5320000000
   22      H       2.1600000000     4.0550000000   -11.1660000000
   23      H       4.4430000000     2.0550000000   -10.8270000000
   24      H       3.5220000000     2.3390000000   -12.3130000000
   25      H       1.4390000000     1.6550000000   -11.2010000000
   26      H       2.6250000000     0.3520000000   -11.1220000000
   27      H       3.0540000000     4.8490000000    -7.4440000000
   28      H       1.8710000000     5.4000000000    -8.6220000000
   29      H       4.8900000000     5.8230000000    -8.7360000000
   30      H       3.6220000000     7.0370000000    -8.5850000000
   31      H       2.7570000000     6.4100000000   -10.8270000000
   32      H       5.1410000000     4.5150000000   -10.7240000000
   33      H       5.7510000000     6.9440000000   -10.8470000000
   34      H       6.2060000000     5.8100000000   -12.8660000000
   35      H       5.1620000000     5.9530000000   -14.2850000000
   36      H       3.3150000000     4.8690000000   -13.1280000000
   37      H       4.7630000000     3.8770000000   -13.0010000000
   38      H       5.0200000000     8.9160000000    -9.7580000000
   39      H       3.4780000000     8.9290000000   -10.5940000000
   40      H       6.0100000000    10.1090000000   -11.5260000000
   41      H       4.4460000000    10.1960000000   -12.3110000000
   42      H       6.6360000000     8.1670000000   -12.7470000000
   43      H       2.5650000000     6.8170000000   -12.9610000000
   44      H       2.8930000000     8.5350000000   -12.7870000000
   45      H       3.3150000000     7.6980000000   -14.2760000000
   46      H       5.3710000000     8.2440000000   -14.8320000000
   47      H       6.7040000000    -6.5700000000    -9.5480000000
   48      C       5.9940000000    -5.7720000000    -9.7590000000
   49      H       5.8120000000    -5.7410000000   -10.8310000000
   50      C       4.6810000000    -5.9970000000    -9.0080000000
   51      H       4.2520000000    -6.9550000000    -9.3080000000
   52      H       4.8820000000    -6.0330000000    -7.9350000000
   53      C       3.7170000000    -4.8840000000    -9.3110000000
   54      C       2.7810000000    -5.0050000000   -10.3280000000
   55      H       2.7150000000    -5.9300000000   -10.8850000000
   56      C       1.9280000000    -3.9650000000   -10.6400000000
   57      H       1.1970000000    -4.0610000000   -11.4280000000
   58      C       1.9960000000    -2.7660000000    -9.9320000000
   59      O       1.1500000000    -1.7700000000   -10.2600000000
   60      H       1.3190000000    -0.9930000000    -9.6740000000
   61      C       2.9380000000    -2.6370000000    -8.9140000000
   62      H       2.9970000000    -1.7110000000    -8.3620000000
   63      C       3.7840000000    -3.6850000000    -8.6130000000
   64      H       4.5090000000    -3.5700000000    -7.8190000000
   65      H       6.4390000000    -4.8240000000    -9.4630000000
   66      H       8.0470000000    -2.0650000000   -14.1280000000
   67      C       7.7030000000    -1.1090000000   -13.7400000000
   68      H       7.0340000000    -0.6600000000   -14.4710000000
   69      C       6.9770000000    -1.2970000000   -12.4080000000
   70      H       7.6740000000    -1.7480000000   -11.6930000000
   71      C       6.5210000000     0.0510000000   -11.8560000000
   72      H       7.3710000000     0.7150000000   -11.7100000000
   73      H       5.8290000000     0.5260000000   -12.5490000000
   74      H       6.0180000000    -0.0810000000   -10.9010000000
   75      C       5.7810000000    -2.2330000000   -12.5730000000
   76      H       5.2760000000    -2.3860000000   -11.6210000000
   77      H       6.1000000000    -3.2030000000   -12.9490000000
   78      H       5.0640000000    -1.8120000000   -13.2750000000
   79      H       8.5640000000    -0.4560000000   -13.6170000000
   80      H      -3.9720000000     6.9420000000    -7.4080000000
   81      C      -3.1960000000     6.3520000000    -7.8950000000
   82      H      -3.6030000000     5.9190000000    -8.8070000000
   83      C      -1.9860000000     7.2200000000    -8.2320000000
   84      H      -1.5450000000     7.6290000000    -7.3200000000
   85      H      -2.2940000000     8.0440000000    -8.8800000000
   86      C      -0.9180000000     6.3930000000    -8.9870000000
   87      O       0.1240000000     6.1020000000    -8.3630000000
   88      O      -1.1750000000     6.0770000000   -10.1610000000
   89      H      -2.9040000000     5.5410000000    -7.2290000000
   90      H       2.0890000000     6.5020000000   -17.6940000000
   91      C       2.6590000000     6.7550000000   -16.8050000000
   92      H       2.2060000000     6.2650000000   -15.9420000000
   93      H       2.6490000000     7.8320000000   -16.6470000000
   94      C       4.1000000000     6.2910000000   -16.9270000000
   95      O       5.0260000000     6.8780000000   -16.3710000000
   96      N       4.3260000000     5.1920000000   -17.6770000000
   97      H       3.5310000000     4.7310000000   -18.0930000000
   98      C       5.6230000000     4.5520000000   -17.9050000000
   99      H       6.3350000000     5.0270000000   -17.2290000000
  100      C       5.5360000000     3.0470000000   -17.6680000000
  101      H       4.7490000000     2.6430000000   -18.3110000000
  102      H       6.4790000000     2.5920000000   -17.9780000000
  103      C       5.2420000000     2.6610000000   -16.2120000000
  104      H       4.4310000000     3.2950000000   -15.8380000000
  105      C       4.7890000000     1.2040000000   -16.1390000000
  106      H       4.5750000000     0.9240000000   -15.1110000000
  107      H       3.8860000000     1.0460000000   -16.7260000000
  108      H       5.5670000000     0.5450000000   -16.5210000000
  109      C       6.4700000000     2.8700000000   -15.3300000000
  110      H       7.3110000000     2.2870000000   -15.7010000000
  111      H       6.7550000000     3.9170000000   -15.3070000000
  112      H       6.2640000000     2.5550000000   -14.3110000000
  113      H       5.9360000000     4.7480000000   -18.9370000000
  114      H      10.9910000000     6.1650000000   -16.6530000000
  115      C      10.9000000000     5.8090000000   -15.6290000000
  116      H      11.2570000000     6.5880000000   -14.9580000000
  117      C       9.4490000000     5.4630000000   -15.3000000000
  118      H       9.1240000000     4.6640000000   -15.9770000000
  119      C       9.3490000000     4.9640000000   -13.8610000000
  120      H       9.9650000000     4.0790000000   -13.7160000000
  121      H       9.6890000000     5.7390000000   -13.1780000000
  122      H       8.3220000000     4.7100000000   -13.6100000000
  123      C       8.5450000000     6.6770000000   -15.4990000000
  124      H       8.7950000000     7.4440000000   -14.7710000000
  125      H       8.6630000000     7.0920000000   -16.4980000000
  126      H       7.4990000000     6.4110000000   -15.3630000000
  127      H      11.5390000000     4.9360000000   -15.5110000000
  128      H       8.9980000000     2.6360000000    -2.6020000000
  129      C       9.8530000000     2.3250000000    -3.1980000000
  130      H      10.6790000000     2.0910000000    -2.5290000000
  131      C       9.4910000000     1.1080000000    -4.0520000000
  132      H      10.3660000000     0.8050000000    -4.6310000000
  133      H       9.2190000000     0.2790000000    -3.3930000000
  134      C       8.3460000000     1.4030000000    -4.9850000000
  135      C       8.5820000000     1.8800000000    -6.2680000000
  136      H       9.6010000000     2.0350000000    -6.5980000000
  137      C       7.5310000000     2.1430000000    -7.1290000000
  138      H       7.7310000000     2.5010000000    -8.1290000000
  139      C       6.2270000000     1.9390000000    -6.7160000000
  140      H       5.4020000000     2.1320000000    -7.3860000000
  141      C       5.9770000000     1.4730000000    -5.4360000000
  142      H       4.9580000000     1.3110000000    -5.1200000000
  143      C       7.0310000000     1.2100000000    -4.5790000000
  144      H       6.8340000000     0.8410000000    -3.5810000000
  145      H      10.1440000000     3.1590000000    -3.8330000000
  146      H      10.6950000000     5.4210000000    -8.1490000000
  147      C      10.4800000000     6.0570000000    -9.0060000000
  148      H      11.3530000000     6.0730000000    -9.6540000000
  149      C       9.2610000000     5.5340000000    -9.7610000000
  150      H       9.1080000000     6.1550000000   -10.6510000000
  151      C       9.5010000000     4.0980000000   -10.2200000000
  152      H       9.6680000000     3.4490000000    -9.3630000000
  153      H      10.3740000000     4.0460000000   -10.8670000000
  154      H       8.6440000000     3.7250000000   -10.7760000000
  155      C       8.0140000000     5.6140000000    -8.8850000000
  156      H       8.1410000000     5.0230000000    -7.9800000000
  157      H       7.1460000000     5.2360000000    -9.4210000000
  158      H       7.8100000000     6.6430000000    -8.5930000000
  159      H      10.3090000000     7.0670000000    -8.6400000000
  160      H      12.3430000000     9.4810000000   -13.5180000000
  161      C      12.0410000000    10.2580000000   -14.2170000000
  162      H      12.6860000000    10.2100000000   -15.0900000000
  163      C      10.5840000000    10.0610000000   -14.6200000000
  164      H      10.4750000000     9.1060000000   -15.1370000000
  165      H      10.2810000000    10.8520000000   -15.3100000000
  166      C       9.6490000000    10.0920000000   -13.4200000000
  167      H       9.8190000000    10.9900000000   -12.8240000000
  168      H       8.6050000000    10.0600000000   -13.7370000000
  169      S       9.9260000000     8.6620000000   -12.3100000000
  170      C       9.0890000000     9.3050000000   -10.8380000000
  171      H       9.6060000000    10.1930000000   -10.4840000000
  172      H       8.0550000000     9.5320000000   -11.0800000000
  173      H       9.1280000000     8.5270000000   -10.0850000000
  174      H      12.1790000000    11.2260000000   -13.7380000000
  175      H      10.1920000000    10.6390000000    -6.8770000000
  176      C       9.3950000000    10.4070000000    -6.1730000000
  177      H       9.2020000000    11.2950000000    -5.5780000000
  178      C       8.1430000000     9.9600000000    -6.9200000000
  179      H       8.4130000000     9.1530000000    -7.6060000000
  180      H       7.7640000000    10.7890000000    -7.5230000000
  181      C       7.0250000000     9.4600000000    -6.0000000000
  182      H       7.4170000000     8.6310000000    -5.3990000000
  183      C       6.5390000000    10.5560000000    -5.0570000000
  184      H       7.3220000000    10.8680000000    -4.3700000000
  185      H       6.2060000000    11.4210000000    -5.6270000000
  186      H       5.6990000000    10.1920000000    -4.4710000000
  187      C       5.8560000000     8.9430000000    -6.8360000000
  188      H       6.1760000000     8.1440000000    -7.5010000000
  189      H       5.4310000000     9.7470000000    -7.4330000000
  190      H       5.0690000000     8.5550000000    -6.1960000000
  191      H       9.7450000000     9.6170000000    -5.5110000000
  192      H       6.8950000000     6.4480000000    -3.3150000000
  193      C       5.8930000000     6.0780000000    -3.1070000000
  194      H       5.1910000000     6.8950000000    -3.2480000000
  195      C       5.5430000000     4.9190000000    -4.0400000000
  196      H       6.2880000000     4.1240000000    -3.9100000000
  197      C       4.1670000000     4.3530000000    -3.7000000000
  198      H       3.9250000000     3.5220000000    -4.3590000000
  199      H       4.1400000000     3.9960000000    -2.6720000000
  200      H       3.4080000000     5.1230000000    -3.8180000000
  201      C       5.5760000000     5.3760000000    -5.4950000000
  202      H       5.3950000000     4.5330000000    -6.1560000000
  203      H       6.5440000000     5.8040000000    -5.7430000000
  204      H       4.8110000000     6.1290000000    -5.6720000000
  205      H       5.8540000000     5.7620000000    -2.0660000000
  206      H       2.8840000000     0.2730000000    -2.8790000000
  207      C       1.9570000000     0.8410000000    -2.8380000000
  208      H       2.2030000000     1.8930000000    -2.9570000000
  209      C       1.0170000000     0.3970000000    -3.9450000000
  210      H       0.7690000000    -0.6620000000    -3.8590000000
  211      H       0.0800000000     0.9570000000    -3.9080000000
  212      C       1.6200000000     0.6260000000    -5.3180000000
  213      O       2.6550000000     1.2170000000    -5.5110000000
  214      O       0.8750000000     0.1030000000    -6.2680000000
  215      H       1.2690000000     0.2540000000    -7.1840000000
  216      H       1.4980000000     0.6940000000    -1.8620000000
  217      H      -1.4700000000     4.3620000000    -4.5370000000
  218      C      -0.3970000000     4.2920000000    -4.3680000000
  219      H      -0.2210000000     3.5580000000    -3.5830000000
  220      C       0.3220000000     3.8980000000    -5.6500000000
  221      H       1.3900000000     3.7980000000    -5.4690000000
  222      H       0.1700000000     4.6410000000    -6.4300000000
  223      H      -0.0510000000     2.9440000000    -6.0160000000
  224      H      -0.0520000000     5.2590000000    -4.0080000000
  225      H       1.1330000000     9.3980000000    -2.5120000000
  226      C       2.1580000000     9.7520000000    -2.5970000000
  227      H       2.5750000000     9.8540000000    -1.5960000000
  228      C       2.9860000000     8.7730000000    -3.4300000000
  229      H       4.0200000000     9.1310000000    -3.4670000000
  230      H       2.9850000000     7.7970000000    -2.9380000000
  231      C       2.4550000000     8.6180000000    -4.8190000000
  232      C       1.8300000000     7.5190000000    -5.3420000000
  233      H       1.6190000000     6.5790000000    -4.8690000000
  234      N       1.4750000000     7.7290000000    -6.6380000000
  235      H       0.9550000000     7.0760000000    -7.2420000000
  236      C       1.8660000000     8.9800000000    -6.9910000000
  237      C       1.7420000000     9.6440000000    -8.2050000000
  238      H       1.2600000000     9.1630000000    -9.0430000000
  239      C       2.2480000000    10.9220000000    -8.2920000000
  240      H       2.1730000000    11.4680000000    -9.2220000000
  241      C       2.8570000000    11.5350000000    -7.1920000000
  242      H       3.2360000000    12.5430000000    -7.3000000000
  243      C       2.9810000000    10.8870000000    -5.9840000000
  244      H       3.4540000000    11.3770000000    -5.1450000000
  245      C       2.4900000000     9.5860000000    -5.8670000000
  246      H       2.1400000000    10.7310000000    -3.0690000000
  247      O       0.2230000000     4.5180000000   -11.6840000000
  248      H      -0.4150000000     3.8070000000   -11.7550000000
  249      H      -0.2230000000     5.1790000000   -11.0610000000
  250      O       6.2030000000     9.3160000000   -17.1000000000
  251      H       5.9080000000     8.3990000000   -16.9950000000
  252      H       6.4560000000     9.5950000000   -16.2150000000
  253      O       0.8420000000     5.4810000000   -14.1570000000
  254      H       0.6700000000     5.0880000000   -13.2740000000
  255      H       0.3190000000     6.2860000000   -14.1650000000
  256      O       3.5400000000     9.9080000000   -16.2270000000
  257      H       3.8790000000     9.8250000000   -15.3280000000
  258      H       4.3290000000     9.8690000000   -16.7870000000
 ----------------------------------------------------------------
 Nuclear Repulsion Energy =       23147.20624563 hartrees
 There are      395 alpha and      395 beta electrons
 Requested basis set is 6-31G(d)
 There are 715 shells and 1807 basis functions

 Total QAlloc Memory Limit  64000 MB
 Mega-Array Size      3911 MB
 MEM_STATIC part      4000 MB

 A cutoff of  1.0D-14 yielded  77230 shell pairs
 There are    475645 function pairs
 Smallest overlap matrix eigenvalue = 3.40E-04

 Scale SEOQF with 1.000000e-02/1.000000e-02/1.000000e-03

 Standard Electronic Orientation quadrupole field applied
 Nucleus-field energy     =     0.0000002248 hartrees
 Guess from superposition of atomic densities
 Warning:  Energy on first SCF cycle will be non-variational
 SAD guess density has 789.000002 electrons

 -----------------------------------------------------------------------
  General SCF calculation program by
  Eric Jon Sundstrom, Paul Horn, Yuezhi Mao, Dmitri Zuev, Alec White,
  David Stuck, Shaama M.S., Shane Yost, Joonho Lee, David Small,
  Daniel Levine, Susi Lehtola, Hugh Burton, Evgeny Epifanovsky,
  Bang C. Huynh
 -----------------------------------------------------------------------
=================================================
        Doing projection-based embedding         
      F. Manby et al. JCTC, 8, 2564 (2012)       
=================================================

****************************************************
   Low-level SCF calculation for the whole system   
****************************************************
----------------------------------------------
 Summary of the low-level theory: 
 Exchange:     0.1670 Hartree-Fock + 1.0000 wB97X-V + LR-HF
 Correlation:  1.0000 wB97X-V
 Using Euler-Maclaurin-Lebedev (75,302) quadrature formula
 Nonlocal Correlation:  VV10 with C = 0.0100 and b = 6.00 and scale = 1.00000
 Grid used for NLC:  SG-1 standard quadrature
----------------------------------------------
 using 32 threads for integral computing
 -------------------------------------------------------
 OpenMP Integral computing Module                
 Release: version 1.0, May 2013, Q-Chem Inc. Pittsburgh 
 -------------------------------------------------------
 A restricted SCF calculation will be
 performed using DIIS
 SCF converges when DIIS error is below 1.0e-08
 ---------------------------------------
  Cycle       Energy         DIIS error
 ---------------------------------------
    1   -4733.7012119414      1.83e-02  
    2   -4705.0575831679      1.69e-03  
    3   -4705.4482066914      1.52e-03  
    4   -4706.1109457963      2.40e-04  
    5   -4706.1263813020      1.21e-04  
    6   -4706.1308995554      2.95e-05  
    7   -4706.1311887847      7.30e-06  
    8   -4706.1312143131      2.53e-06  
    9   -4706.1312182198      1.17e-06  
   10   -4706.1312192654      4.21e-07  
   11   -4706.1312194364      2.19e-07  
   12   -4706.1312194828      7.42e-08  
   13   -4706.1312194889      2.93e-08  
   14   -4706.1312194902      1.25e-08  
   15   -4706.1312194904      6.06e-09  Convergence criterion met
 ---------------------------------------
 SCF time:   CPU 45989.19s  wall 1531.00s 
 SCF   energy in the final basis set =    -4706.1312194904
 Total energy in the final basis set =    -4706.1312194904

****************************************************
             Start embedding calculation            
****************************************************
----------------------------------------------
 Summary of the high-level theory: 
 Exchange:     0.1670 Hartree-Fock + 1.0000 wB97X-V + LR-HF
 Correlation:  1.0000 wB97X-V
 Using Euler-Maclaurin-Lebedev (75,302) quadrature formula
 Nonlocal Correlation:  VV10 with C = 0.0100 and b = 6.00 and scale = 1.00000
 Grid used for NLC:  SG-1 standard quadrature
----------------------------------------------
Doing R-in-R Embedding Calculation
Number of fragments: 2
Embedded fragment(s): 1 
NOcc for each fragment
           75
          320
NBasis for each fragment
          352
         1455
Variational space of the embedded problem: 
NOcc (active)  = 75
NOcc (fixed)   = 320
NVir (total)   = 1412
Read converged orbitals from disk
=========================================================
       Doing SPADE partition for the orbital space       
     D. Claudino and N. Mayhall JCTC 15, 1053 (2019)     
=========================================================
SPADE singular values:
 1.0000 1.0000 1.0000 1.0000 1.0000 1.0000 1.0000 1.0000 1.0000 1.0000
 1.0000 1.0000 1.0000 1.0000 1.0000 1.0000 1.0000 1.0000 1.0000 1.0000
 1.0000 1.0000 1.0000 1.0000 1.0000 1.0000 1.0000 1.0000 1.0000 1.0000
 1.0000 1.0000 1.0000 1.0000 1.0000 1.0000 1.0000 1.0000 1.0000 1.0000
 1.0000 1.0000 1.0000 0.9999 0.9999 0.9999 0.9999 0.9998 0.9998 0.9998
 0.9997 0.9997 0.9996 0.9996 0.9995 0.9995 0.9993 0.9992 0.9991 0.9991
 0.9990 0.9989 0.9988 0.9987 0.9986 0.9984 0.9980 0.9979 0.9977 0.9975
 0.9964 0.9931 0.9891 0.9756 0.9705 0.1832 0.1715 0.1487 0.1113 0.0980
 0.0866 0.0724 0.0655 0.0636 0.0607 0.0595 0.0571 0.0562 0.0537 0.0500
 0.0474 0.0449 0.0430 0.0416 0.0392 0.0354 0.0340 0.0330 0.0303 0.0296
 0.0291 0.0257 0.0236 0.0220 0.0200 0.0189 0.0181 0.0176 0.0167 0.0155
 0.0149 0.0139 0.0130 0.0123 0.0119 0.0117 0.0107 0.0104 0.0101 0.0093
 0.0087 0.0084 0.0078 0.0071 0.0068 0.0062 0.0060 0.0057 0.0053 0.0048
 0.0048 0.0045 0.0045 0.0043 0.0041 0.0040 0.0038 0.0034 0.0031 0.0030
 0.0029 0.0028 0.0026 0.0025 0.0024 0.0023 0.0022 0.0021 0.0019 0.0017
 0.0016 0.0016 0.0015 0.0014 0.0014 0.0013 0.0013 0.0012 0.0012 0.0011
 0.0011 0.0011 0.0010 0.0010 0.0010 0.0010 0.0009 0.0009 0.0008 0.0008
 0.0008 0.0008 0.0008 0.0007 0.0007 0.0007 0.0007 0.0006 0.0006 0.0006
 0.0006 0.0006 0.0005 0.0005 0.0005 0.0005 0.0005 0.0005 0.0005 0.0005
 0.0005 0.0004 0.0004 0.0004 0.0004 0.0004 0.0004 0.0004 0.0004 0.0003
 0.0003 0.0003 0.0003 0.0003 0.0003 0.0003 0.0003 0.0003 0.0003 0.0003
 0.0002 0.0002 0.0002 0.0002 0.0002 0.0002 0.0002 0.0002 0.0002 0.0002
 0.0002 0.0002 0.0002 0.0002 0.0001 0.0001 0.0001 0.0001 0.0001 0.0001
 0.0001 0.0001 0.0001 0.0001 0.0001 0.0001 0.0001 0.0001 0.0001 0.0001
 0.0001 0.0001 0.0001 0.0001 0.0001 0.0001 0.0001 0.0001 0.0001 0.0001
 0.0001 0.0001 0.0001 0.0001 0.0001 0.0001 0.0000 0.0000 0.0000 0.0000
 0.0000 0.0000 0.0000 0.0000 0.0000 0.0000 0.0000 0.0000 0.0000 0.0000
 0.0000 0.0000 0.0000 0.0000 0.0000 0.0000 0.0000 0.0000 0.0000 0.0000
 0.0000 0.0000 0.0000 0.0000 0.0000 0.0000 0.0000 0.0000 0.0000 0.0000
 0.0000 0.0000 0.0000 0.0000 0.0000 0.0000 0.0000 0.0000 0.0000 0.0000
 0.0000 0.0000 0.0000 0.0000 0.0000 0.0000 0.0000 0.0000 0.0000 0.0000
 0.0000 0.0000 0.0000 0.0000 0.0000 0.0000 0.0000 0.0000 0.0000 0.0000
 0.0000 0.0000 0.0000 0.0000 0.0000 0.0000 0.0000 0.0000 0.0000 0.0000
 0.0000 0.0000 0.0000 0.0000 0.0000 0.0000 0.0000 0.0000 0.0000 0.0000
 0.0000 0.0000 0.0000 0.0000 0.0000 0.0000 0.0000 0.0000 0.0000 0.0000
 0.0000 0.0000
Early stop requested; no embedded SCF will be performed

 320 environment occs will be part of frozen-core in future post-HF calculations
 
 --------------------------------------------------------------
 
                    Orbital Energies (a.u.)
 --------------------------------------------------------------
 
 Alpha MOs
 -- Occupied --
-88.8107 -19.1795 -19.1643 -19.1588 -19.1491 -19.1404 -19.1337 -19.1223
-19.1182 -19.0831 -19.0813 -14.4097 -14.3604 -10.3436 -10.3331 -10.2726
-10.2722 -10.2644 -10.2539 -10.2478 -10.2376 -10.2340 -10.2321 -10.2251
-10.2230 -10.2229 -10.2210 -10.2208 -10.2208 -10.2204 -10.2196 -10.2195
-10.2180 -10.2168 -10.2161 -10.2150 -10.2144 -10.2136 -10.2126 -10.2125
-10.2116 -10.2112 -10.2103 -10.2095 -10.2095 -10.2094 -10.2091 -10.2084
-10.2078 -10.2078 -10.2074 -10.2072 -10.2069 -10.2064 -10.2057 -10.2053
-10.2029 -10.2023 -10.2023 -10.2014 -10.2006 -10.1993 -10.1982 -10.1977
-10.1974 -10.1971 -10.1967 -10.1959 -10.1931 -10.1921 -10.1912 -10.1886
-10.1857 -10.1855 -10.1844 -10.1824 -10.1807 -10.1802 -10.1780  -7.9767
 -5.9347  -5.9306  -5.9232  -1.1501  -1.1254  -1.0980  -1.0706  -1.0570
 -1.0558  -1.0371  -1.0239  -1.0220  -1.0206  -1.0108  -0.9737  -0.9296
 -0.9212  -0.9024  -0.8991  -0.8926  -0.8808  -0.8807  -0.8800  -0.8783
 -0.8618  -0.8603  -0.8576  -0.8518  -0.8475  -0.8435  -0.8379  -0.8083
 -0.8073  -0.8072  -0.8063  -0.8032  -0.8011  -0.7910  -0.7901  -0.7782
 -0.7761  -0.7674  -0.7644  -0.7586  -0.7552  -0.7544  -0.7521  -0.7510
 -0.7507  -0.7467  -0.7404  -0.7368  -0.7311  -0.7221  -0.7150  -0.6979
 -0.6938  -0.6904  -0.6852  -0.6806  -0.6683  -0.6679  -0.6617  -0.6599
 -0.6593  -0.6583  -0.6401  -0.6391  -0.6313  -0.6289  -0.6255  -0.6225
 -0.6212  -0.6210  -0.6196  -0.6098  -0.6026  -0.5909  -0.5773  -0.5694
 -0.5668  -0.5619  -0.5572  -0.5522  -0.5414  -0.5374  -0.5362  -0.5355
 -0.5318  -0.5286  -0.5269  -0.5245  -0.5238  -0.5235  -0.5211  -0.5199
 -0.5191  -0.5179  -0.5177  -0.5143  -0.5139  -0.5136  -0.5123  -0.5046
 -0.5030  -0.5013  -0.5001  -0.4952  -0.4928  -0.4876  -0.4865  -0.4853
 -0.4847  -0.4830  -0.4829  -0.4825  -0.4812  -0.4789  -0.4787  -0.4768
 -0.4759  -0.4745  -0.4742  -0.4722  -0.4706  -0.4702  -0.4689  -0.4682
 -0.4654  -0.4645  -0.4621  -0.4601  -0.4577  -0.4572  -0.4569  -0.4562
 -0.4548  -0.4525  -0.4522  -0.4504  -0.4471  -0.4430  -0.4421  -0.4409
 -0.4404  -0.4366  -0.4355  -0.4352  -0.4335  -0.4332  -0.4313  -0.4307
 -0.4305  -0.4301  -0.4282  -0.4260  -0.4255  -0.4202  -0.4200  -0.4193
 -0.4184  -0.4178  -0.4159  -0.4115  -0.4092  -0.4090  -0.4086  -0.4082
 -0.4079  -0.4067  -0.4055  -0.4033  -0.4028  -0.4005  -0.3966  -0.3958
 -0.3957  -0.3944  -0.3943  -0.3919  -0.3906  -0.3886  -0.3883  -0.3876
 -0.3866  -0.3848  -0.3841  -0.3833  -0.3810  -0.3805  -0.3779  -0.3759
 -0.3742  -0.3703  -0.3694  -0.3677  -0.3674  -0.3670  -0.3667  -0.3666
 -0.3660  -0.3646  -0.3645  -0.3642  -0.3633  -0.3624  -0.3622  -0.3620
 -0.3599  -0.3586  -0.3558  -0.3553  -0.3551  -0.3504  -0.3490  -0.3464
 -0.3456  -0.3455  -0.3425  -0.3418  -0.3370  -0.3328  -0.3290  -0.3194
 -0.3161  -0.3101  -0.3084  -0.3017  -0.2979  -0.2866  -0.2731  -0.2728
 -0.2632  -0.2604  -0.2598  -0.2466  -0.2451  -0.2237  -0.2213  -0.1980
-10.1131 -10.1397 -10.0717 -10.3072 -10.0352 -10.0112  -9.9562  -9.9576
-10.0374  -9.9666 -10.0986  -9.8530  -9.9100 -10.0549  -9.6938  -9.8484
 -9.9085 -16.3770 -10.2148  -2.0440  -7.0667  -1.2679  -8.7309  -1.3418
 -0.9151  -1.0096  -1.1865  -1.7335  -2.3375  -0.8483  -1.0235  -1.2559
 -1.0862  -0.9583  -0.9617  -0.6005  -0.7603  -0.9002  -0.6724  -0.6876
 -0.6043  -0.6484  -0.6693  -0.5357  -0.5093  -0.5453  -0.5279  -0.4627
 -0.6504  -1.3909  -0.7267  -0.4428  -0.4793  -0.5170  -0.4839  -0.4889
 -0.4579  -0.4416  -0.4334  -0.4443  -0.4453  -0.4593  -0.4001  -0.4291
 -0.4191  -0.4288  -0.4313  -0.4096  -0.3998  -0.4030  -0.3202  -0.4216
 -0.4421  -0.5045  -0.4963
 -- Virtual --
  0.0954   0.1517   0.1539   0.1543   0.1567   0.1648   0.1662   0.1748
  0.1782   0.1876   0.1914   0.1952   0.1993   0.2023   0.2094   0.2127
  0.2135   0.2153   0.2207   0.2228   0.2255   0.2300   0.2319   0.2355
  0.2359   0.2411   0.2424   0.2440   0.2451   0.2466   0.2470   0.2482
  0.2505   0.2521   0.2548   0.2563   0.2593   0.2606   0.2627   0.2643
  0.2654   0.2663   0.2682   0.2713   0.2715   0.2739   0.2749   0.2760
  0.2775   0.2789   0.2801   0.2812   0.2827   0.2834   0.2854   0.2865
  0.2873   0.2887   0.2906   0.2925   0.2937   0.2943   0.2963   0.2973
  0.2975   0.2986   0.2994   0.3002   0.3023   0.3037   0.3041   0.3047
  0.3055   0.3069   0.3080   0.3094   0.3110   0.3123   0.3130   0.3136
  0.3148   0.3151   0.3175   0.3177   0.3198   0.3211   0.3216   0.3223
  0.3227   0.3239   0.3241   0.3254   0.3273   0.3276   0.3284   0.3289
  0.3295   0.3299   0.3319   0.3331   0.3335   0.3336   0.3356   0.3366
  0.3376   0.3383   0.3389   0.3396   0.3405   0.3414   0.3418   0.3429
  0.3459   0.3461   0.3468   0.3474   0.3483   0.3490   0.3499   0.3516
  0.3520   0.3521   0.3529   0.3546   0.3559   0.3577   0.3578   0.3588
  0.3607   0.3619   0.3627   0.3639   0.3641   0.3662   0.3664   0.3670
  0.3684   0.3699   0.3713   0.3717   0.3732   0.3739   0.3746   0.3761
  0.3776   0.3780   0.3807   0.3819   0.3820   0.3827   0.3839   0.3848
  0.3852   0.3868   0.3880   0.3887   0.3905   0.3921   0.3921   0.3938
  0.3943   0.3959   0.3981   0.3984   0.3995   0.4024   0.4024   0.4037
  0.4049   0.4060   0.4076   0.4084   0.4095   0.4116   0.4123   0.4130
  0.4146   0.4150   0.4174   0.4179   0.4199   0.4220   0.4224   0.4228
  0.4236   0.4250   0.4268   0.4277   0.4293   0.4299   0.4327   0.4332
  0.4335   0.4346   0.4362   0.4369   0.4401   0.4407   0.4418   0.4433
  0.4446   0.4466   0.4472   0.4501   0.4508   0.4522   0.4529   0.4541
  0.4559   0.4579   0.4611   0.4633   0.4644   0.4669   0.4685   0.4700
  0.4708   0.4720   0.4733   0.4769   0.4783   0.4792   0.4826   0.4848
  0.4868   0.4874   0.4913   0.4947   0.4960   0.4987   0.5017   0.5040
  0.5063   0.5112   0.5139   0.5174   0.5220   0.5231   0.5266   0.5278
  0.5302   0.5337   0.5390   0.5420   0.5455   0.5474   0.5563   0.5586
  0.5640   0.5680   0.5755   0.5805   0.5914   0.6023   0.6042   0.6108
  0.6164   0.6195   0.6280   0.6301   0.6413   0.6420   0.6438   0.6470
  0.6509   0.6533   0.6596   0.6604   0.6610   0.6641   0.6686   0.6699
  0.6710   0.6743   0.6748   0.6772   0.6781   0.6796   0.6800   0.6811
  0.6823   0.6841   0.6858   0.6862   0.6896   0.6903   0.6917   0.6926
  0.6933   0.6947   0.6955   0.6980   0.6985   0.7011   0.7031   0.7054
  0.7058   0.7070   0.7080   0.7103   0.7116   0.7123   0.7142   0.7155
  0.7156   0.7175   0.7198   0.7212   0.7230   0.7241   0.7278   0.7298
  0.7301   0.7320   0.7330   0.7340   0.7352   0.7372   0.7384   0.7395
  0.7407   0.7416   0.7441   0.7444   0.7457   0.7459   0.7478   0.7505
  0.7514   0.7529   0.7538   0.7555   0.7580   0.7582   0.7602   0.7636
  0.7647   0.7659   0.7684   0.7697   0.7722   0.7738   0.7747   0.7756
  0.7793   0.7798   0.7809   0.7822   0.7858   0.7865   0.7886   0.7914
  0.7923   0.7935   0.7944   0.7955   0.7968   0.7975   0.7995   0.8028
  0.8038   0.8067   0.8073   0.8081   0.8119   0.8143   0.8150   0.8154
  0.8172   0.8186   0.8202   0.8221   0.8241   0.8261   0.8267   0.8290
  0.8306   0.8315   0.8323   0.8357   0.8363   0.8396   0.8422   0.8429
  0.8451   0.8458   0.8462   0.8477   0.8486   0.8491   0.8501   0.8515
  0.8546   0.8567   0.8585   0.8595   0.8616   0.8620   0.8624   0.8638
  0.8649   0.8660   0.8667   0.8705   0.8724   0.8727   0.8752   0.8773
  0.8796   0.8830   0.8834   0.8851   0.8879   0.8884   0.8905   0.8919
  0.8920   0.8940   0.8962   0.8983   0.8999   0.9002   0.9005   0.9036
  0.9044   0.9055   0.9066   0.9072   0.9099   0.9113   0.9143   0.9157
  0.9164   0.9192   0.9204   0.9214   0.9233   0.9238   0.9252   0.9286
  0.9308   0.9314   0.9330   0.9356   0.9362   0.9400   0.9407   0.9430
  0.9435   0.9448   0.9462   0.9488   0.9523   0.9537   0.9554   0.9598
  0.9604   0.9614   0.9630   0.9651   0.9681   0.9694   0.9709   0.9734
  0.9746   0.9776   0.9796   0.9826   0.9841   0.9873   0.9885   0.9939
  0.9968   0.9984   1.0001   1.0039   1.0052   1.0070   1.0080   1.0094
  1.0102   1.0127   1.0132   1.0137   1.0171   1.0175   1.0184   1.0207
  1.0224   1.0235   1.0247   1.0250   1.0276   1.0286   1.0297   1.0314
  1.0333   1.0337   1.0363   1.0375   1.0381   1.0389   1.0417   1.0434
  1.0439   1.0449   1.0464   1.0470   1.0489   1.0514   1.0524   1.0535
  1.0550   1.0557   1.0574   1.0581   1.0600   1.0611   1.0626   1.0631
  1.0636   1.0639   1.0646   1.0664   1.0674   1.0677   1.0686   1.0706
  1.0719   1.0734   1.0740   1.0761   1.0767   1.0778   1.0788   1.0798
  1.0804   1.0816   1.0835   1.0854   1.0864   1.0881   1.0888   1.0894
  1.0905   1.0923   1.0930   1.0937   1.0947   1.0960   1.0978   1.0983
  1.0993   1.1002   1.1006   1.1019   1.1034   1.1049   1.1053   1.1070
  1.1082   1.1093   1.1108   1.1117   1.1129   1.1144   1.1148   1.1166
  1.1169   1.1177   1.1189   1.1193   1.1214   1.1220   1.1237   1.1243
  1.1255   1.1272   1.1277   1.1291   1.1303   1.1319   1.1328   1.1340
  1.1347   1.1353   1.1365   1.1367   1.1388   1.1400   1.1402   1.1431
  1.1453   1.1465   1.1478   1.1491   1.1506   1.1517   1.1536   1.1562
  1.1570   1.1581   1.1598   1.1627   1.1638   1.1658   1.1673   1.1678
  1.1697   1.1727   1.1735   1.1750   1.1757   1.1769   1.1776   1.1786
  1.1790   1.1839   1.1856   1.1870   1.1888   1.1911   1.1913   1.1923
  1.1931   1.1955   1.1973   1.1978   1.1997   1.2010   1.2027   1.2037
  1.2053   1.2058   1.2086   1.2092   1.2105   1.2132   1.2144   1.2161
  1.2177   1.2186   1.2210   1.2230   1.2249   1.2275   1.2288   1.2314
  1.2333   1.2343   1.2351   1.2384   1.2409   1.2436   1.2441   1.2467
  1.2480   1.2493   1.2524   1.2537   1.2566   1.2595   1.2649   1.2675
  1.2683   1.2698   1.2738   1.2748   1.2759   1.2775   1.2807   1.2870
  1.2895   1.2923   1.2941   1.2953   1.3000   1.3051   1.3075   1.3083
  1.3154   1.3166   1.3180   1.3241   1.3268   1.3281   1.3318   1.3329
  1.3359   1.3381   1.3408   1.3455   1.3475   1.3491   1.3513   1.3546
  1.3554   1.3575   1.3605   1.3618   1.3651   1.3691   1.3729   1.3763
  1.3793   1.3832   1.3851   1.3868   1.3896   1.3903   1.3931   1.3947
  1.3981   1.4050   1.4071   1.4086   1.4095   1.4163   1.4199   1.4256
  1.4295   1.4317   1.4353   1.4364   1.4401   1.4462   1.4477   1.4505
  1.4527   1.4547   1.4583   1.4612   1.4660   1.4736   1.4776   1.4831
  1.4907   1.4917   1.4949   1.5018   1.5043   1.5065   1.5098   1.5134
  1.5170   1.5188   1.5191   1.5246   1.5294   1.5301   1.5316   1.5392
  1.5424   1.5457   1.5475   1.5518   1.5547   1.5584   1.5619   1.5625
  1.5649   1.5660   1.5685   1.5708   1.5767   1.5796   1.5870   1.5891
  1.5906   1.5936   1.5945   1.5959   1.5968   1.5985   1.6007   1.6023
  1.6039   1.6068   1.6089   1.6097   1.6121   1.6135   1.6167   1.6182
  1.6188   1.6195   1.6231   1.6239   1.6263   1.6341   1.6351   1.6364
  1.6393   1.6426   1.6428   1.6442   1.6465   1.6487   1.6507   1.6515
  1.6525   1.6529   1.6546   1.6569   1.6622   1.6636   1.6652   1.6667
  1.6691   1.6713   1.6753   1.6810   1.6840   1.6871   1.6897   1.6909
  1.6934   1.6951   1.6954   1.6970   1.6984   1.7015   1.7039   1.7060
  1.7073   1.7087   1.7123   1.7125   1.7175   1.7256   1.7285   1.7290
  1.7351   1.7425   1.7528   1.7550   1.7608   1.7660   1.7713   1.7772
  1.7800   1.7920   1.7925   1.7985   1.8057   1.8090   1.8156   1.8171
  1.8217   1.8267   1.8380   1.8388   1.8445   1.8549   1.8579   1.8601
  1.8666   1.8700   1.8708   1.8719   1.8778   1.8829   1.8848   1.8851
  1.8878   1.8903   1.8970   1.8981   1.9006   1.9014   1.9050   1.9071
  1.9077   1.9081   1.9103   1.9121   1.9135   1.9163   1.9166   1.9168
  1.9195   1.9205   1.9228   1.9251   1.9280   1.9318   1.9340   1.9374
  1.9426   1.9464   1.9502   1.9514   1.9538   1.9573   1.9580   1.9610
  1.9660   1.9681   1.9690   1.9703   1.9719   1.9750   1.9766   1.9782
  1.9802   1.9843   1.9856   1.9870   1.9910   1.9913   1.9927   1.9939
  1.9965   1.9981   1.9984   2.0005   2.0027   2.0053   2.0064   2.0082
  2.0087   2.0104   2.0116   2.0125   2.0142   2.0170   2.0182   2.0219
  2.0241   2.0276   2.0296   2.0335   2.0339   2.0389   2.0442   2.0457
  2.0487   2.0543   2.0592   2.0609   2.0668   2.0702   2.0741   2.0761
  2.0779   2.0785   2.0806   2.0828   2.0851   2.0886   2.0903   2.0914
  2.0938   2.0960   2.1008   2.1023   2.1072   2.1099   2.1107   2.1120
  2.1154   2.1193   2.1226   2.1243   2.1248   2.1272   2.1279   2.1296
  2.1309   2.1336   2.1343   2.1360   2.1366   2.1369   2.1381   2.1392
  2.1411   2.1427   2.1440   2.1460   2.1485   2.1506   2.1517   2.1548
  2.1566   2.1580   2.1598   2.1612   2.1631   2.1650   2.1667   2.1692
  2.1718   2.1765   2.1797   2.1808   2.1817   2.1840   2.1845   2.1854
  2.1895   2.1902   2.1908   2.1922   2.1932   2.1974   2.1988   2.2009
  2.2017   2.2041   2.2052   2.2083   2.2090   2.2102   2.2141   2.2149
  2.2169   2.2182   2.2192   2.2229   2.2334   2.2347   2.2368   2.2387
  2.2426   2.2464   2.2472   2.2483   2.2529   2.2584   2.2598   2.2672
  2.2714   2.2742   2.2755   2.2772   2.2807   2.2812   2.2826   2.2839
  2.2882   2.2924   2.2930   2.2961   2.2967   2.2990   2.3015   2.3046
  2.3073   2.3080   2.3111   2.3131   2.3164   2.3202   2.3224   2.3259
  2.3268   2.3289   2.3319   2.3341   2.3353   2.3373   2.3425   2.3459
  2.3466   2.3529   2.3556   2.3560   2.3582   2.3621   2.3663   2.3709
  2.3770   2.3778   2.3788   2.3801   2.3879   2.3946   2.3953   2.3975
  2.4014   2.4026   2.4065   2.4091   2.4133   2.4235   2.4274   2.4295
  2.4306   2.4321   2.4334   2.4384   2.4391   2.4398   2.4403   2.4409
  2.4421   2.4440   2.4453   2.4456   2.4475   2.4495   2.4509   2.4517
  2.4524   2.4527   2.4541   2.4561   2.4599   2.4609   2.4622   2.4635
  2.4650   2.4687   2.4698   2.4713   2.4723   2.4742   2.4756   2.4770
  2.4849   2.4855   2.4862   2.4870   2.4917   2.4935   2.4973   2.4991
  2.4994   2.5032   2.5053   2.5057   2.5061   2.5094   2.5105   2.5122
  2.5137   2.5146   2.5173   2.5183   2.5187   2.5236   2.5251   2.5255
  2.5265   2.5322   2.5339   2.5346   2.5392   2.5404   2.5421   2.5426
  2.5444   2.5492   2.5582   2.5589   2.5682   2.5693   2.5699   2.5760
  2.5780   2.5823   2.5842   2.5906   2.5912   2.6036   2.6081   2.6090
  2.6100   2.6132   2.6166   2.6217   2.6270   2.6293   2.6374   2.6413
  2.6436   2.6457   2.6476   2.6554   2.6640   2.6688   2.6725   2.6765
  2.6784   2.6791   2.6816   2.6848   2.6882   2.6900   2.6940   2.6949
  2.6972   2.7034   2.7057   2.7074   2.7085   2.7091   2.7131   2.7153
  2.7181   2.7196   2.7218   2.7253   2.7292   2.7300   2.7387   2.7396
  2.7456   2.7516   2.7595   2.7628   2.7706   2.7744   2.7800   2.7811
  2.7839   2.7880   2.7926   2.7959   2.8044   2.8065   2.8121   2.8176
  2.8243   2.8251   2.8274   2.8330   2.8355   2.8383   2.8423   2.8447
  2.8504   2.8531   2.8613   2.8616   2.8639   2.8656   2.8707   2.8719
  2.8795   2.8807   2.8816   2.8830   2.8907   2.8940   2.8951   2.9011
  2.9039   2.9064   2.9086   2.9124   2.9154   2.9180   2.9190   2.9228
  2.9256   2.9286   2.9317   2.9341   2.9374   2.9375   2.9417   2.9486
  2.9495   2.9518   2.9592   2.9610   2.9638   2.9705   2.9760   2.9810
  2.9895   2.9923   3.0040   3.0089   3.0244   3.0358   3.0578   3.0655
  3.0746   3.0817   3.0854   3.0908   3.0960   3.1012   3.1060   3.1200
  3.1355   3.1454   3.1587   3.1622   3.1836   3.2058   3.2193   3.2262
  3.2348   3.2435   3.2475   3.2536   3.2708   3.2833   3.3191   3.3334
  3.3442   3.3448   3.3702   3.3918   3.3937   3.4805   3.6357   3.6492
  3.6837   3.9618   3.9704   4.0072   4.1299   4.1418   4.1586   4.1945
  4.2392   4.2674   4.3076   4.3244   4.3279   4.3329   4.3391   4.3408
  4.3440   4.3457   4.3495   4.3515   4.3560   4.3664   4.3691   4.3697
  4.3759   4.3770   4.3893   4.3920   4.3963   4.3971   4.4067   4.4098
  4.4129   4.4178   4.4316   4.4378   4.4502   4.4521   4.4549   4.4598
  4.4768   4.4833   4.4866   4.4875   4.4888   4.4977   4.4992   4.5069
  4.5115   4.5183   4.5203   4.5256   4.5333   4.5347   4.5437   4.5471
  4.5487   4.5531   4.5556   4.5670   4.5688   4.5726   4.5737   4.5807
  4.6039   4.6217   4.6234   4.6298   4.6340   4.6418   4.6517   4.6584
  4.6592   4.6625   4.6709   4.6754   4.6770   4.7097   4.7119   4.7329
  4.7465   4.7515   4.7551   4.7764   4.7872   4.7962   4.7986   4.8020
  4.8089   4.8170   4.8384   4.8806   4.9180   4.9247   4.9402   4.9741
  4.9774   5.0347   5.0376   5.0568
 --------------------------------------------------------------
 
          Ground-State Mulliken Net Atomic Charges

     Atom                 Charge (a.u.)
  ----------------------------------------
      1 C                     0.479756
      2 O                    -0.597386
      3 C                    -0.286279
      4 C                     0.176745
      5 C                    -0.231663
      6 C                    -0.315391
      7 C                    -0.392365
      8 C                    -0.415263
      9 C                    -0.301484
     10 C                    -0.138321
     11 C                    -0.126775
     12 C                    -0.119835
     13 C                    -0.049281
     14 C                    -0.308248
     15 C                    -0.326494
     16 C                    -0.310539
     17 C                    -0.334081
     18 C                     0.153173
     19 C                    -0.497179
     20 O                    -0.706390
     21 H                     0.195016
     22 H                     0.257449
     23 H                     0.155398
     24 H                     0.158974
     25 H                     0.191681
     26 H                     0.185841
     27 H                     0.162493
     28 H                     0.269164
     29 H                     0.142459
     30 H                     0.174545
     31 H                     0.161229
     32 H                     0.125248
     33 H                     0.124658
     34 H                     0.133797
     35 H                     0.162020
     36 H                     0.179131
     37 H                     0.140930
     38 H                     0.161881
     39 H                     0.160988
     40 H                     0.145826
     41 H                     0.162621
     42 H                     0.131884
     43 H                     0.185454
     44 H                     0.150265
     45 H                     0.154170
     46 H                     0.439283
     47 H                     0.140261
     48 C                    -0.454364
     49 H                     0.155052
     50 C                    -0.345331
     51 H                     0.144755
     52 H                     0.150005
     53 C                     0.101447
     54 C                    -0.194841
     55 H                     0.132356
     56 C                    -0.196367
     57 H                     0.147204
     58 C                     0.339084
     59 O                    -0.698947
     60 H                     0.461700
     61 C                    -0.239469
     62 H                     0.174134
     63 C                    -0.194077
     64 H                     0.143700
     65 H                     0.158910
     66 H                     0.144709
     67 C                    -0.457892
     68 H                     0.146069
     69 C                    -0.122867
     70 H                     0.139053
     71 C                    -0.461662
     72 H                     0.149883
     73 H                     0.147809
     74 H                     0.162046
     75 C                    -0.457360
     76 H                     0.171481
     77 H                     0.142210
     78 H                     0.144347
     79 H                     0.148616
     80 H                     0.136792
     81 C                    -0.471219
     82 H                     0.164754
     83 C                    -0.352611
     84 H                     0.145443
     85 H                     0.147519
     86 C                     0.571525
     87 O                    -0.565623
     88 O                    -0.598093
     89 H                     0.152873
     90 H                     0.149559
     91 C                    -0.623082
     92 H                     0.249413
     93 H                     0.247065
     94 C                     0.597520
     95 O                    -0.550026
     96 N                    -0.603219
     97 H                     0.341396
     98 C                    -0.152163
     99 H                     0.204065
    100 C                    -0.302076
    101 H                     0.137578
    102 H                     0.153350
    103 C                    -0.128162
    104 H                     0.162765
    105 C                    -0.464192
    106 H                     0.162843
    107 H                     0.149819
    108 H                     0.147544
    109 C                    -0.477243
    110 H                     0.144852
    111 H                     0.173325
    112 H                     0.167511
    113 H                     0.164377
    114 H                     0.143577
    115 C                    -0.459757
    116 H                     0.154404
    117 C                    -0.119423
    118 H                     0.125516
    119 C                    -0.474407
    120 H                     0.139287
    121 H                     0.177369
    122 H                     0.159423
    123 C                    -0.488282
    124 H                     0.168643
    125 H                     0.147018
    126 H                     0.169291
    127 H                     0.144055
    128 H                     0.161476
    129 C                    -0.456883
    130 H                     0.145238
    131 C                    -0.347887
    132 H                     0.150891
    133 H                     0.151876
    134 C                     0.117036
    135 C                    -0.201875
    136 H                     0.134240
    137 C                    -0.151671
    138 H                     0.153150
    139 C                    -0.171215
    140 H                     0.162369
    141 C                    -0.166287
    142 H                     0.206121
    143 C                    -0.199884
    144 H                     0.137720
    145 H                     0.159233
    146 H                     0.145841
    147 C                    -0.459947
    148 H                     0.153698
    149 C                    -0.137979
    150 H                     0.156954
    151 C                    -0.456744
    152 H                     0.145437
    153 H                     0.150756
    154 H                     0.153619
    155 C                    -0.477712
    156 H                     0.159168
    157 H                     0.165369
    158 H                     0.155026
    159 H                     0.147442
    160 H                     0.181712
    161 C                    -0.468585
    162 H                     0.151509
    163 C                    -0.305800
    164 H                     0.170864
    165 H                     0.161121
    166 C                    -0.440761
    167 H                     0.169245
    168 H                     0.197669
    169 S                     0.076791
    170 C                    -0.633037
    171 H                     0.182610
    172 H                     0.201718
    173 H                     0.204598
    174 H                     0.146206
    175 H                     0.145076
    176 C                    -0.469129
    177 H                     0.151954
    178 C                    -0.274897
    179 H                     0.137583
    180 H                     0.137365
    181 C                    -0.116388
    182 H                     0.132215
    183 C                    -0.472857
    184 H                     0.142110
    185 H                     0.146976
    186 H                     0.166024
    187 C                    -0.474391
    188 H                     0.149193
    189 H                     0.161598
    190 H                     0.176165
    191 H                     0.149331
    192 H                     0.142152
    193 C                    -0.463780
    194 H                     0.157901
    195 C                    -0.118507
    196 H                     0.140477
    197 C                    -0.475492
    198 H                     0.180319
    199 H                     0.134602
    200 H                     0.144589
    201 C                    -0.465734
    202 H                     0.159880
    203 H                     0.140724
    204 H                     0.161440
    205 H                     0.136559
    206 H                     0.159354
    207 C                    -0.467234
    208 H                     0.180835
    209 C                    -0.381483
    210 H                     0.177126
    211 H                     0.187071
    212 C                     0.587628
    213 O                    -0.475095
    214 O                    -0.618313
    215 H                     0.468997
    216 H                     0.143591
    217 H                     0.149519
    218 C                    -0.469237
    219 H                     0.137956
    220 C                    -0.505238
    221 H                     0.157719
    222 H                     0.200350
    223 H                     0.148242
    224 H                     0.150169
    225 H                     0.154819
    226 C                    -0.455594
    227 H                     0.137256
    228 C                    -0.353977
    229 H                     0.156774
    230 H                     0.151046
    231 C                     0.007266
    232 C                    -0.010943
    233 H                     0.172605
    234 N                    -0.724297
    235 H                     0.421552
    236 C                     0.283494
    237 C                    -0.181234
    238 H                     0.162440
    239 C                    -0.179796
    240 H                     0.136337
    241 C                    -0.179184
    242 H                     0.125489
    243 C                    -0.201014
    244 H                     0.132511
    245 C                     0.024220
    246 H                     0.156044
    247 O                    -0.842876
    248 H                     0.390526
    249 H                     0.451137
    250 O                    -0.844316
    251 H                     0.434220
    252 H                     0.409165
    253 O                    -0.846541
    254 H                     0.440972
    255 H                     0.384469
    256 O                    -0.858205
    257 H                     0.407749
    258 H                     0.404795
  ----------------------------------------
  Sum of atomic charges =    -1.000000

 -----------------------------------------------------------------
                    Cartesian Multipole Moments
 -----------------------------------------------------------------
    Charge (ESU x 10^10)
                -4.8032
    Dipole Moment (Debye)
         X     -11.9308      Y     -26.8238      Z      45.4403
       Tot      54.0988
    Quadrupole Moments (Debye-Ang)
        XX    -727.9062     XY     -75.2617     YY    -907.2341
        XZ     127.0190     YZ     291.5888     ZZ   -1127.1288
    Octopole Moments (Debye-Ang^2)
       XXX  -10026.1146    XXY   -3572.9939    XYY   -3809.0623
       YYY  -11346.5247    XXZ    7247.1740    XYZ     959.4497
       YYZ    9303.2536    XZZ   -4723.1335    YZZ   -6928.4000
       ZZZ   24540.6283
    Hexadecapole Moments (Debye-Ang^3)
      XXXX -139075.4244   XXXY  -52004.5238   XXYY  -52139.7206
      XYYY  -52870.6720   YYYY -176570.1789   XXXZ  105605.6543
      XXYZ   36770.6268   XYYZ   41937.8161   YYYZ  117313.4835
      XXZZ -106920.2257   XYZZ  -30753.2073   YYZZ -140496.9667
      XZZZ  119948.0668   YZZZ  148534.6427   ZZZZ -505698.4290
 -----------------------------------------------------------------
 Total job time:  1569.67s(wall), 46700.56s(cpu) 
 Fri Aug  9 14:20:25 2024

        *************************************************************
        *                                                           *
        *  Thank you very much for using Q-Chem.  Have a nice day.  *
        *                                                           *
        *************************************************************



Running Job 2 of 2 19nt_mm_min_distance_cutoff3_xtb_optimized_spade_wb97x-v_631gd.in
qchem 19nt_mm_min_distance_cutoff3_xtb_optimized_spade_wb97x-v_631gd.in_619636.1 ./qchem619636/ 1
srun -n 1 /cm/shared/apps/spack/0.17.3/cpu/b/opt/spack/linux-rocky8-zen2/gcc-10.2.0/qchem-6.0-rytxnwjazd34ekd2gqyi5ufsaimxsd3r/exe/qcprog.exe 19nt_mm_min_distance_cutoff3_xtb_optimized_spade_wb97x-v_631gd.in_619636.1 ./qchem619636/

                  Welcome to Q-Chem
     A Quantum Leap Into The Future Of Chemistry


 Q-Chem 6.0, Q-Chem, Inc., Pleasanton, CA (2022)

 License issued to: University of California, San Diego (site)

 E. Epifanovsky,  A. T. B. Gilbert,  Xintian Feng,  Joonho Lee,  Yuezhi Mao,  
 N. Mardirossian,  P. Pokhilko,  A. White,  M. Wormit,  M. P. Coons,  
 A. L. Dempwolff,  Zhengting Gan,  D. Hait,  P. R. Horn,  L. D. Jacobson,  
 I. Kaliman,  J. Kussmann,  A. W. Lange,  Ka Un Lao,  D. S. Levine,  Jie Liu,  
 S. C. McKenzie,  A. F. Morrison,  K. Nanda,  F. Plasser,  D. R. Rehn,  
 M. L. Vidal,  Zhi-Qiang You,  Ying Zhu,  B. Alam,  B. Albrecht,  
 A. Aldossary,  E. Alguire,  J. H. Andersen,  V. Athavale,  D. Barton,  
 K. Begam,  A. Behn,  N. Bellonzi,  Y. A. Bernard,  E. J. Berquist,  
 H. Burton,  A. Carreras,  K. Carter-Fenk,  Romit Chakraborty,  
 Chandrima Chakravarty,  Junhan Chen,  A. D. Chien,  K. D. Closser,  
 V. Cofer-Shabica,  L. Cunha,  S. Dasgupta,  Jia Deng,  M. de Wergifosse,  
 M. Diedenhofen,  Hainam Do,  S. Ehlert,  Po-Tung Fang,  S. Fatehi,  
 Qingguo Feng,  T. Friedhoff,  B. Ganoe,  J. Gayvert,  Qinghui Ge,  
 G. Gidofalvi,  M. Goldey,  J. Gomes,  C. Gonzalez-Espinoza,  S. Gulania,  
 A. Gunina,  J. A. Gyamfi,  M. W. D. Hanson-Heine,  P. H. P. Harbach,  
 A. W. Hauser,  M. F. Herbst,  M. Hernandez Vera,  M. Hodecker,  
 Z. C. Holden,  S. Houck,  Xunkun Huang,  Kerwin Hui,  B. C. Huynh,  
 K. Ikeda,  M. Ivanov,  Hyunjun Ji,  Zuxin Jin,  Hanjie Jiang,  B. Kaduk,  
 S. Kaehler,  R. Kang,  K. Khistyaev,  Jaehoon Kim,  Yongbin Kim,  
 P. Klunzinger,  Z. Koczor-Benda,  Joong Hoon Koh,  D. Kosenkov,  
 Saikiran Kotaru,  L. Koulias,  T. Kowalczyk,  C. M. Krauter,  K. Kue,  
 A. Kunitsa,  T. Kus,  A. Landau,  K. V. Lawler,  D. Lefrancois,  S. Lehtola,  
 Rain Li,  Shaozhi Li,  Yi-Pei Li,  Jiashu Liang,  M. Liebenthal,  
 Hung-Hsuan Lin,  You-Sheng Lin,  Fenglai Liu,  Kuan-Yu Liu,  
 M. Loipersberger,  A. Luenser,  C. Malbon,  A. Manjanath,  P. Manohar,  
 E. Mansoor,  S. F. Manzer,  Shan-Ping Mao,  A. V. Marenich,  T. Markovich,  
 S. Mason,  F. Matz,  S. A. Maurer,  P. F. McLaughlin,  M. F. S. J. Menger,  
 J.-M. Mewes,  S. A. Mewes,  P. Morgante,  Mohammad Mostafanejad,  
 J. W. Mullinax,  K. J. Oosterbaan,  G. Paran,  V. Parravicini,  
 Alexander C. Paul,  Suranjan K. Paul,  F. Pavosevic,  Zheng Pei,  S. Prager,  
 E. I. Proynov,  E. Ramos,  B. Rana,  A. E. Rask,  A. Rettig,  R. M. Richard,  
 F. Rob,  E. Rossomme,  T. Scheele,  M. Scheurer,  M. Schneider,  
 P. E. Schneider,  N. Sergueev,  S. M. Sharada,  Hengyuan Shen,  
 W. Skomorowski,  D. W. Small,  C. J. Stein,  Yingli Su,  Yu-Chuan Su,  
 E. J. Sundstrom,  Zhen Tao,  J. Thirman,  Hung-Yi Tsai,  T. Tsuchimochi,  
 N. M. Tubman,  C. Utku,  S. P. Veccham,  O. Vydrov,  J. Wenzel,  
 Jonathan Wong,  J. Witte,  A. Yamada,  Chou-Hsun Yang,  Kun Yao,  
 S. Yeganeh,  S. R. Yost,  A. Zech,  F. Zeller,  Igor Ying Zhang,  
 Xing Zhang,  Yu Zhang,  D. Zuev,  A. Aspuru-Guzik,  A. T. Bell,  
 N. A. Besley,  K. B. Bravaya,  B. R. Brooks,  D. Casanova,  Jeng-Da Chai,  
 Hsing-Ta Chen,  S. Coriani,  C. J. Cramer,  A. E. DePrince, III,  
 R. A. DiStasio Jr.,  A. Dreuw,  B. D. Dunietz,  T. R. Furlani,  
 W. A. Goddard III,  S. Grimme,  S. Hammes-Schiffer,  T. Head-Gordon,  
 W. J. Hehre,  Chao-Ping Hsu,  T.-C. Jagau,  Yousung Jung,  A. Klamt,  
 Jing Kong,  D. S. Lambrecht,  Xiangyuan Li,  WanZhen Liang,  N. J. Mayhall,  
 C. W. McCurdy,  J. B. Neaton,  T. Neudecker,  C. Ochsenfeld,  
 J. A. Parkhill,  R. Peverati,  V. A. Rassolov,  Haisheng Ren,  Yihan Shao,  
 L. V. Slipchenko,  R. P. Steele,  J. E. Subotnik,  A. J. W. Thom,  
 A. Tkatchenko,  D. G. Truhlar,  T. Van Voorhis,  Fan Wang,  
 T. A. Wesolowski,  K. B. Whaley,  H. L. Woodcock III,  P. M. Zimmerman,  
 S. Faraji,  P. M. W. Gill,  M. Head-Gordon,  J. M. Herbert,  A. I. Krylov

 Contributors to earlier versions of Q-Chem not listed above: 
 R. D. Adamson,  B. Austin,  R. Baer,  J. Baker,  G. J. O. Beran,  
 K. Brandhorst,  S. T. Brown,  E. F. C. Byrd,  Arup K. Chakraborty,  
 G. K. L. Chan,  Chun-Min Chang,  Yunqing Chen,  C.-L. Cheng,  
 Siu Hung Chien,  D. M. Chipman,  D. L. Crittenden,  H. Dachsel,  
 R. J. Doerksen,  A. D. Dutoi,  R. G. Edgar,  J. Fosso-Tande,  
 L. Fusti-Molnar,  D. Ghosh,  A. Ghysels,  A. Golubeva-Zadorozhnaya,  
 J. Gonthier,  M. S. Gordon,  S. R. Gwaltney,  G. Hawkins,  J. E. Herr,  
 A. Heyden,  S. Hirata,  E. G. Hohenstein,  G. Kedziora,  F. J. Keil,  
 C. Kelley,  Jihan Kim,  R. A. King,  R. Z. Khaliullin,  P. P. Korambath,  
 W. Kurlancheek,  A. Laurent,  A. M. Lee,  M. S. Lee,  S. V. Levchenko,  
 Ching Yeh Lin,  D. Liotard,  E. Livshits,  R. C. Lochan,  I. Lotan,  
 L. A. Martinez-Martinez,  P. E. Maslen,  N. Nair,  D. P. O'Neill,  
 D. Neuhauser,  E. Neuscamman,  C. M. Oana,  R. Olivares-Amaya,  R. Olson,  
 T. M. Perrine,  B. Peters,  P. A. Pieniazek,  A. Prociuk,  Y. M. Rhee,  
 J. Ritchie,  M. A. Rohrdanz,  E. Rosta,  N. J. Russ,  H. F. Schaefer III,  
 M. W. Schmidt,  N. E. Schultz,  S. Sharma,  N. Shenvi,  C. D. Sherrill,  
 A. C. Simmonett,  A. Sodt,  T. Stein,  D. Stuck,  K. S. Thanthiriwatte,  
 V. Vanovschi,  L. Vogt,  Tao Wang,  A. Warshel,  M. A. Watson,  
 C. F. Williams,  Q. Wu,  X. Xu,  Jun Yang,  W. Zhang,  Yan Zhao

   Please cite Q-Chem as follows:
  "Software for the frontiers of quantum chemistry:
   An overview of developments in the Q-Chem 5 package"
   J. Chem. Phys. 155, 084801 (2021)
   https://doi.org/10.1063/5.0055522 (open access)

 Q-Chem 6.0.2 for Intel X86 EM64T Linux

 Parts of Q-Chem use Armadillo 9.900.5 (Nocturnal Misbehaviour).
 http://arma.sourceforge.net/

 Q-Chem begins on Fri Aug  9 14:20:26 2024  

 Host: 
0

     Scratch files written to ./qchem619636//
 Dec722 |scratch|qcdevops|jenkins|workspace|build_RNUM    
 Processing $rem in /cm/shared/apps/spack/0.17.3/cpu/b/opt/spack/linux-rocky8-zen2/gcc-10.2.0/qchem-6.0-rytxnwjazd34ekd2gqyi5ufsaimxsd3r/config/preferences:
 Processing $rem in /home/hklem/.qchemrc:

 Checking the input file for inconsistencies... 	...done.

--------------------------------------------------------------
User input:
--------------------------------------------------------------

$molecule
-1 1
@C    2.25100    1.37500    -9.28300
@O    1.80900    0.36400    -8.70700
@C    2.55800    2.58500    -8.60400
@C    2.90000    3.73500    -9.24500
@C    3.12300    3.75600    -10.72200
@C    3.46900    2.35300    -11.22500
@C    2.40700    1.36500    -10.77800
@C    2.90300    5.01500    -8.51100
@C    3.86900    6.07500    -9.03500
@C    3.78700    6.17200    -10.55600
@C    4.16900    4.80200    -11.14700
@C    4.72700    7.23300    -11.11900
@C    4.66500    7.28600    -12.65000
@C    5.17300    5.95700    -13.19500
@C    4.30500    4.81300    -12.67600
@C    4.53600    8.69800    -10.70800
@C    5.16400    9.51000    -11.86300
@C    5.59300    8.48000    -12.92800
@C    3.27200    7.60300    -13.19400
@O    5.50600    9.00000    -14.23600
@H    2.42000    2.58900    -7.53200
@H    2.16000    4.05500    -11.16600
@H    4.44300    2.05500    -10.82700
@H    3.52200    2.33900    -12.31300
@H    1.43900    1.65500    -11.20100
@H    2.62500    0.35200    -11.12200
@H    3.05400    4.84900    -7.44400
@H    1.87100    5.40000    -8.62200
@H    4.89000    5.82300    -8.73600
@H    3.62200    7.03700    -8.58500
@H    2.75700    6.41000    -10.82700
@H    5.14100    4.51500    -10.72400
@H    5.75100    6.94400    -10.84700
@H    6.20600    5.81000    -12.86600
@H    5.16200    5.95300    -14.28500
@H    3.31500    4.86900    -13.12800
@H    4.76300    3.87700    -13.00100
@H    5.02000    8.91600    -9.75800
@H    3.47800    8.92900    -10.59400
@H    6.01000    10.10900   -11.52600
@H    4.44600    10.19600   -12.31100
@H    6.63600    8.16700    -12.74700
@H    2.56500    6.81700    -12.96100
@H    2.89300    8.53500    -12.78700
@H    3.31500    7.69800    -14.27600
@H    5.37100    8.24400    -14.83200
H    6.70400    -6.57000   -9.54800
C    5.99400    -5.77200   -9.75900
H    5.81200    -5.74100   -10.83100
C    4.68100    -5.99700   -9.00800
H    4.25200    -6.95500   -9.30800
H    4.88200    -6.03300   -7.93500
C    3.71700    -4.88400   -9.31100
C    2.78100    -5.00500   -10.32800
H    2.71500    -5.93000   -10.88500
C    1.92800    -3.96500   -10.64000
H    1.19700    -4.06100   -11.42800
C    1.99600    -2.76600   -9.93200
O    1.15000    -1.77000   -10.26000
H    1.31900    -0.99300   -9.67400
C    2.93800    -2.63700   -8.91400
H    2.99700    -1.71100   -8.36200
C    3.78400    -3.68500   -8.61300
H    4.50900    -3.57000   -7.81900
H    6.43900    -4.82400   -9.46300
H    8.04700    -2.06500   -14.12800
C    7.70300    -1.10900   -13.74000
H    7.03400    -0.66000   -14.47100
C    6.97700    -1.29700   -12.40800
H    7.67400    -1.74800   -11.69300
C    6.52100    0.05100    -11.85600
H    7.37100    0.71500    -11.71000
H    5.82900    0.52600    -12.54900
H    6.01800    -0.08100   -10.90100
C    5.78100    -2.23300   -12.57300
H    5.27600    -2.38600   -11.62100
H    6.10000    -3.20300   -12.94900
H    5.06400    -1.81200   -13.27500
H    8.56400    -0.45600   -13.61700
H    -3.97200   6.94200    -7.40800
C    -3.19600   6.35200    -7.89500
H    -3.60300   5.91900    -8.80700
C    -1.98600   7.22000    -8.23200
H    -1.54500   7.62900    -7.32000
H    -2.29400   8.04400    -8.88000
C    -0.91800   6.39300    -8.98700
O    0.12400    6.10200    -8.36300
O    -1.17500   6.07700    -10.16100
H    -2.90400   5.54100    -7.22900
H    2.08900    6.50200    -17.69400
C    2.65900    6.75500    -16.80500
H    2.20600    6.26500    -15.94200
H    2.64900    7.83200    -16.64700
C    4.10000    6.29100    -16.92700
O    5.02600    6.87800    -16.37100
N    4.32600    5.19200    -17.67700
H    3.53100    4.73100    -18.09300
C    5.62300    4.55200    -17.90500
H    6.33500    5.02700    -17.22900
C    5.53600    3.04700    -17.66800
H    4.74900    2.64300    -18.31100
H    6.47900    2.59200    -17.97800
C    5.24200    2.66100    -16.21200
H    4.43100    3.29500    -15.83800
C    4.78900    1.20400    -16.13900
H    4.57500    0.92400    -15.11100
H    3.88600    1.04600    -16.72600
H    5.56700    0.54500    -16.52100
[...]
    3   2.2843746   1.0129537  -0.1278007  -0.4623814  -0.9013024  -1.8511159
          139         140         141         142         143         144
    1  -0.4510466  -1.4296479  -0.6183325  -1.4162555   0.2093106  -0.0753007
    2  -0.6013910  -0.2878246  -1.1661931  -1.3356225  -1.3910590  -1.7712774
    3  -0.5731271  -1.4356839   0.9635760   1.3896479   1.9472941   3.2224799
          145         146         147         148         149         150
    1   2.0289992   2.2987797   2.1939625   3.3639844   0.9349795   0.4580256
    2   1.4669117  -0.8364051   0.3748285   0.1653068   0.1486327   0.9765721
    3   0.3253944   1.9866701   0.6987792  -0.5887059  -0.3076632  -1.5581098
          151         152         153         154         155         156
    1   1.2766602   1.6969904   2.8257466  -0.4711763  -0.0782332   0.7594045
    2  -1.2200229  -1.9256001  -0.9934767  -1.4136227   0.1594577  -0.7547101
    3  -0.4319084   1.0668203  -1.2301494  -1.2218423   0.3743560   1.7116123
          157         158         159         160         161         162
    1  -1.4389065  -0.0313706   1.5625279   2.5586213   2.0491001   2.5099449
    2  -0.5073668   1.7855167   1.9492594  -0.3759465   1.0989185   0.7401504
    3  -0.9364766   0.5913617   1.1938993   0.5982717  -0.5929107  -2.0501847
          163         164         165         166         167         168
    1   0.8114845   0.8543322   0.1471678   0.0054289   0.6362938  -1.7790339
    2   1.2125703  -0.5001060   2.5449338   2.0372728   3.4272261   1.6258195
    3  -1.6189716  -2.2867148  -2.3188284  -0.7032078   0.5743189  -1.2366131
          169         170         171         172         173         174
    1   1.1486811   0.1354144   1.4746718  -1.7446342   0.6461979   1.7324205
    2   0.2157340   1.4438419   2.8737434   1.6745448  -0.0429512   2.7219330
    3  -0.1478148   0.8485376   1.0387903  -0.2007224   1.4858834   0.3306807
          175         176         177         178         179         180
    1   2.6883948   1.8635088   1.1251450   1.1165785   1.4902926   0.2216375
    2   1.5309981   1.3022618   2.7608601   1.2082436  -0.2744641   2.8956690
    3  -0.4921477   0.8579231   1.6853034  -0.2593989  -0.9598796  -1.1742888
          181         182         183         184         185         186
    1   0.8715830   1.6611032   0.4365832   1.7549723  -0.0693998  -0.6044527
    2   0.6074173  -0.8325960   1.8813830   1.9611799   3.3075237   1.0015177
    3   0.9089243   2.0642527   1.5451852   2.5140818   0.0585234   2.3870627
          187         188         189         190         191         192
    1   0.0008185   0.6077806  -0.3770681  -0.6838124   2.2002841   2.5388963
    2   0.5127019  -0.6819676   2.2004535  -0.0609786  -0.3447686   1.0978701
    3  -0.3065979  -1.2419220  -1.3880705   1.0424887   1.9757388   1.4891046
          193         194         195         196         197         198
    1   0.8439802  -0.4409348   0.7005974   1.8667487  -0.7361124  -0.7739995
    2   0.7597604   1.7727917  -0.2793302  -1.3106493  -0.4837325  -1.5056289
    3   2.1841687   1.7613220   1.4283483   1.7625139   1.7032055   0.3463097
          199         200         201         202         203         204
    1  -0.3845864  -1.7298517   0.4251939  -0.1636763   2.1750540  -0.8963097
    2  -0.8880795   0.8625389   0.2605687  -1.0590740   0.8435823   1.1801453
    3   3.4758910   1.4097237  -0.0837483  -1.0034070   0.0338871  -0.1221550
          205         206         207         208         209         210
    1   0.5466966   1.3399278  -0.2138843  -0.0586894  -1.5299265  -1.5104361
    2  -0.0836178  -1.8946726  -0.6934258   1.0754591  -1.2667582  -3.0356908
    3   3.6566057   1.8315111   2.2266131   1.8836520   1.5778997   1.4504119
          211         212         213         214         215         216
    1  -3.0222264  -1.0387766   0.8385819  -1.9497465  -0.3462759  -1.1525085
    2  -0.0144229  -1.1223454  -0.1107644  -1.5430267  -0.5878706  -0.8905708
    3   1.3952305   0.9328586   0.2074861  -0.4788667  -2.4421204   3.2542760
          217         218         219         220         221         222
    1  -3.2643469  -1.6659957  -1.1865159  -1.0304401   0.6886027  -1.3214337
    2  -0.0242274  -0.0113177  -1.1373482  -0.4237599  -0.3292396   0.4489074
    3   0.9011110   1.5529379   2.6393460   0.1705511   0.6646497  -0.7139905
          223         224         225         226         227         228
    1  -1.9833680  -0.9530566  -2.6490746  -0.8961316   0.1668936   0.1509698
    2  -1.7407228   1.4384591   0.4553354   1.3864457   1.1600634   0.5363558
    3  -0.4063120   2.0592493   1.9256029   2.1317112   3.3082524   2.1260290
          229         230         231         232         233         234
    1   1.8436561  -0.2415822  -0.3955627  -1.0578357  -1.2558307  -1.3258108
    2   1.3881493  -1.1013045   0.7099872  -0.7170620  -1.4947349  -0.3645953
    3   1.8589364   2.8221913   1.6685198   1.5379408   1.9737562  -0.2803985
          235         236         237         238         239         240
    1  -1.5753824  -0.9368367  -1.1799221  -1.5938866  -0.6529681  -0.6971367
    2  -0.8691482   1.0044090   0.9405555   0.3975111   2.1374529   2.5506638
    3  -0.7948034  -0.5012411  -1.5146563  -2.4146721  -1.4208742  -2.3665261
          241         242         243         244         245         246
    1  -0.0640623   0.4312065   0.0355970   0.6154715  -0.4026395  -0.7764180
    2   2.8226793   3.7504853   2.3831541   2.8996484   1.5421640   3.0188300
    3  -0.2103416  -0.2404316   1.1623421   2.2403705   0.8649107   1.0446085
          247         248         249         250         251         252
    1  -0.5531427  -2.7289681  -1.4593916   0.3604896  -0.2268011   0.8896633
    2  -0.5053969  -2.5413295   0.7392951   1.4578728  -0.7820148   2.1094599
    3  -0.8124907  -0.9389073  -0.0153750  -1.5861908  -1.2287341   1.2716935
          253         254         255         256         257         258
    1  -0.8515301  -1.1381330  -2.4738393  -1.0959234   0.1324468   1.0424213
    2  -0.0286719  -0.8285587   2.4540924   1.4599331   1.1844841   1.4817411
    3  -1.1082648   0.6943229  -0.9360976  -0.7775048   1.8914972  -2.3121531
 EField
            1           2           3           4           5           6
    1   0.0080420   0.0231143   0.0000787  -0.0083671  -0.0133673  -0.0039376
    2   0.0259159   0.0376434   0.0193259   0.0139658   0.0111652   0.0108050
    3  -0.0097323  -0.0240081  -0.0005729  -0.0028523  -0.0024534  -0.0013931
            7           8           9          10          11          12
    1   0.0020053  -0.0155744  -0.0099888  -0.0091529  -0.0097277  -0.0060523
    2   0.0144365   0.0078047   0.0005714  -0.0015395   0.0030598  -0.0029314
    3  -0.0086351  -0.0035484   0.0012543   0.0015132   0.0001516   0.0012889
           13          14          15          16          17          18
    1  -0.0051311  -0.0058769  -0.0083976  -0.0056893  -0.0048289  -0.0037142
    2  -0.0053458   0.0017428   0.0043417  -0.0041008  -0.0052325  -0.0088166
    3  -0.0012762  -0.0035105   0.0004976   0.0043309   0.0039473   0.0010390
           19          20          21          22          23          24
    1  -0.0043985  -0.0018460   0.0041440  -0.0274899  -0.0020334  -0.0045761
    2  -0.0105558  -0.0213934   0.0149524   0.0138259   0.0067965   0.0089409
    3   0.0000180   0.0065859   0.0073051  -0.0035736  -0.0021169   0.0015949
           25          26          27          28          29          30
    1   0.0018885   0.0033716  -0.0080305  -0.0327691  -0.0079431  -0.0083694
    2   0.0155348   0.0059272   0.0067909   0.0103112   0.0022873  -0.0011152
    3  -0.0058232  -0.0124120  -0.0068901  -0.0059173   0.0012511   0.0016510
           31          32          33          34          35          36
    1  -0.0089713  -0.0080482  -0.0056278  -0.0058072  -0.0048841  -0.0121917
    2  -0.0059370   0.0036056  -0.0014224   0.0026071   0.0090821   0.0062910
    3   0.0028465  -0.0007690   0.0005301  -0.0011876  -0.0068583   0.0008478
           37          38          39          40          41          42
    1  -0.0063582  -0.0071996  -0.0029001  -0.0080183  -0.0034989  -0.0018847
    2   0.0067483  -0.0032041  -0.0048195  -0.0029963  -0.0043602  -0.0083942
    3   0.0019409   0.0044385   0.0058639   0.0028072   0.0056863  -0.0001576
           43          44          45          46          47          48
    1  -0.0062259  -0.0028396  -0.0000772  -0.0106491   0.0271766  -0.0007471
    2  -0.0121302  -0.0094100  -0.0112097  -0.0331158  -0.0272379  -0.0001370
    3  -0.0034431   0.0028412  -0.0003021  -0.0093749   0.0057016   0.0000263
           49          50          51          52          53          54
    1  -0.0041678   0.0002862  -0.0142812   0.0055214  -0.0007416   0.0020819
    2   0.0025461   0.0003075  -0.0339058  -0.0053292   0.0018326   0.0060311
    3  -0.0384421  -0.0008784  -0.0068620   0.0359240  -0.0023979   0.0042306
           55          56          57          58          59          60
    1  -0.0023337   0.0051712  -0.0288640   0.0202376  -0.0831865  -0.0055328
    2  -0.0366443  -0.0035501  -0.0047053  -0.0303977  -0.0086927   0.0013515
    3  -0.0223045   0.0012151  -0.0332219   0.0000829  -0.0948010  -0.0131558
           61          62          63          64          65          66
    1   0.0074836   0.0172671  -0.0029255   0.0307833   0.0172095   0.0128043
    2  -0.0151063   0.0211308  -0.0061377   0.0022730   0.0326689  -0.0322409
    3  -0.0043001   0.0230488  -0.0079964   0.0311858   0.0074962  -0.0157787
           67          68          69          70          71          72
    1  -0.0027398  -0.0234100  -0.0008677   0.0229179   0.0011778   0.0279011
    2   0.0005554   0.0176226   0.0011782  -0.0137999  -0.0019945   0.0273752
    3   0.0039973  -0.0279581  -0.0012838   0.0230972  -0.0020672   0.0056880
           73          74          75          76          77          78
    1  -0.0263738  -0.0180311   0.0030265  -0.0191766   0.0089550  -0.0274693
    2   0.0214275   0.0005661   0.0033678  -0.0069277  -0.0346707   0.0146698
    3  -0.0239355   0.0326552   0.0005127   0.0303210  -0.0136895  -0.0257782
           79          80          81          82          83          84
    1   0.0305917  -0.0254771   0.0031693  -0.0101607   0.0081858   0.0196499
    2   0.0241509   0.0188931   0.0000560  -0.0143469  -0.0016385   0.0131575
    3   0.0019687   0.0162096  -0.0028040  -0.0323089  -0.0025871   0.0266487
           85          86          87          88          89          90
    1  -0.0058289   0.0026748   0.0941892  -0.0273563   0.0112489  -0.0250974
    2   0.0264038   0.0024433  -0.0319043  -0.0161388  -0.0271863  -0.0053013
    3  -0.0223753   0.0006934   0.0377674  -0.0898838   0.0215285  -0.0282800
           91          92          93          94          95          96
    1  -0.0014783  -0.0175593   0.0046267  -0.0077993   0.0779826   0.0049479
    2   0.0059109  -0.0171290   0.0372315   0.0101439   0.0534066   0.0066131
    3   0.0090336   0.0366371   0.0097504   0.0109022   0.0635379   0.0046237
           97          98          99         100         101         102
    1  -0.0377431   0.0170319   0.0218079  -0.0014708  -0.0244631   0.0302531
    2  -0.0178240  -0.0061152   0.0202165   0.0006275  -0.0173540  -0.0169666
    3  -0.0149211   0.0020723   0.0232508   0.0072280  -0.0216158  -0.0110627
          103         104         105         106         107         108
    1  -0.0010100  -0.0276978   0.0001580  -0.0089656  -0.0320722   0.0260471
    2   0.0015473   0.0239743   0.0054816  -0.0100665  -0.0064181  -0.0248104
    3   0.0022299   0.0151222   0.0011027   0.0372133  -0.0182725  -0.0118302
          109         110         111         112         113         114
    1  -0.0042088   0.0313485   0.0106813  -0.0071941   0.0114078   0.0042875
    2   0.0018890  -0.0193165   0.0394892  -0.0079885   0.0099241   0.0129282
    3  -0.0005838  -0.0103159   0.0051777   0.0391246  -0.0297540  -0.0356701
          115         116         117         118         119         120
    1  -0.0056688   0.0137843  -0.0016078  -0.0124963  -0.0010216   0.0200493
    2  -0.0011275   0.0273087   0.0009121  -0.0264338   0.0027998  -0.0316217
    3   0.0016989   0.0241331   0.0014676  -0.0213877  -0.0022971   0.0079649
          121         122         123         124         125         126
    1   0.0085499  -0.0383012  -0.0012920   0.0048771  -0.0007247  -0.0446515
    2   0.0278519  -0.0081389  -0.0036215   0.0258316   0.0159939  -0.0055846
    3   0.0265831   0.0122181   0.0019022   0.0281670  -0.0349230   0.0044669
          127         128         129         130         131         132
    1   0.0233997  -0.0293516  -0.0010196   0.0286858  -0.0004333   0.0287808
    2  -0.0294363   0.0137825   0.0004397  -0.0054448   0.0008185  -0.0130227
    3   0.0042573   0.0205576  -0.0011114   0.0241179  -0.0004136  -0.0183581
          133         134         135         136         137         138
    1  -0.0063646  -0.0040575  -0.0084231   0.0387296  -0.0019120   0.0069157
    2  -0.0286454   0.0026845  -0.0006397   0.0066502  -0.0002457   0.0159341
    3   0.0195045  -0.0032121   0.0024027  -0.0135452   0.0065522  -0.0392569
          139         140         141         142         143         144
    1   0.0057756  -0.0308175   0.0042127  -0.0406457   0.0015978  -0.0079022
    2   0.0024726   0.0117928   0.0037166  -0.0024812   0.0047425  -0.0131680
    3   0.0049132  -0.0254618  -0.0006873   0.0115608  -0.0084697   0.0380695
          145         146         147         148         149         150
    1   0.0090942   0.0079604  -0.0044056   0.0315088  -0.0021798  -0.0074660
    2   0.0311677  -0.0212721  -0.0017964   0.0016917   0.0001360   0.0193248
    3  -0.0208236   0.0308925  -0.0026507  -0.0219083  -0.0003752  -0.0309203
          151         152         153         154         155         156
    1  -0.0018116   0.0053675   0.0291785  -0.0312678   0.0007264  -0.0006955
    2   0.0050446  -0.0243515  -0.0034439  -0.0140754  -0.0000761  -0.0199246
    3   0.0005532   0.0295735  -0.0241017  -0.0212686  -0.0024108   0.0333930
          157         158         159         160         161         162
    1  -0.0367561  -0.0130571  -0.0046251   0.0117046  -0.0005541   0.0249820
    2  -0.0113189   0.0352816   0.0357501  -0.0255195  -0.0019817  -0.0015307
    3  -0.0174131   0.0114943   0.0146027   0.0256086   0.0010784  -0.0295303
          163         164         165         166         167         168
    1   0.0032651  -0.0045428  -0.0094830  -0.0008425   0.0048584  -0.0313917
    2  -0.0014222  -0.0315083   0.0233452   0.0082083   0.0322591  -0.0005678
    3  -0.0013851  -0.0211111  -0.0254429  -0.0072527   0.0195549  -0.0075738
          169         170         171         172         173         174
    1   0.0200145  -0.0071478   0.0165490  -0.0394510  -0.0022461   0.0076651
    2  -0.0388844   0.0034918   0.0304867   0.0061148  -0.0272437   0.0327722
    3  -0.0088958   0.0100272   0.0162630  -0.0034821   0.0302590   0.0173950
          175         176         177         178         179         180
    1   0.0285615  -0.0032334  -0.0058996  -0.0045465   0.0058511  -0.0152921
    2   0.0081347  -0.0011870   0.0310210  -0.0024318  -0.0268934   0.0256364
    3  -0.0226381  -0.0014358   0.0215353   0.0028872  -0.0251724  -0.0229283
          181         182         183         184         185         186
    1  -0.0018224   0.0112289  -0.0006134   0.0255895  -0.0148795  -0.0305933
    2  -0.0004152  -0.0287317  -0.0041360   0.0117503   0.0304667  -0.0114549
    3  -0.0029798   0.0192589  -0.0029503   0.0248364  -0.0198095   0.0192762
          187         188         189         190         191         192
    1  -0.0018964   0.0054963  -0.0223898  -0.0339200   0.0129406   0.0344990
    2  -0.0002552  -0.0306593   0.0250592  -0.0153108  -0.0269417   0.0148688
    3   0.0011427  -0.0263913  -0.0235033   0.0172157   0.0235210  -0.0075791
          193         194         195         196         197         198
    1  -0.0026211  -0.0256047  -0.0006192   0.0230804   0.0035350  -0.0119376
    2  -0.0029394   0.0312744   0.0008476  -0.0255600   0.0022538  -0.0275831
    3  -0.0050686  -0.0057975  -0.0021378   0.0014400  -0.0044326  -0.0243901
          199         200         201         202         203         204
    1  -0.0031430  -0.0294892  -0.0032280  -0.0079349   0.0331890  -0.0303266
    2  -0.0122574   0.0281744  -0.0005871  -0.0272201   0.0167375   0.0286654
    3   0.0351613  -0.0072708   0.0010745  -0.0277517  -0.0138400  -0.0122598
          205         206         207         208         209         210
    1  -0.0016180   0.0344805   0.0024915   0.0125524   0.0007832  -0.0117647
    2  -0.0088340  -0.0152064   0.0039644   0.0385897   0.0023126  -0.0346811
    3   0.0363090   0.0012159   0.0015106  -0.0035353   0.0068961   0.0071367
          211         212         213         214         215         216
    1  -0.0339414   0.0092041   0.0978621  -0.0970423  -0.0027487  -0.0137875
    2   0.0192976   0.0124644   0.0635727  -0.0504440   0.0109592  -0.0029038
    3   0.0047903   0.0267048  -0.0117593   0.0271525   0.0232620   0.0358971
          217         218         219         220         221         222
    1  -0.0365844   0.0013113   0.0057086   0.0024844   0.0418237  -0.0001634
    2   0.0054775   0.0023044  -0.0219784   0.0074507  -0.0015800   0.0287355
    3  -0.0056079  -0.0031497   0.0284353  -0.0059821  -0.0012193  -0.0373430
          223         224         225         226         227         228
    1  -0.0101741   0.0107707  -0.0359577   0.0000572   0.0132299  -0.0003304
    2  -0.0260732   0.0352747  -0.0112063  -0.0018531   0.0046534   0.0000384
    3  -0.0171064   0.0119272   0.0010475  -0.0028341   0.0343062  -0.0004476
          229         230         231         232         233         234
    1   0.0344720   0.0037443  -0.0025350   0.0098492  -0.0078500  -0.0047016
    2   0.0074943  -0.0319941  -0.0043963   0.0082112  -0.0397400  -0.0142733
    3  -0.0016000   0.0149176  -0.0053838   0.0111995   0.0161835  -0.0143360
          235         236         237         238         239         240
    1  -0.0223574   0.0079652   0.0047136  -0.0171604  -0.0000165  -0.0035918
    2  -0.0352147   0.0144765   0.0027069  -0.0231615  -0.0078840   0.0171456
    3  -0.0356543  -0.0042490   0.0006405  -0.0350166   0.0063165  -0.0355251
          241         242         243         244         245         246
    1  -0.0023929   0.0137452  -0.0030892   0.0186619   0.0006650  -0.0030498
    2  -0.0100051   0.0359162  -0.0029808   0.0182179  -0.0024514   0.0342606
    3   0.0018907  -0.0037503  -0.0103202   0.0310004  -0.0026083  -0.0170853
          247         248         249         250         251         252
    1   0.1024267  -0.0282385  -0.0073159   0.0050736  -0.0203294   0.0139572
    2   0.0221595  -0.0398036   0.0274599   0.0504146  -0.0576119   0.0069995
    3  -0.0225825  -0.0029410   0.0296438  -0.1033273   0.0124759   0.0386880
          253         254         255         256         257         258
    1   0.0685034  -0.0018975  -0.0234353  -0.1123603   0.0053332   0.0439571
    2  -0.0496579  -0.0190788   0.0441972   0.0107741  -0.0106478  -0.0086848
    3  -0.0679662   0.0527423   0.0028301  -0.0410947   0.0343780  -0.0336719
  --- DONE ESP SUMMARY ---
 Total job time:  7.69s(wall), 93.42s(cpu) 
 Fri Aug  9 14:20:34 2024

        *************************************************************
        *                                                           *
        *  Thank you very much for using Q-Chem.  Have a nice day.  *
        *                                                           *
        *************************************************************


