
Running Job 1 of 2 19nt_mm_min_distance_cutoff3_optimized_spade_wb97x-v_631gd.in
qchem 19nt_mm_min_distance_cutoff3_optimized_spade_wb97x-v_631gd.in_4046292.0 ./qchem4046292/ 1
srun -n 1 /cm/shared/apps/spack/0.17.3/cpu/b/opt/spack/linux-rocky8-zen2/gcc-10.2.0/qchem-6.0-rytxnwjazd34ekd2gqyi5ufsaimxsd3r/exe/qcprog.exe 19nt_mm_min_distance_cutoff3_optimized_spade_wb97x-v_631gd.in_4046292.0 ./qchem4046292/

                  Welcome to Q-Chem
     A Quantum Leap Into The Future Of Chemistry


 Q-Chem 6.0, Q-Chem, Inc., Pleasanton, CA (2022)

 License issued to: University of California, San Diego (site)

 E. Epifanovsky,  A. T. B. Gilbert,  Xintian Feng,  Joonho Lee,  Yuezhi Mao,  
 N. Mardirossian,  P. Pokhilko,  A. White,  M. Wormit,  M. P. Coons,  
 A. L. Dempwolff,  Zhengting Gan,  D. Hait,  P. R. Horn,  L. D. Jacobson,  
 I. Kaliman,  J. Kussmann,  A. W. Lange,  Ka Un Lao,  D. S. Levine,  Jie Liu,  
 S. C. McKenzie,  A. F. Morrison,  K. Nanda,  F. Plasser,  D. R. Rehn,  
 M. L. Vidal,  Zhi-Qiang You,  Ying Zhu,  B. Alam,  B. Albrecht,  
 A. Aldossary,  E. Alguire,  J. H. Andersen,  V. Athavale,  D. Barton,  
 K. Begam,  A. Behn,  N. Bellonzi,  Y. A. Bernard,  E. J. Berquist,  
 H. Burton,  A. Carreras,  K. Carter-Fenk,  Romit Chakraborty,  
 Chandrima Chakravarty,  Junhan Chen,  A. D. Chien,  K. D. Closser,  
 V. Cofer-Shabica,  L. Cunha,  S. Dasgupta,  Jia Deng,  M. de Wergifosse,  
 M. Diedenhofen,  Hainam Do,  S. Ehlert,  Po-Tung Fang,  S. Fatehi,  
 Qingguo Feng,  T. Friedhoff,  B. Ganoe,  J. Gayvert,  Qinghui Ge,  
 G. Gidofalvi,  M. Goldey,  J. Gomes,  C. Gonzalez-Espinoza,  S. Gulania,  
 A. Gunina,  J. A. Gyamfi,  M. W. D. Hanson-Heine,  P. H. P. Harbach,  
 A. W. Hauser,  M. F. Herbst,  M. Hernandez Vera,  M. Hodecker,  
 Z. C. Holden,  S. Houck,  Xunkun Huang,  Kerwin Hui,  B. C. Huynh,  
 K. Ikeda,  M. Ivanov,  Hyunjun Ji,  Zuxin Jin,  Hanjie Jiang,  B. Kaduk,  
 S. Kaehler,  R. Kang,  K. Khistyaev,  Jaehoon Kim,  Yongbin Kim,  
 P. Klunzinger,  Z. Koczor-Benda,  Joong Hoon Koh,  D. Kosenkov,  
 Saikiran Kotaru,  L. Koulias,  T. Kowalczyk,  C. M. Krauter,  K. Kue,  
 A. Kunitsa,  T. Kus,  A. Landau,  K. V. Lawler,  D. Lefrancois,  S. Lehtola,  
 Rain Li,  Shaozhi Li,  Yi-Pei Li,  Jiashu Liang,  M. Liebenthal,  
 Hung-Hsuan Lin,  You-Sheng Lin,  Fenglai Liu,  Kuan-Yu Liu,  
 M. Loipersberger,  A. Luenser,  C. Malbon,  A. Manjanath,  P. Manohar,  
 E. Mansoor,  S. F. Manzer,  Shan-Ping Mao,  A. V. Marenich,  T. Markovich,  
 S. Mason,  F. Matz,  S. A. Maurer,  P. F. McLaughlin,  M. F. S. J. Menger,  
 J.-M. Mewes,  S. A. Mewes,  P. Morgante,  Mohammad Mostafanejad,  
 J. W. Mullinax,  K. J. Oosterbaan,  G. Paran,  V. Parravicini,  
 Alexander C. Paul,  Suranjan K. Paul,  F. Pavosevic,  Zheng Pei,  S. Prager,  
 E. I. Proynov,  E. Ramos,  B. Rana,  A. E. Rask,  A. Rettig,  R. M. Richard,  
 F. Rob,  E. Rossomme,  T. Scheele,  M. Scheurer,  M. Schneider,  
 P. E. Schneider,  N. Sergueev,  S. M. Sharada,  Hengyuan Shen,  
 W. Skomorowski,  D. W. Small,  C. J. Stein,  Yingli Su,  Yu-Chuan Su,  
 E. J. Sundstrom,  Zhen Tao,  J. Thirman,  Hung-Yi Tsai,  T. Tsuchimochi,  
 N. M. Tubman,  C. Utku,  S. P. Veccham,  O. Vydrov,  J. Wenzel,  
 Jonathan Wong,  J. Witte,  A. Yamada,  Chou-Hsun Yang,  Kun Yao,  
 S. Yeganeh,  S. R. Yost,  A. Zech,  F. Zeller,  Igor Ying Zhang,  
 Xing Zhang,  Yu Zhang,  D. Zuev,  A. Aspuru-Guzik,  A. T. Bell,  
 N. A. Besley,  K. B. Bravaya,  B. R. Brooks,  D. Casanova,  Jeng-Da Chai,  
 Hsing-Ta Chen,  S. Coriani,  C. J. Cramer,  A. E. DePrince, III,  
 R. A. DiStasio Jr.,  A. Dreuw,  B. D. Dunietz,  T. R. Furlani,  
 W. A. Goddard III,  S. Grimme,  S. Hammes-Schiffer,  T. Head-Gordon,  
 W. J. Hehre,  Chao-Ping Hsu,  T.-C. Jagau,  Yousung Jung,  A. Klamt,  
 Jing Kong,  D. S. Lambrecht,  Xiangyuan Li,  WanZhen Liang,  N. J. Mayhall,  
 C. W. McCurdy,  J. B. Neaton,  T. Neudecker,  C. Ochsenfeld,  
 J. A. Parkhill,  R. Peverati,  V. A. Rassolov,  Haisheng Ren,  Yihan Shao,  
 L. V. Slipchenko,  R. P. Steele,  J. E. Subotnik,  A. J. W. Thom,  
 A. Tkatchenko,  D. G. Truhlar,  T. Van Voorhis,  Fan Wang,  
 T. A. Wesolowski,  K. B. Whaley,  H. L. Woodcock III,  P. M. Zimmerman,  
 S. Faraji,  P. M. W. Gill,  M. Head-Gordon,  J. M. Herbert,  A. I. Krylov

 Contributors to earlier versions of Q-Chem not listed above: 
 R. D. Adamson,  B. Austin,  R. Baer,  J. Baker,  G. J. O. Beran,  
 K. Brandhorst,  S. T. Brown,  E. F. C. Byrd,  Arup K. Chakraborty,  
 G. K. L. Chan,  Chun-Min Chang,  Yunqing Chen,  C.-L. Cheng,  
 Siu Hung Chien,  D. M. Chipman,  D. L. Crittenden,  H. Dachsel,  
 R. J. Doerksen,  A. D. Dutoi,  R. G. Edgar,  J. Fosso-Tande,  
 L. Fusti-Molnar,  D. Ghosh,  A. Ghysels,  A. Golubeva-Zadorozhnaya,  
 J. Gonthier,  M. S. Gordon,  S. R. Gwaltney,  G. Hawkins,  J. E. Herr,  
 A. Heyden,  S. Hirata,  E. G. Hohenstein,  G. Kedziora,  F. J. Keil,  
 C. Kelley,  Jihan Kim,  R. A. King,  R. Z. Khaliullin,  P. P. Korambath,  
 W. Kurlancheek,  A. Laurent,  A. M. Lee,  M. S. Lee,  S. V. Levchenko,  
 Ching Yeh Lin,  D. Liotard,  E. Livshits,  R. C. Lochan,  I. Lotan,  
 L. A. Martinez-Martinez,  P. E. Maslen,  N. Nair,  D. P. O'Neill,  
 D. Neuhauser,  E. Neuscamman,  C. M. Oana,  R. Olivares-Amaya,  R. Olson,  
 T. M. Perrine,  B. Peters,  P. A. Pieniazek,  A. Prociuk,  Y. M. Rhee,  
 J. Ritchie,  M. A. Rohrdanz,  E. Rosta,  N. J. Russ,  H. F. Schaefer III,  
 M. W. Schmidt,  N. E. Schultz,  S. Sharma,  N. Shenvi,  C. D. Sherrill,  
 A. C. Simmonett,  A. Sodt,  T. Stein,  D. Stuck,  K. S. Thanthiriwatte,  
 V. Vanovschi,  L. Vogt,  Tao Wang,  A. Warshel,  M. A. Watson,  
 C. F. Williams,  Q. Wu,  X. Xu,  Jun Yang,  W. Zhang,  Yan Zhao

   Please cite Q-Chem as follows:
  "Software for the frontiers of quantum chemistry:
   An overview of developments in the Q-Chem 5 package"
   J. Chem. Phys. 155, 084801 (2021)
   https://doi.org/10.1063/5.0055522 (open access)

 Q-Chem 6.0.2 for Intel X86 EM64T Linux

 Parts of Q-Chem use Armadillo 9.900.5 (Nocturnal Misbehaviour).
 http://arma.sourceforge.net/

 Q-Chem begins on Tue Aug  6 12:59:09 2024  

 Host: 
0

     Scratch files written to ./qchem4046292//
 Dec722 |scratch|qcdevops|jenkins|workspace|build_RNUM    
 Processing $rem in /cm/shared/apps/spack/0.17.3/cpu/b/opt/spack/linux-rocky8-zen2/gcc-10.2.0/qchem-6.0-rytxnwjazd34ekd2gqyi5ufsaimxsd3r/config/preferences:
 Processing $rem in /home/hklem/.qchemrc:
 No nuclear gradient supported for projection-based embedding or EMFT. Set max ideriv = 0.

 Checking the input file for inconsistencies... 	...done.

--------------------------------------------------------------
User input:
--------------------------------------------------------------
$molecule
-1 1
--
0 1
C    3.47800    1.09100    -1.25300
O    4.70500    1.23200    -1.42400
C    2.85900    -0.20600   -1.16900
C    1.51300    -0.36300   -1.26800
C    0.57600    0.82300    -1.25600
C    1.24100    2.03900    -0.61200
C    2.60200    2.31700    -1.22700
C    0.93800    -1.71600   -1.54100
C    -0.49000   -1.95100   -1.04400
C    -1.39000   -0.74800   -1.32900
C    -0.77900   0.47500    -0.60700
C    -2.83500   -0.96900   -0.89800
C    -3.70500   0.29400    -1.03300
C    -3.12700   1.38300    -0.13900
C    -1.68900   1.71200    -0.54500
C    -3.67700   -2.05400   -1.59100
C    -5.14700   -1.63800   -1.29200
C    -5.04200   -0.29100   -0.55700
C    -3.82100   0.80100    -2.47900
O    -6.19600   0.51700    -0.78200
H    3.52100    -1.06700   -1.17900
H    0.36700    1.04300    -2.31600
H    1.34800    1.86400    0.46800
H    0.61000    2.92400    -0.73000
H    2.49000    2.64200    -2.27100
H    3.13500    3.12200    -0.71200
H    1.61600    -2.49800   -1.18100
H    0.92800    -1.80900   -2.64000
H    -0.48800   -2.14700   0.03600
H    -0.88200   -2.85300   -1.52400
H    -1.37600   -0.55100   -2.40800
H    -0.58100   0.16300    0.43300
H    -2.81500   -1.21300   0.17700
H    -3.14800   1.04800    0.91000
H    -3.73300   2.29600    -0.19400
H    -1.68100   2.21500    -1.52000
H    -1.27800   2.42400    0.18100
H    -3.44300   -3.05900   -1.23600
H    -3.49100   -2.04600   -2.67100
H    -5.67800   -2.38100   -0.68900
H    -5.70700   -1.49300   -2.22100
H    -4.96600   -0.46800   0.52900
H    -2.84400   1.01200    -2.91800
H    -4.34000   0.09700    -3.13500
H    -4.37900   1.74200    -2.49900
H    -6.01900   1.38100    -0.38400
--
-1 1
H    8.42100    7.38500    3.57500
C    7.77000    6.88500    2.84900
H    6.98900    7.59100    2.54500
C    8.55900    6.39800    1.63000
H    9.06200    7.25000    1.15800
H    9.35100    5.71600    1.96300
C    7.68200    5.70100    0.61700
C    7.14400    6.38900    -0.47300
H    7.37800    7.44400    -0.60600
C    6.32800    5.75600    -1.40100
H    5.92500    6.29100    -2.25500
C    6.02900    4.39800    -1.25800
O    5.26400    3.81400    -2.20400
H    5.14000    2.86600    -1.97700
C    6.53700    3.69900    -0.15700
H    6.30500    2.64500    -0.03600
C    7.35300    4.35300    0.75900
H    7.75200    3.79100    1.60100
H    7.27700    6.04600    3.35100
H    2.01900    8.18400    2.42700
C    1.47300    7.32200    2.02700
H    1.13700    7.57800    1.01500
C    2.35800    6.07000    1.99700
H    2.68600    5.86400    3.02500
C    1.57200    4.85400    1.50200
H    0.67900    4.67000    2.11100
H    1.24300    5.00500    0.46500
H    2.18900    3.94900    1.52600
C    3.60700    6.29200    1.13700
H    4.26700    5.41800    1.14400
H    4.19100    7.15000    1.49100
H    3.33000    6.48600    0.09300
H    0.58200    7.16500    2.64700
H    3.42400    -4.86600   -7.20800
C    2.99500    -3.89100   -6.94900
H    2.48600    -3.48900   -7.83000
C    2.02700    -4.01300   -5.77700
H    2.53600    -4.44600   -4.90400
H    1.21000    -4.70700   -6.00800
C    1.39100    -2.68600   -5.33200
O    0.48500    -2.78300   -4.43600
O    1.78600    -1.62600   -5.85300
H    3.80800    -3.20200   -6.70400
H    -4.12900   4.42800    -5.98400
C    -4.23300   3.74400    -5.13600
H    -3.27300   3.23700    -4.96700
H    -4.99000   2.99100    -5.35800
C    -4.62200   4.47000    -3.85300
O    -5.34400   3.95900    -2.99500
N    -4.10600   5.71800    -3.68300
H    -3.49600   6.07100    -4.40600
C    -4.25500   6.53200    -2.47600
H    -4.64000   5.87200    -1.69500
C    -2.92600   7.17200    -2.07800
H    -2.61300   7.86400    -2.87400
H    -3.10000   7.79300    -1.18800
C    -1.78500   6.18600    -1.79000
H    -1.63800   5.55900    -2.68000
C    -0.48700   6.95300    -1.52600
H    0.35200    6.26700    -1.36600
H    -0.22900   7.60900    -2.36500
H    -0.58200   7.57700    -0.62800
C    -2.11600   5.25900    -0.62000
H    -2.38100   5.83800    0.27400
H    -2.94700   4.58600    -0.85600
H    -1.25400   4.63400    -0.36600
H    -5.01000   7.31100    -2.64500
H    -6.87100   5.61400    2.60600
C    -5.98900   5.06000    2.94900
H    -6.33400   4.14700    3.44000
C    -5.04700   4.73200    1.78700
H    -4.66700   5.68100    1.38000
C    -3.85000   3.91600    2.28400
H    -3.32900   4.43700    3.09600
H    -4.17800   2.94200    2.67000
H    -3.12400   3.72700    1.48700
C    -5.79400   4.01300    0.66000
H    -6.10200   3.01300    0.99300
H    -6.70000   4.55700    0.36900
H    -5.18400   3.90100    -0.24300
H    -5.48000   5.67000    3.70500
H    4.58300    -1.82700   7.49000
C    3.63900    -2.37400   7.39800
H    3.27900    -2.58400   8.41100
C    2.59600    -1.57300   6.62000
H    1.63700    -2.10700   6.65800
H    2.42200    -0.61900   7.13600
C    2.92000    -1.28600   5.16500
C    1.89900    -0.83000   4.32300
H    0.89700    -0.70600   4.73100
C    2.14000    -0.54300   2.98400
H    1.32400    -0.20900   2.34600
C    3.41800    -0.71200   2.45500
H    3.62200    -0.51700   1.40700
C    4.44200    -1.16700   3.27800
H    5.42700    -1.32500   2.85100
C    4.19500    -1.44900   4.62100
H    5.00800    -1.81500   5.24200
H    3.85000    -3.33000   6.90700
H    -1.57700   -0.42800   5.59000
C    -2.51100   -0.18700   5.06500
H    -2.94100   0.70600    5.53100
C    -2.24700   0.03300    3.57500
H    -3.21000   0.26800    3.09700
C    -1.31700   1.22700    3.34300
H    -0.34000   1.06400    3.81400
H    -1.74200   2.14500    3.76300
H    -1.14700   1.39600    2.27400
C    -1.69900   -1.24500   2.94000
H    -0.74800   -1.54200   3.39900
H    -1.52000   -1.12200   1.86800
H    -2.40000   -2.07800   3.06600
H    -3.21100   -1.01500   5.22200
H    -9.04300   0.73000    4.55400
C    -9.05200   1.44000    3.72100
H    -9.58900   2.33700    4.04400
C    -7.63800   1.79800    3.27000
H    -7.09300   2.25700    4.10400
H    -7.70000   2.55700    2.48200
C    -6.80900   0.63300    2.72500
H    -7.31900   0.15000    1.88300
H    -5.84500   1.00800    2.35700
S    -6.48300   -0.59400   4.03400
C    -5.55400   -1.82200   3.08400
H    -6.15500   -2.23800   2.27000
H    -4.63200   -1.40100   2.67300
H    -5.29000   -2.62600   3.77500
H    -9.61800   0.98200    2.90100
H    -4.96800   -5.33100   4.65500
C    -3.90900   -5.25700   4.38300
H    -3.40900   -6.15900   4.75300
C    -3.73400   -5.09000   2.87300
H    -4.28800   -4.20000   2.54700
H    -4.19600   -5.93700   2.34700
C    -2.27900   -4.95200   2.40100
H    -1.77200   -4.23800   3.06800
C    -1.51800   -6.27700   2.47600
H    -1.51600   -6.69600   3.48900
H    -1.96700   -7.01400   1.79900
H    -0.47600   -6.13600   2.17100
C    -2.24100   -4.38600   0.98100
H    -2.65100   -3.37000   0.95700
H    -2.82900   -5.00700   0.29500
H    -1.22200   -4.35000   0.58700
H    -3.48300   -4.40000   4.92000
H    1.44000    -5.47900   3.81500
C    2.32300    -5.56100   3.16900
H    2.12900    -6.35800   2.44000
C    2.61400    -4.23500   2.46100
H    2.81300    -3.47900   3.23000
C    3.85800    -4.34200   1.57600
H    4.12300    -3.37200   1.14100
H    4.72500    -4.69200   2.15000
H    3.68900    -5.05300   0.75500
C    1.41100    -3.76500   1.64300
H    1.61600    -2.79400   1.17900
H    0.52000    -3.65000   2.27300
H    1.17100    -4.47800   0.84200
H    3.17100    -5.87300   3.79100
H    8.05400    -2.66900   1.56000
C    7.92600    -3.26800   0.65300
H    7.01500    -3.86000   0.77800
C    7.82600    -2.37800   -0.57700
H    8.73300    -1.78000   -0.72000
H    7.71900    -2.97400   -1.49200
C    6.65100    -1.42600   -0.53100
O    5.82000    -1.40200   0.35600
O    6.62900    -0.62100   -1.58500
H    5.85100    -0.00500   -1.50900
H    8.77700    -3.95000   0.56600
H    5.69600    -4.74100   -3.73600
C    5.37700    -4.72500   -2.68900
H    6.27500    -4.76500   -2.06100
C    4.54200    -3.48100   -2.38500
H    4.24900    -3.45200   -1.32900
H    3.62900    -3.45100   -2.99000
H    5.10300    -2.56600   -2.60200
H    4.80700    -5.64200   -2.50100
H    1.75200    -9.07800   -1.62300
C    1.20400    -8.97100   -0.68100
H    1.65900    -9.63700   0.06200
C    1.22900    -7.51200   -0.20600
H    0.72000    -7.45000   0.76600
H    2.26700    -7.20400   -0.02600
C    0.58800    -6.55900   -1.17000
C    1.19700    -5.56700   -1.89900
H    2.23900    -5.27200   -1.90600
N    0.29000    -4.91300   -2.69100
H    0.46600    -4.13500   -3.35500
C    -0.94300   -5.46800   -2.48000
C    -2.18200   -5.11500   -3.02500
H    -2.25900   -4.29500   -3.73300
C    -3.28900   -5.84300   -2.62200
H    -4.26600   -5.59000   -3.02300
C    -3.16900   -6.90500   -1.70300
H    -4.05700   -7.45900   -1.41300
C    -1.94100   -7.24500   -1.16100
H    -1.86200   -8.05900   -0.44400
C    -0.80100   -6.51600   -1.53800
H    0.17800    -9.30900   -0.85900
O    0.08600    -0.02200   -4.48800
H    -0.25600   -0.91500   -4.29900
H    0.82500    -0.30100   -5.08100
O    -6.99200   1.61400    -3.29100
H    -6.43200   2.41200    -3.28700
H    -6.75200   1.16100    -2.46200
O    -1.14000   2.38700    -4.08600
H    -0.83400   1.48500    -4.34100
H    -0.31400   2.87900    -4.02000
O    -6.14800   -0.65700   -4.63300
H    -6.91500   -1.20100   -4.42100
H    -6.40400   0.22900    -4.29700
$end

$rem
JOBTYPE  SP
METHOD  WB97X-V
BASIS  6-31G(D)
SYMMETRY  FALSE
SYM_IGNORE  TRUE
MEM_TOTAL  12000
MEM_STATIC  4000
BASIS_LIN_DEP_THRESH  6
THRESH  14
SCF_CONVERGENCE  8
FD_MAT_VEC_PROD  FALSE
XC_GRID  000075000302
NL_GRID  1
MAX_SCF_CYCLES  200
ENV_METHOD  WB97X-V
GEN_SCFMAN_EMBED  TRUE
SPADE_PARTITION  TRUE
EMBEDDING_EARLY_STOP  TRUE
$end

--------------------------------------------------------------
 ----------------------------------------------------------------
             Standard Nuclear Orientation (Angstroms)
    I     Atom           X                Y                Z
 ----------------------------------------------------------------
    1      C       3.4780000000     1.0910000000    -1.2530000000
    2      O       4.7050000000     1.2320000000    -1.4240000000
    3      C       2.8590000000    -0.2060000000    -1.1690000000
    4      C       1.5130000000    -0.3630000000    -1.2680000000
    5      C       0.5760000000     0.8230000000    -1.2560000000
    6      C       1.2410000000     2.0390000000    -0.6120000000
    7      C       2.6020000000     2.3170000000    -1.2270000000
    8      C       0.9380000000    -1.7160000000    -1.5410000000
    9      C      -0.4900000000    -1.9510000000    -1.0440000000
   10      C      -1.3900000000    -0.7480000000    -1.3290000000
   11      C      -0.7790000000     0.4750000000    -0.6070000000
   12      C      -2.8350000000    -0.9690000000    -0.8980000000
   13      C      -3.7050000000     0.2940000000    -1.0330000000
   14      C      -3.1270000000     1.3830000000    -0.1390000000
   15      C      -1.6890000000     1.7120000000    -0.5450000000
   16      C      -3.6770000000    -2.0540000000    -1.5910000000
   17      C      -5.1470000000    -1.6380000000    -1.2920000000
   18      C      -5.0420000000    -0.2910000000    -0.5570000000
   19      C      -3.8210000000     0.8010000000    -2.4790000000
   20      O      -6.1960000000     0.5170000000    -0.7820000000
   21      H       3.5210000000    -1.0670000000    -1.1790000000
   22      H       0.3670000000     1.0430000000    -2.3160000000
   23      H       1.3480000000     1.8640000000     0.4680000000
   24      H       0.6100000000     2.9240000000    -0.7300000000
   25      H       2.4900000000     2.6420000000    -2.2710000000
   26      H       3.1350000000     3.1220000000    -0.7120000000
   27      H       1.6160000000    -2.4980000000    -1.1810000000
   28      H       0.9280000000    -1.8090000000    -2.6400000000
   29      H      -0.4880000000    -2.1470000000     0.0360000000
   30      H      -0.8820000000    -2.8530000000    -1.5240000000
   31      H      -1.3760000000    -0.5510000000    -2.4080000000
   32      H      -0.5810000000     0.1630000000     0.4330000000
   33      H      -2.8150000000    -1.2130000000     0.1770000000
   34      H      -3.1480000000     1.0480000000     0.9100000000
   35      H      -3.7330000000     2.2960000000    -0.1940000000
   36      H      -1.6810000000     2.2150000000    -1.5200000000
   37      H      -1.2780000000     2.4240000000     0.1810000000
   38      H      -3.4430000000    -3.0590000000    -1.2360000000
   39      H      -3.4910000000    -2.0460000000    -2.6710000000
   40      H      -5.6780000000    -2.3810000000    -0.6890000000
   41      H      -5.7070000000    -1.4930000000    -2.2210000000
   42      H      -4.9660000000    -0.4680000000     0.5290000000
   43      H      -2.8440000000     1.0120000000    -2.9180000000
   44      H      -4.3400000000     0.0970000000    -3.1350000000
   45      H      -4.3790000000     1.7420000000    -2.4990000000
   46      H      -6.0190000000     1.3810000000    -0.3840000000
   47      H       8.4210000000     7.3850000000     3.5750000000
   48      C       7.7700000000     6.8850000000     2.8490000000
   49      H       6.9890000000     7.5910000000     2.5450000000
   50      C       8.5590000000     6.3980000000     1.6300000000
   51      H       9.0620000000     7.2500000000     1.1580000000
   52      H       9.3510000000     5.7160000000     1.9630000000
   53      C       7.6820000000     5.7010000000     0.6170000000
   54      C       7.1440000000     6.3890000000    -0.4730000000
   55      H       7.3780000000     7.4440000000    -0.6060000000
   56      C       6.3280000000     5.7560000000    -1.4010000000
   57      H       5.9250000000     6.2910000000    -2.2550000000
   58      C       6.0290000000     4.3980000000    -1.2580000000
   59      O       5.2640000000     3.8140000000    -2.2040000000
   60      H       5.1400000000     2.8660000000    -1.9770000000
   61      C       6.5370000000     3.6990000000    -0.1570000000
   62      H       6.3050000000     2.6450000000    -0.0360000000
   63      C       7.3530000000     4.3530000000     0.7590000000
   64      H       7.7520000000     3.7910000000     1.6010000000
   65      H       7.2770000000     6.0460000000     3.3510000000
   66      H       2.0190000000     8.1840000000     2.4270000000
   67      C       1.4730000000     7.3220000000     2.0270000000
   68      H       1.1370000000     7.5780000000     1.0150000000
   69      C       2.3580000000     6.0700000000     1.9970000000
   70      H       2.6860000000     5.8640000000     3.0250000000
   71      C       1.5720000000     4.8540000000     1.5020000000
   72      H       0.6790000000     4.6700000000     2.1110000000
   73      H       1.2430000000     5.0050000000     0.4650000000
   74      H       2.1890000000     3.9490000000     1.5260000000
   75      C       3.6070000000     6.2920000000     1.1370000000
   76      H       4.2670000000     5.4180000000     1.1440000000
   77      H       4.1910000000     7.1500000000     1.4910000000
   78      H       3.3300000000     6.4860000000     0.0930000000
   79      H       0.5820000000     7.1650000000     2.6470000000
   80      H       3.4240000000    -4.8660000000    -7.2080000000
   81      C       2.9950000000    -3.8910000000    -6.9490000000
   82      H       2.4860000000    -3.4890000000    -7.8300000000
   83      C       2.0270000000    -4.0130000000    -5.7770000000
   84      H       2.5360000000    -4.4460000000    -4.9040000000
   85      H       1.2100000000    -4.7070000000    -6.0080000000
   86      C       1.3910000000    -2.6860000000    -5.3320000000
   87      O       0.4850000000    -2.7830000000    -4.4360000000
   88      O       1.7860000000    -1.6260000000    -5.8530000000
   89      H       3.8080000000    -3.2020000000    -6.7040000000
   90      H      -4.1290000000     4.4280000000    -5.9840000000
   91      C      -4.2330000000     3.7440000000    -5.1360000000
   92      H      -3.2730000000     3.2370000000    -4.9670000000
   93      H      -4.9900000000     2.9910000000    -5.3580000000
   94      C      -4.6220000000     4.4700000000    -3.8530000000
   95      O      -5.3440000000     3.9590000000    -2.9950000000
   96      N      -4.1060000000     5.7180000000    -3.6830000000
   97      H      -3.4960000000     6.0710000000    -4.4060000000
   98      C      -4.2550000000     6.5320000000    -2.4760000000
   99      H      -4.6400000000     5.8720000000    -1.6950000000
  100      C      -2.9260000000     7.1720000000    -2.0780000000
  101      H      -2.6130000000     7.8640000000    -2.8740000000
  102      H      -3.1000000000     7.7930000000    -1.1880000000
  103      C      -1.7850000000     6.1860000000    -1.7900000000
  104      H      -1.6380000000     5.5590000000    -2.6800000000
  105      C      -0.4870000000     6.9530000000    -1.5260000000
  106      H       0.3520000000     6.2670000000    -1.3660000000
  107      H      -0.2290000000     7.6090000000    -2.3650000000
  108      H      -0.5820000000     7.5770000000    -0.6280000000
  109      C      -2.1160000000     5.2590000000    -0.6200000000
  110      H      -2.3810000000     5.8380000000     0.2740000000
  111      H      -2.9470000000     4.5860000000    -0.8560000000
  112      H      -1.2540000000     4.6340000000    -0.3660000000
  113      H      -5.0100000000     7.3110000000    -2.6450000000
  114      H      -6.8710000000     5.6140000000     2.6060000000
  115      C      -5.9890000000     5.0600000000     2.9490000000
  116      H      -6.3340000000     4.1470000000     3.4400000000
  117      C      -5.0470000000     4.7320000000     1.7870000000
  118      H      -4.6670000000     5.6810000000     1.3800000000
  119      C      -3.8500000000     3.9160000000     2.2840000000
  120      H      -3.3290000000     4.4370000000     3.0960000000
  121      H      -4.1780000000     2.9420000000     2.6700000000
  122      H      -3.1240000000     3.7270000000     1.4870000000
  123      C      -5.7940000000     4.0130000000     0.6600000000
  124      H      -6.1020000000     3.0130000000     0.9930000000
  125      H      -6.7000000000     4.5570000000     0.3690000000
  126      H      -5.1840000000     3.9010000000    -0.2430000000
  127      H      -5.4800000000     5.6700000000     3.7050000000
  128      H       4.5830000000    -1.8270000000     7.4900000000
  129      C       3.6390000000    -2.3740000000     7.3980000000
  130      H       3.2790000000    -2.5840000000     8.4110000000
  131      C       2.5960000000    -1.5730000000     6.6200000000
  132      H       1.6370000000    -2.1070000000     6.6580000000
  133      H       2.4220000000    -0.6190000000     7.1360000000
  134      C       2.9200000000    -1.2860000000     5.1650000000
  135      C       1.8990000000    -0.8300000000     4.3230000000
  136      H       0.8970000000    -0.7060000000     4.7310000000
  137      C       2.1400000000    -0.5430000000     2.9840000000
  138      H       1.3240000000    -0.2090000000     2.3460000000
  139      C       3.4180000000    -0.7120000000     2.4550000000
  140      H       3.6220000000    -0.5170000000     1.4070000000
  141      C       4.4420000000    -1.1670000000     3.2780000000
  142      H       5.4270000000    -1.3250000000     2.8510000000
  143      C       4.1950000000    -1.4490000000     4.6210000000
  144      H       5.0080000000    -1.8150000000     5.2420000000
  145      H       3.8500000000    -3.3300000000     6.9070000000
  146      H      -1.5770000000    -0.4280000000     5.5900000000
  147      C      -2.5110000000    -0.1870000000     5.0650000000
  148      H      -2.9410000000     0.7060000000     5.5310000000
  149      C      -2.2470000000     0.0330000000     3.5750000000
  150      H      -3.2100000000     0.2680000000     3.0970000000
  151      C      -1.3170000000     1.2270000000     3.3430000000
  152      H      -0.3400000000     1.0640000000     3.8140000000
  153      H      -1.7420000000     2.1450000000     3.7630000000
  154      H      -1.1470000000     1.3960000000     2.2740000000
  155      C      -1.6990000000    -1.2450000000     2.9400000000
  156      H      -0.7480000000    -1.5420000000     3.3990000000
  157      H      -1.5200000000    -1.1220000000     1.8680000000
  158      H      -2.4000000000    -2.0780000000     3.0660000000
  159      H      -3.2110000000    -1.0150000000     5.2220000000
  160      H      -9.0430000000     0.7300000000     4.5540000000
  161      C      -9.0520000000     1.4400000000     3.7210000000
  162      H      -9.5890000000     2.3370000000     4.0440000000
  163      C      -7.6380000000     1.7980000000     3.2700000000
  164      H      -7.0930000000     2.2570000000     4.1040000000
  165      H      -7.7000000000     2.5570000000     2.4820000000
  166      C      -6.8090000000     0.6330000000     2.7250000000
  167      H      -7.3190000000     0.1500000000     1.8830000000
  168      H      -5.8450000000     1.0080000000     2.3570000000
  169      S      -6.4830000000    -0.5940000000     4.0340000000
  170      C      -5.5540000000    -1.8220000000     3.0840000000
  171      H      -6.1550000000    -2.2380000000     2.2700000000
  172      H      -4.6320000000    -1.4010000000     2.6730000000
  173      H      -5.2900000000    -2.6260000000     3.7750000000
  174      H      -9.6180000000     0.9820000000     2.9010000000
  175      H      -4.9680000000    -5.3310000000     4.6550000000
  176      C      -3.9090000000    -5.2570000000     4.3830000000
  177      H      -3.4090000000    -6.1590000000     4.7530000000
  178      C      -3.7340000000    -5.0900000000     2.8730000000
  179      H      -4.2880000000    -4.2000000000     2.5470000000
  180      H      -4.1960000000    -5.9370000000     2.3470000000
  181      C      -2.2790000000    -4.9520000000     2.4010000000
  182      H      -1.7720000000    -4.2380000000     3.0680000000
  183      C      -1.5180000000    -6.2770000000     2.4760000000
  184      H      -1.5160000000    -6.6960000000     3.4890000000
  185      H      -1.9670000000    -7.0140000000     1.7990000000
  186      H      -0.4760000000    -6.1360000000     2.1710000000
  187      C      -2.2410000000    -4.3860000000     0.9810000000
  188      H      -2.6510000000    -3.3700000000     0.9570000000
  189      H      -2.8290000000    -5.0070000000     0.2950000000
  190      H      -1.2220000000    -4.3500000000     0.5870000000
  191      H      -3.4830000000    -4.4000000000     4.9200000000
  192      H       1.4400000000    -5.4790000000     3.8150000000
  193      C       2.3230000000    -5.5610000000     3.1690000000
  194      H       2.1290000000    -6.3580000000     2.4400000000
  195      C       2.6140000000    -4.2350000000     2.4610000000
  196      H       2.8130000000    -3.4790000000     3.2300000000
  197      C       3.8580000000    -4.3420000000     1.5760000000
  198      H       4.1230000000    -3.3720000000     1.1410000000
  199      H       4.7250000000    -4.6920000000     2.1500000000
  200      H       3.6890000000    -5.0530000000     0.7550000000
  201      C       1.4110000000    -3.7650000000     1.6430000000
  202      H       1.6160000000    -2.7940000000     1.1790000000
  203      H       0.5200000000    -3.6500000000     2.2730000000
  204      H       1.1710000000    -4.4780000000     0.8420000000
  205      H       3.1710000000    -5.8730000000     3.7910000000
  206      H       8.0540000000    -2.6690000000     1.5600000000
  207      C       7.9260000000    -3.2680000000     0.6530000000
  208      H       7.0150000000    -3.8600000000     0.7780000000
  209      C       7.8260000000    -2.3780000000    -0.5770000000
  210      H       8.7330000000    -1.7800000000    -0.7200000000
  211      H       7.7190000000    -2.9740000000    -1.4920000000
  212      C       6.6510000000    -1.4260000000    -0.5310000000
  213      O       5.8200000000    -1.4020000000     0.3560000000
  214      O       6.6290000000    -0.6210000000    -1.5850000000
  215      H       5.8510000000    -0.0050000000    -1.5090000000
  216      H       8.7770000000    -3.9500000000     0.5660000000
  217      H       5.6960000000    -4.7410000000    -3.7360000000
  218      C       5.3770000000    -4.7250000000    -2.6890000000
  219      H       6.2750000000    -4.7650000000    -2.0610000000
  220      C       4.5420000000    -3.4810000000    -2.3850000000
  221      H       4.2490000000    -3.4520000000    -1.3290000000
  222      H       3.6290000000    -3.4510000000    -2.9900000000
  223      H       5.1030000000    -2.5660000000    -2.6020000000
  224      H       4.8070000000    -5.6420000000    -2.5010000000
  225      H       1.7520000000    -9.0780000000    -1.6230000000
  226      C       1.2040000000    -8.9710000000    -0.6810000000
  227      H       1.6590000000    -9.6370000000     0.0620000000
  228      C       1.2290000000    -7.5120000000    -0.2060000000
  229      H       0.7200000000    -7.4500000000     0.7660000000
  230      H       2.2670000000    -7.2040000000    -0.0260000000
  231      C       0.5880000000    -6.5590000000    -1.1700000000
  232      C       1.1970000000    -5.5670000000    -1.8990000000
  233      H       2.2390000000    -5.2720000000    -1.9060000000
  234      N       0.2900000000    -4.9130000000    -2.6910000000
  235      H       0.4660000000    -4.1350000000    -3.3550000000
  236      C      -0.9430000000    -5.4680000000    -2.4800000000
  237      C      -2.1820000000    -5.1150000000    -3.0250000000
  238      H      -2.2590000000    -4.2950000000    -3.7330000000
  239      C      -3.2890000000    -5.8430000000    -2.6220000000
  240      H      -4.2660000000    -5.5900000000    -3.0230000000
  241      C      -3.1690000000    -6.9050000000    -1.7030000000
  242      H      -4.0570000000    -7.4590000000    -1.4130000000
  243      C      -1.9410000000    -7.2450000000    -1.1610000000
  244      H      -1.8620000000    -8.0590000000    -0.4440000000
  245      C      -0.8010000000    -6.5160000000    -1.5380000000
  246      H       0.1780000000    -9.3090000000    -0.8590000000
  247      O       0.0860000000    -0.0220000000    -4.4880000000
  248      H      -0.2560000000    -0.9150000000    -4.2990000000
  249      H       0.8250000000    -0.3010000000    -5.0810000000
  250      O      -6.9920000000     1.6140000000    -3.2910000000
  251      H      -6.4320000000     2.4120000000    -3.2870000000
  252      H      -6.7520000000     1.1610000000    -2.4620000000
  253      O      -1.1400000000     2.3870000000    -4.0860000000
  254      H      -0.8340000000     1.4850000000    -4.3410000000
  255      H      -0.3140000000     2.8790000000    -4.0200000000
  256      O      -6.1480000000    -0.6570000000    -4.6330000000
  257      H      -6.9150000000    -1.2010000000    -4.4210000000
  258      H      -6.4040000000     0.2290000000    -4.2970000000
 ----------------------------------------------------------------
 Nuclear Repulsion Energy =       23545.50889038 hartrees
 There are      395 alpha and      395 beta electrons
 Requested basis set is 6-31G(d)
 There are 715 shells and 1807 basis functions

 Total QAlloc Memory Limit  12000 MB
 Mega-Array Size      3911 MB
 MEM_STATIC part      4000 MB

 A cutoff of  1.0D-14 yielded  81308 shell pairs
 There are    500563 function pairs
 Smallest overlap matrix eigenvalue = 3.63E-04

 Scale SEOQF with 1.000000e-02/1.000000e-02/1.000000e-02

 Standard Electronic Orientation quadrupole field applied
 Nucleus-field energy     =     0.0000000719 hartrees
 Guess from superposition of atomic densities
 Warning:  Energy on first SCF cycle will be non-variational
 SAD guess density has 789.000002 electrons

 -----------------------------------------------------------------------
  General SCF calculation program by
  Eric Jon Sundstrom, Paul Horn, Yuezhi Mao, Dmitri Zuev, Alec White,
  David Stuck, Shaama M.S., Shane Yost, Joonho Lee, David Small,
  Daniel Levine, Susi Lehtola, Hugh Burton, Evgeny Epifanovsky,
  Bang C. Huynh
 -----------------------------------------------------------------------
=================================================
        Doing projection-based embedding         
      F. Manby et al. JCTC, 8, 2564 (2012)       
=================================================

****************************************************
   Low-level SCF calculation for the whole system   
****************************************************
----------------------------------------------
 Summary of the low-level theory: 
 Exchange:     0.1670 Hartree-Fock + 1.0000 wB97X-V + LR-HF
 Correlation:  1.0000 wB97X-V
 Using Euler-Maclaurin-Lebedev (75,302) quadrature formula
 Nonlocal Correlation:  VV10 with C = 0.0100 and b = 6.00 and scale = 1.00000
 Grid used for NLC:  SG-1 standard quadrature
----------------------------------------------
 using 8 threads for integral computing
 -------------------------------------------------------
 OpenMP Integral computing Module                
 Release: version 1.0, May 2013, Q-Chem Inc. Pittsburgh 
 -------------------------------------------------------
 A restricted SCF calculation will be
 performed using DIIS
 SCF converges when DIIS error is below 1.0e-08
 ---------------------------------------
  Cycle       Energy         DIIS error
 ---------------------------------------
    1   -4732.4879633201      1.81e-02  
    2   -4705.0788788222      1.69e-03  
    3   -4705.4169097272      1.58e-03  
    4   -4706.1348988175      2.55e-04  
    5   -4706.1526707416      1.26e-04  
    6   -4706.1576163829      3.01e-05  
    7   -4706.1579227531      7.68e-06  
    8   -4706.1579504688      2.77e-06  
    9   -4706.1579548313      1.25e-06  
   10   -4706.1579559696      4.56e-07  
   11   -4706.1579561478      2.37e-07  
   12   -4706.1579562002      8.17e-08  
   13   -4706.1579562073      3.24e-08  
   14   -4706.1579562088      1.59e-08  
   15   -4706.1579562091      6.85e-09  Convergence criterion met
 ---------------------------------------
 SCF time:   CPU 47964.72s  wall 6084.00s 
 SCF   energy in the final basis set =    -4706.1579562091
 Total energy in the final basis set =    -4706.1579562091

****************************************************
             Start embedding calculation            
****************************************************
----------------------------------------------
 Summary of the high-level theory: 
 Exchange:     0.1670 Hartree-Fock + 1.0000 wB97X-V + LR-HF
 Correlation:  1.0000 wB97X-V
 Using Euler-Maclaurin-Lebedev (75,302) quadrature formula
 Nonlocal Correlation:  VV10 with C = 0.0100 and b = 6.00 and scale = 1.00000
 Grid used for NLC:  SG-1 standard quadrature
----------------------------------------------
Doing R-in-R Embedding Calculation
Number of fragments: 2
Embedded fragment(s): 1 
NOcc for each fragment
           75
          320
NBasis for each fragment
          352
         1455
Variational space of the embedded problem: 
NOcc (active)  = 75
NOcc (fixed)   = 320
NVir (total)   = 1412
Read converged orbitals from disk
=========================================================
       Doing SPADE partition for the orbital space       
     D. Claudino and N. Mayhall JCTC 15, 1053 (2019)     
=========================================================
SPADE singular values:
 1.0000 1.0000 1.0000 1.0000 1.0000 1.0000 1.0000 1.0000 1.0000 1.0000
 1.0000 1.0000 1.0000 1.0000 1.0000 1.0000 1.0000 1.0000 1.0000 1.0000
 1.0000 1.0000 1.0000 1.0000 1.0000 1.0000 1.0000 1.0000 1.0000 1.0000
 1.0000 1.0000 1.0000 1.0000 1.0000 1.0000 1.0000 1.0000 0.9999 0.9999
 0.9999 0.9999 0.9999 0.9998 0.9998 0.9998 0.9997 0.9996 0.9996 0.9995
 0.9995 0.9994 0.9993 0.9992 0.9991 0.9990 0.9989 0.9989 0.9988 0.9987
 0.9987 0.9985 0.9984 0.9984 0.9982 0.9980 0.9977 0.9976 0.9970 0.9967
 0.9965 0.9926 0.9818 0.9780 0.9730 0.1619 0.1331 0.1257 0.1055 0.0992
 0.0965 0.0909 0.0828 0.0811 0.0774 0.0770 0.0747 0.0663 0.0638 0.0625
 0.0616 0.0564 0.0554 0.0522 0.0506 0.0485 0.0472 0.0453 0.0446 0.0431
 0.0379 0.0362 0.0319 0.0298 0.0293 0.0279 0.0265 0.0258 0.0235 0.0226
 0.0210 0.0205 0.0196 0.0183 0.0175 0.0157 0.0152 0.0141 0.0125 0.0118
 0.0115 0.0109 0.0097 0.0090 0.0087 0.0083 0.0072 0.0067 0.0065 0.0063
 0.0061 0.0060 0.0059 0.0056 0.0054 0.0053 0.0048 0.0043 0.0041 0.0040
 0.0039 0.0036 0.0036 0.0034 0.0032 0.0032 0.0030 0.0030 0.0029 0.0028
 0.0025 0.0023 0.0023 0.0022 0.0021 0.0020 0.0019 0.0018 0.0017 0.0017
 0.0016 0.0015 0.0015 0.0015 0.0014 0.0014 0.0013 0.0012 0.0011 0.0011
 0.0011 0.0010 0.0010 0.0010 0.0009 0.0009 0.0009 0.0008 0.0008 0.0008
 0.0007 0.0007 0.0007 0.0007 0.0006 0.0006 0.0006 0.0006 0.0006 0.0006
 0.0005 0.0005 0.0005 0.0005 0.0005 0.0005 0.0004 0.0004 0.0004 0.0004
 0.0004 0.0004 0.0004 0.0004 0.0004 0.0004 0.0003 0.0003 0.0003 0.0003
 0.0003 0.0003 0.0003 0.0003 0.0003 0.0003 0.0002 0.0002 0.0002 0.0002
 0.0002 0.0002 0.0002 0.0002 0.0002 0.0002 0.0002 0.0002 0.0002 0.0002
 0.0002 0.0002 0.0002 0.0002 0.0001 0.0001 0.0001 0.0001 0.0001 0.0001
 0.0001 0.0001 0.0001 0.0001 0.0001 0.0001 0.0001 0.0001 0.0001 0.0001
 0.0001 0.0001 0.0001 0.0001 0.0001 0.0001 0.0001 0.0001 0.0001 0.0001
 0.0001 0.0001 0.0001 0.0001 0.0001 0.0001 0.0001 0.0001 0.0001 0.0000
 0.0000 0.0000 0.0000 0.0000 0.0000 0.0000 0.0000 0.0000 0.0000 0.0000
 0.0000 0.0000 0.0000 0.0000 0.0000 0.0000 0.0000 0.0000 0.0000 0.0000
 0.0000 0.0000 0.0000 0.0000 0.0000 0.0000 0.0000 0.0000 0.0000 0.0000
 0.0000 0.0000 0.0000 0.0000 0.0000 0.0000 0.0000 0.0000 0.0000 0.0000
 0.0000 0.0000 0.0000 0.0000 0.0000 0.0000 0.0000 0.0000 0.0000 0.0000
 0.0000 0.0000 0.0000 0.0000 0.0000 0.0000 0.0000 0.0000 0.0000 0.0000
 0.0000 0.0000 0.0000 0.0000 0.0000 0.0000 0.0000 0.0000 0.0000 0.0000
 0.0000 0.0000 0.0000 0.0000 0.0000 0.0000 0.0000 0.0000 0.0000 0.0000
 0.0000 0.0000
Early stop requested; no embedded SCF will be performed

 320 environment occs will be part of frozen-core in future post-HF calculations
 
 --------------------------------------------------------------
 
                    Orbital Energies (a.u.)
 --------------------------------------------------------------
 
 Alpha MOs
 -- Occupied --
-88.8096 -19.1886 -19.1720 -19.1516 -19.1479 -19.1334 -19.1279 -19.1157
-19.1115 -19.0788 -19.0749 -14.4047 -14.3595 -10.3413 -10.3390 -10.2723
-10.2709 -10.2687 -10.2548 -10.2476 -10.2400 -10.2382 -10.2362 -10.2354
-10.2291 -10.2287 -10.2274 -10.2265 -10.2265 -10.2244 -10.2232 -10.2232
-10.2213 -10.2212 -10.2209 -10.2209 -10.2199 -10.2196 -10.2190 -10.2188
-10.2187 -10.2177 -10.2175 -10.2167 -10.2158 -10.2157 -10.2151 -10.2147
-10.2144 -10.2109 -10.2107 -10.2107 -10.2106 -10.2101 -10.2081 -10.2080
-10.2077 -10.2076 -10.2073 -10.2071 -10.2041 -10.2041 -10.2029 -10.2004
-10.2002 -10.1998 -10.1975 -10.1968 -10.1965 -10.1954 -10.1939 -10.1934
-10.1897 -10.1871 -10.1866 -10.1828 -10.1809 -10.1800 -10.1770  -7.9762
 -5.9342  -5.9300  -5.9226  -1.1555  -1.1143  -1.1053  -1.0613  -1.0573
 -1.0342  -1.0338  -1.0167  -1.0147  -1.0077  -1.0036  -0.9611  -0.9249
 -0.9227  -0.9009  -0.8965  -0.8877  -0.8877  -0.8785  -0.8774  -0.8735
 -0.8586  -0.8556  -0.8539  -0.8527  -0.8525  -0.8412  -0.8357  -0.8152
 -0.8102  -0.8056  -0.7990  -0.7987  -0.7966  -0.7922  -0.7889  -0.7811
 -0.7745  -0.7680  -0.7655  -0.7625  -0.7592  -0.7558  -0.7549  -0.7508
 -0.7489  -0.7487  -0.7347  -0.7317  -0.7293  -0.7274  -0.7147  -0.7019
 -0.6949  -0.6943  -0.6809  -0.6779  -0.6723  -0.6707  -0.6647  -0.6558
 -0.6541  -0.6537  -0.6387  -0.6375  -0.6330  -0.6320  -0.6286  -0.6249
 -0.6228  -0.6214  -0.6198  -0.6059  -0.6002  -0.5881  -0.5818  -0.5618
 -0.5594  -0.5554  -0.5460  -0.5397  -0.5391  -0.5358  -0.5345  -0.5337
 -0.5307  -0.5286  -0.5266  -0.5234  -0.5202  -0.5200  -0.5195  -0.5184
 -0.5173  -0.5167  -0.5152  -0.5098  -0.5097  -0.5075  -0.5019  -0.5018
 -0.5006  -0.4979  -0.4976  -0.4936  -0.4902  -0.4897  -0.4891  -0.4861
 -0.4854  -0.4848  -0.4841  -0.4839  -0.4823  -0.4815  -0.4797  -0.4792
 -0.4759  -0.4758  -0.4744  -0.4733  -0.4726  -0.4709  -0.4678  -0.4628
 -0.4621  -0.4609  -0.4598  -0.4582  -0.4579  -0.4573  -0.4566  -0.4564
 -0.4538  -0.4513  -0.4498  -0.4472  -0.4461  -0.4458  -0.4434  -0.4417
 -0.4412  -0.4392  -0.4378  -0.4337  -0.4323  -0.4301  -0.4301  -0.4297
 -0.4277  -0.4275  -0.4239  -0.4234  -0.4216  -0.4206  -0.4187  -0.4172
 -0.4165  -0.4159  -0.4138  -0.4137  -0.4107  -0.4085  -0.4079  -0.4074
 -0.4072  -0.4068  -0.4063  -0.4060  -0.4050  -0.4014  -0.4009  -0.3964
 -0.3943  -0.3928  -0.3916  -0.3908  -0.3903  -0.3881  -0.3869  -0.3862
 -0.3856  -0.3851  -0.3813  -0.3804  -0.3797  -0.3787  -0.3780  -0.3762
 -0.3758  -0.3752  -0.3751  -0.3732  -0.3729  -0.3704  -0.3692  -0.3690
 -0.3683  -0.3676  -0.3666  -0.3659  -0.3628  -0.3623  -0.3613  -0.3613
 -0.3610  -0.3587  -0.3584  -0.3574  -0.3484  -0.3467  -0.3463  -0.3443
 -0.3420  -0.3406  -0.3396  -0.3385  -0.3368  -0.3323  -0.3188  -0.3130
 -0.3073  -0.3033  -0.3025  -0.3005  -0.3000  -0.2834  -0.2766  -0.2715
 -0.2608  -0.2605  -0.2516  -0.2431  -0.2356  -0.2299  -0.2203  -0.1966
-10.1121 -10.7770 -10.0537 -10.3559 -10.0988  -9.9822  -9.9308  -9.9544
 -9.8650  -9.9385  -9.8541  -9.5568  -9.7231  -9.9145  -9.7970  -9.7004
 -9.5981 -12.5047 -14.3062 -16.7454  -1.3223  -1.1578  -1.3991  -1.3144
 -1.1742  -1.2248  -1.0975  -1.2144  -1.2650  -0.7256  -1.0236  -0.7677
 -1.0946  -1.1697  -1.0695  -0.9561  -0.9825  -0.7891  -1.1757  -0.6690
 -0.6050  -0.4713  -0.6511  -0.9861  -1.0601  -0.5551  -0.5219  -0.4504
 -0.4372  -0.4723  -0.4909  -0.5191  -0.4948  -0.5362  -0.5103  -0.4784
 -0.4517  -0.4430  -0.4835  -0.4689  -0.4730  -0.4229  -0.4502  -0.4189
 -0.4445  -0.4380  -0.4044  -0.4336  -0.4450  -0.4119  -0.3708  -0.3597
 -0.4508  -0.5870  -0.4150
 -- Virtual --
  0.0912   0.1487   0.1491   0.1537   0.1542   0.1669   0.1682   0.1721
  0.1734   0.1818   0.1821   0.1948   0.1983   0.2022   0.2035   0.2090
  0.2101   0.2122   0.2194   0.2246   0.2263   0.2274   0.2287   0.2308
  0.2325   0.2357   0.2378   0.2407   0.2417   0.2431   0.2448   0.2462
  0.2477   0.2499   0.2523   0.2534   0.2546   0.2558   0.2596   0.2605
  0.2628   0.2636   0.2652   0.2662   0.2688   0.2707   0.2722   0.2739
  0.2743   0.2749   0.2764   0.2774   0.2793   0.2803   0.2809   0.2831
  0.2845   0.2865   0.2876   0.2890   0.2901   0.2911   0.2921   0.2937
  0.2939   0.2955   0.2959   0.2973   0.2986   0.2993   0.3006   0.3022
  0.3029   0.3055   0.3060   0.3073   0.3083   0.3092   0.3102   0.3107
  0.3125   0.3131   0.3144   0.3152   0.3165   0.3172   0.3180   0.3191
  0.3219   0.3221   0.3230   0.3240   0.3255   0.3259   0.3268   0.3281
  0.3283   0.3300   0.3304   0.3317   0.3336   0.3340   0.3345   0.3347
  0.3370   0.3382   0.3390   0.3397   0.3405   0.3411   0.3420   0.3446
  0.3449   0.3459   0.3465   0.3479   0.3490   0.3493   0.3509   0.3520
  0.3534   0.3551   0.3556   0.3562   0.3581   0.3583   0.3590   0.3611
  0.3617   0.3628   0.3632   0.3640   0.3647   0.3667   0.3674   0.3687
  0.3692   0.3710   0.3717   0.3730   0.3742   0.3756   0.3763   0.3767
  0.3780   0.3794   0.3816   0.3822   0.3830   0.3837   0.3849   0.3863
  0.3870   0.3897   0.3903   0.3913   0.3927   0.3929   0.3941   0.3955
  0.3968   0.3973   0.3988   0.3998   0.4013   0.4027   0.4048   0.4056
  0.4064   0.4068   0.4071   0.4099   0.4102   0.4126   0.4133   0.4135
  0.4154   0.4162   0.4176   0.4185   0.4192   0.4209   0.4231   0.4244
  0.4245   0.4256   0.4265   0.4290   0.4316   0.4319   0.4336   0.4354
  0.4358   0.4376   0.4401   0.4406   0.4415   0.4438   0.4457   0.4469
  0.4482   0.4502   0.4520   0.4523   0.4529   0.4551   0.4565   0.4591
  0.4601   0.4630   0.4644   0.4651   0.4671   0.4699   0.4713   0.4725
  0.4748   0.4752   0.4775   0.4789   0.4803   0.4819   0.4846   0.4863
  0.4870   0.4878   0.4906   0.4931   0.4970   0.4997   0.5021   0.5091
  0.5120   0.5135   0.5139   0.5159   0.5181   0.5220   0.5265   0.5291
  0.5320   0.5342   0.5363   0.5397   0.5424   0.5451   0.5477   0.5528
  0.5556   0.5613   0.5649   0.5704   0.5757   0.5848   0.5905   0.5959
  0.6009   0.6051   0.6140   0.6245   0.6327   0.6340   0.6383   0.6397
  0.6440   0.6494   0.6534   0.6552   0.6590   0.6601   0.6628   0.6648
  0.6661   0.6669   0.6687   0.6698   0.6713   0.6732   0.6741   0.6771
  0.6784   0.6794   0.6815   0.6833   0.6866   0.6867   0.6882   0.6913
  0.6933   0.6952   0.6972   0.6996   0.7000   0.7026   0.7038   0.7051
  0.7063   0.7102   0.7115   0.7121   0.7141   0.7152   0.7168   0.7181
  0.7225   0.7230   0.7231   0.7268   0.7273   0.7278   0.7291   0.7322
  0.7331   0.7346   0.7363   0.7384   0.7409   0.7425   0.7440   0.7453
  0.7465   0.7500   0.7505   0.7513   0.7525   0.7537   0.7547   0.7568
  0.7590   0.7613   0.7619   0.7637   0.7658   0.7669   0.7670   0.7686
  0.7707   0.7712   0.7745   0.7764   0.7771   0.7782   0.7796   0.7806
  0.7830   0.7841   0.7867   0.7880   0.7886   0.7900   0.7909   0.7922
  0.7950   0.7960   0.7974   0.7993   0.8008   0.8030   0.8041   0.8051
  0.8080   0.8096   0.8097   0.8113   0.8144   0.8167   0.8180   0.8203
  0.8214   0.8229   0.8243   0.8269   0.8270   0.8286   0.8304   0.8322
  0.8368   0.8372   0.8380   0.8409   0.8424   0.8432   0.8451   0.8458
  0.8478   0.8490   0.8507   0.8525   0.8542   0.8554   0.8573   0.8576
  0.8585   0.8612   0.8619   0.8630   0.8632   0.8642   0.8657   0.8664
  0.8684   0.8694   0.8701   0.8715   0.8727   0.8746   0.8756   0.8778
  0.8798   0.8821   0.8834   0.8849   0.8866   0.8892   0.8913   0.8927
  0.8940   0.8964   0.8970   0.8989   0.9010   0.9034   0.9055   0.9087
  0.9105   0.9125   0.9142   0.9153   0.9163   0.9198   0.9205   0.9214
  0.9229   0.9251   0.9293   0.9309   0.9323   0.9333   0.9342   0.9354
  0.9368   0.9427   0.9439   0.9469   0.9477   0.9497   0.9505   0.9528
  0.9533   0.9555   0.9575   0.9591   0.9610   0.9630   0.9645   0.9656
  0.9670   0.9697   0.9719   0.9750   0.9785   0.9786   0.9803   0.9814
  0.9842   0.9864   0.9881   0.9899   0.9934   0.9943   0.9958   0.9977
  0.9993   1.0006   1.0009   1.0032   1.0052   1.0062   1.0086   1.0101
  1.0118   1.0136   1.0145   1.0167   1.0184   1.0190   1.0208   1.0219
  1.0231   1.0237   1.0269   1.0291   1.0297   1.0306   1.0312   1.0331
  1.0346   1.0357   1.0367   1.0374   1.0384   1.0391   1.0397   1.0412
  1.0428   1.0447   1.0461   1.0473   1.0484   1.0490   1.0509   1.0515
  1.0520   1.0536   1.0547   1.0559   1.0571   1.0575   1.0605   1.0612
  1.0623   1.0635   1.0646   1.0653   1.0671   1.0685   1.0692   1.0707
  1.0714   1.0735   1.0748   1.0755   1.0764   1.0788   1.0799   1.0820
  1.0830   1.0835   1.0842   1.0862   1.0877   1.0881   1.0901   1.0907
  1.0912   1.0934   1.0943   1.0948   1.0962   1.0973   1.0978   1.0987
  1.0999   1.1021   1.1031   1.1034   1.1045   1.1056   1.1064   1.1074
  1.1081   1.1102   1.1111   1.1125   1.1140   1.1150   1.1158   1.1163
  1.1177   1.1196   1.1204   1.1212   1.1230   1.1235   1.1256   1.1273
  1.1282   1.1290   1.1313   1.1325   1.1339   1.1344   1.1362   1.1374
  1.1390   1.1406   1.1420   1.1448   1.1462   1.1474   1.1488   1.1514
  1.1536   1.1541   1.1555   1.1582   1.1593   1.1609   1.1628   1.1637
  1.1643   1.1654   1.1660   1.1674   1.1699   1.1726   1.1732   1.1746
  1.1780   1.1797   1.1806   1.1811   1.1827   1.1835   1.1867   1.1876
  1.1893   1.1912   1.1922   1.1936   1.1954   1.1977   1.1995   1.2010
  1.2039   1.2056   1.2080   1.2090   1.2101   1.2107   1.2167   1.2178
  1.2206   1.2221   1.2247   1.2252   1.2279   1.2284   1.2302   1.2320
  1.2342   1.2360   1.2372   1.2430   1.2431   1.2444   1.2460   1.2497
  1.2510   1.2518   1.2532   1.2565   1.2581   1.2587   1.2610   1.2634
  1.2645   1.2672   1.2686   1.2739   1.2754   1.2776   1.2805   1.2827
  1.2879   1.2907   1.2914   1.2926   1.2945   1.2982   1.3028   1.3045
  1.3066   1.3099   1.3148   1.3155   1.3200   1.3252   1.3286   1.3304
  1.3313   1.3343   1.3372   1.3406   1.3409   1.3430   1.3444   1.3452
  1.3489   1.3515   1.3542   1.3563   1.3605   1.3624   1.3637   1.3655
  1.3689   1.3704   1.3739   1.3768   1.3794   1.3810   1.3835   1.3877
  1.3891   1.3914   1.3942   1.3955   1.3994   1.4016   1.4035   1.4063
  1.4119   1.4132   1.4184   1.4200   1.4215   1.4236   1.4273   1.4277
  1.4290   1.4322   1.4344   1.4396   1.4416   1.4431   1.4444   1.4505
  1.4564   1.4575   1.4599   1.4641   1.4684   1.4784   1.4808   1.4840
  1.4857   1.4905   1.4943   1.4979   1.5013   1.5034   1.5052   1.5084
  1.5147   1.5160   1.5195   1.5216   1.5305   1.5321   1.5348   1.5393
  1.5422   1.5450   1.5461   1.5500   1.5536   1.5571   1.5606   1.5640
  1.5723   1.5756   1.5779   1.5825   1.5850   1.5858   1.5876   1.5907
  1.5928   1.5942   1.5962   1.5999   1.6003   1.6042   1.6053   1.6060
  1.6071   1.6088   1.6110   1.6131   1.6152   1.6184   1.6192   1.6205
  1.6208   1.6232   1.6243   1.6264   1.6300   1.6316   1.6326   1.6340
  1.6354   1.6378   1.6397   1.6416   1.6427   1.6437   1.6454   1.6491
  1.6500   1.6517   1.6525   1.6595   1.6604   1.6653   1.6689   1.6710
  1.6730   1.6730   1.6754   1.6767   1.6811   1.6838   1.6862   1.6872
  1.6901   1.6925   1.6931   1.6936   1.6976   1.7019   1.7036   1.7059
  1.7103   1.7123   1.7154   1.7164   1.7198   1.7256   1.7294   1.7297
  1.7416   1.7540   1.7574   1.7669   1.7692   1.7715   1.7774   1.7869
  1.7939   1.7975   1.8007   1.8049   1.8113   1.8135   1.8180   1.8220
  1.8282   1.8316   1.8332   1.8357   1.8391   1.8473   1.8480   1.8519
  1.8559   1.8596   1.8613   1.8654   1.8672   1.8692   1.8778   1.8810
  1.8819   1.8830   1.8869   1.8899   1.8948   1.8958   1.8985   1.9000
  1.9046   1.9059   1.9083   1.9088   1.9119   1.9142   1.9191   1.9209
  1.9241   1.9284   1.9320   1.9338   1.9384   1.9387   1.9419   1.9447
  1.9463   1.9469   1.9493   1.9550   1.9578   1.9594   1.9596   1.9608
  1.9640   1.9649   1.9662   1.9729   1.9762   1.9779   1.9801   1.9811
  1.9834   1.9859   1.9876   1.9894   1.9901   1.9905   1.9913   1.9924
  1.9951   1.9992   2.0005   2.0021   2.0032   2.0048   2.0080   2.0098
  2.0122   2.0136   2.0144   2.0177   2.0202   2.0211   2.0235   2.0243
  2.0255   2.0286   2.0331   2.0380   2.0404   2.0432   2.0452   2.0454
  2.0494   2.0515   2.0543   2.0641   2.0687   2.0709   2.0717   2.0754
  2.0768   2.0780   2.0799   2.0815   2.0824   2.0841   2.0885   2.0917
  2.0957   2.1002   2.1005   2.1020   2.1035   2.1066   2.1092   2.1107
  2.1114   2.1140   2.1149   2.1161   2.1190   2.1202   2.1235   2.1246
  2.1253   2.1279   2.1287   2.1308   2.1316   2.1326   2.1368   2.1389
  2.1400   2.1413   2.1424   2.1435   2.1440   2.1463   2.1472   2.1502
  2.1547   2.1574   2.1596   2.1603   2.1629   2.1638   2.1656   2.1659
  2.1689   2.1706   2.1718   2.1725   2.1737   2.1766   2.1770   2.1809
  2.1812   2.1861   2.1879   2.1894   2.1906   2.1937   2.1964   2.2005
  2.2010   2.2019   2.2025   2.2087   2.2098   2.2121   2.2145   2.2152
  2.2210   2.2220   2.2254   2.2272   2.2304   2.2311   2.2320   2.2342
  2.2379   2.2403   2.2427   2.2435   2.2457   2.2474   2.2491   2.2552
  2.2594   2.2613   2.2633   2.2698   2.2730   2.2744   2.2749   2.2790
  2.2823   2.2833   2.2851   2.2869   2.2918   2.2954   2.2976   2.3013
  2.3025   2.3069   2.3085   2.3097   2.3111   2.3157   2.3177   2.3216
  2.3225   2.3244   2.3274   2.3293   2.3312   2.3322   2.3355   2.3407
  2.3459   2.3478   2.3500   2.3535   2.3559   2.3598   2.3643   2.3684
  2.3700   2.3730   2.3762   2.3802   2.3827   2.3864   2.3890   2.3971
  2.3992   2.4008   2.4038   2.4067   2.4106   2.4135   2.4139   2.4160
  2.4217   2.4234   2.4256   2.4268   2.4272   2.4308   2.4317   2.4323
  2.4340   2.4347   2.4354   2.4381   2.4396   2.4429   2.4447   2.4473
  2.4485   2.4509   2.4535   2.4565   2.4583   2.4607   2.4636   2.4644
  2.4656   2.4665   2.4669   2.4685   2.4704   2.4708   2.4735   2.4750
  2.4770   2.4784   2.4828   2.4835   2.4849   2.4895   2.4903   2.4930
  2.4963   2.4982   2.4993   2.5016   2.5017   2.5020   2.5037   2.5064
  2.5083   2.5104   2.5118   2.5128   2.5141   2.5161   2.5238   2.5250
  2.5265   2.5316   2.5343   2.5358   2.5376   2.5389   2.5401   2.5419
  2.5469   2.5522   2.5526   2.5590   2.5610   2.5633   2.5643   2.5748
  2.5767   2.5781   2.5841   2.5873   2.5945   2.5976   2.6000   2.6020
  2.6043   2.6056   2.6068   2.6129   2.6160   2.6167   2.6372   2.6381
  2.6418   2.6479   2.6597   2.6606   2.6617   2.6665   2.6717   2.6740
  2.6760   2.6809   2.6827   2.6845   2.6874   2.6902   2.6913   2.6932
  2.6944   2.6962   2.7011   2.7058   2.7070   2.7080   2.7083   2.7105
  2.7133   2.7141   2.7165   2.7186   2.7245   2.7260   2.7300   2.7345
  2.7353   2.7489   2.7543   2.7556   2.7596   2.7640   2.7739   2.7773
  2.7794   2.7836   2.7887   2.7895   2.7946   2.7999   2.8112   2.8139
  2.8141   2.8176   2.8229   2.8258   2.8269   2.8303   2.8385   2.8485
  2.8487   2.8504   2.8525   2.8530   2.8534   2.8570   2.8574   2.8621
  2.8684   2.8725   2.8757   2.8773   2.8806   2.8840   2.8858   2.8896
  2.8925   2.8956   2.8982   2.8998   2.9013   2.9102   2.9124   2.9195
  2.9250   2.9269   2.9291   2.9334   2.9361   2.9398   2.9427   2.9443
  2.9468   2.9497   2.9566   2.9630   2.9670   2.9730   2.9776   2.9799
  2.9840   2.9937   3.0039   3.0163   3.0280   3.0380   3.0451   3.0505
  3.0676   3.0740   3.0756   3.0857   3.0895   3.0942   3.1078   3.1153
  3.1239   3.1323   3.1449   3.1549   3.1786   3.1833   3.2073   3.2118
  3.2202   3.2284   3.2351   3.2533   3.2612   3.2746   3.3034   3.3088
  3.3172   3.3261   3.3599   3.3690   3.3855   3.4619   3.6071   3.6176
  3.6601   3.9235   3.9498   4.1202   4.1344   4.1348   4.1802   4.2020
  4.2355   4.2576   4.2683   4.3110   4.3185   4.3220   4.3280   4.3309
  4.3360   4.3394   4.3413   4.3458   4.3495   4.3526   4.3648   4.3682
  4.3732   4.3758   4.3789   4.3815   4.3842   4.3901   4.3929   4.3998
  4.4027   4.4065   4.4123   4.4320   4.4364   4.4419   4.4504   4.4651
  4.4732   4.4777   4.4834   4.4835   4.4872   4.4910   4.5062   4.5109
  4.5137   4.5166   4.5208   4.5272   4.5299   4.5345   4.5397   4.5429
  4.5461   4.5579   4.5606   4.5644   4.5666   4.5750   4.5786   4.5958
  4.5996   4.6072   4.6188   4.6224   4.6242   4.6352   4.6449   4.6593
  4.6616   4.6642   4.6689   4.6753   4.6850   4.6939   4.6993   4.7282
  4.7402   4.7551   4.7606   4.7722   4.7820   4.7952   4.7987   4.8018
  4.8119   4.8223   4.8519   4.8811   4.9096   4.9229   4.9604   4.9631
  4.9852   5.0287   5.0422   5.0579
 --------------------------------------------------------------
 
          Ground-State Mulliken Net Atomic Charges

     Atom                 Charge (a.u.)
  ----------------------------------------
      1 C                     0.482210
      2 O                    -0.581773
      3 C                    -0.282666
      4 C                     0.170531
      5 C                    -0.195171
      6 C                    -0.318126
      7 C                    -0.396884
      8 C                    -0.398730
      9 C                    -0.308761
     10 C                    -0.135995
     11 C                    -0.142348
     12 C                    -0.136100
     13 C                    -0.011680
     14 C                    -0.307697
     15 C                    -0.329468
     16 C                    -0.315913
     17 C                    -0.332003
     18 C                     0.133617
     19 C                    -0.543438
     20 O                    -0.666095
     21 H                     0.183347
     22 H                     0.205120
     23 H                     0.156362
     24 H                     0.161757
     25 H                     0.194783
     26 H                     0.191354
     27 H                     0.164319
     28 H                     0.247502
     29 H                     0.147316
     30 H                     0.182204
     31 H                     0.158659
     32 H                     0.134837
     33 H                     0.125079
     34 H                     0.132602
     35 H                     0.133725
     36 H                     0.185785
     37 H                     0.142328
     38 H                     0.176614
     39 H                     0.169746
     40 H                     0.140879
     41 H                     0.175099
     42 H                     0.114452
     43 H                     0.192075
     44 H                     0.200160
     45 H                     0.140483
     46 H                     0.417585
     47 H                     0.141827
     48 C                    -0.454216
     49 H                     0.154293
     50 C                    -0.344719
     51 H                     0.146420
     52 H                     0.150508
     53 C                     0.105214
     54 C                    -0.197832
     55 H                     0.135132
     56 C                    -0.192238
     57 H                     0.151276
     58 C                     0.335301
     59 O                    -0.693337
     60 H                     0.462011
     61 C                    -0.238703
     62 H                     0.175292
     63 C                    -0.196868
     64 H                     0.143272
     65 H                     0.158005
     66 H                     0.144861
     67 C                    -0.461858
     68 H                     0.149243
     69 C                    -0.115681
     70 H                     0.138748
     71 C                    -0.465233
     72 H                     0.148398
     73 H                     0.146772
     74 H                     0.162246
     75 C                    -0.455401
     76 H                     0.169911
     77 H                     0.141850
     78 H                     0.143994
     79 H                     0.144465
     80 H                     0.122458
     81 C                    -0.447678
     82 H                     0.154596
     83 C                    -0.381371
     84 H                     0.145541
     85 H                     0.158781
     86 C                     0.602949
     87 O                    -0.636201
     88 O                    -0.581881
     89 H                     0.159772
     90 H                     0.152218
     91 C                    -0.589766
     92 H                     0.257997
     93 H                     0.204668
     94 C                     0.595988
     95 O                    -0.529214
     96 N                    -0.612735
     97 H                     0.337482
     98 C                    -0.141825
     99 H                     0.202214
    100 C                    -0.309218
    101 H                     0.138203
    102 H                     0.150293
    103 C                    -0.116016
    104 H                     0.152346
    105 C                    -0.469214
    106 H                     0.164510
    107 H                     0.147742
    108 H                     0.150840
    109 C                    -0.482821
    110 H                     0.144863
    111 H                     0.174421
    112 H                     0.168323
    113 H                     0.160212
    114 H                     0.145268
    115 C                    -0.465848
    116 H                     0.157032
    117 C                    -0.116353
    118 H                     0.135043
    119 C                    -0.472495
    120 H                     0.146626
    121 H                     0.150136
    122 H                     0.178410
    123 C                    -0.496197
    124 H                     0.135864
    125 H                     0.158199
    126 H                     0.193383
    127 H                     0.146859
    128 H                     0.154547
    129 C                    -0.475948
    130 H                     0.151155
    131 C                    -0.339203
    132 H                     0.159700
    133 H                     0.161010
    134 C                     0.114684
    135 C                    -0.205275
    136 H                     0.145700
    137 C                    -0.156406
    138 H                     0.152476
    139 C                    -0.170555
    140 H                     0.184597
    141 C                    -0.157924
    142 H                     0.173926
    143 C                    -0.206098
    144 H                     0.139293
    145 H                     0.163484
    146 H                     0.141439
    147 C                    -0.450895
    148 H                     0.149972
    149 C                    -0.123104
    150 H                     0.141935
    151 C                    -0.479414
    152 H                     0.154830
    153 H                     0.149706
    154 H                     0.163697
    155 C                    -0.491367
    156 H                     0.158155
    157 H                     0.177122
    158 H                     0.153900
    159 H                     0.153457
    160 H                     0.175405
    161 C                    -0.465600
    162 H                     0.150273
    163 C                    -0.311003
    164 H                     0.166000
    165 H                     0.165862
    166 C                    -0.441495
    167 H                     0.193356
    168 H                     0.175258
    169 S                     0.081543
    170 C                    -0.636319
    171 H                     0.192210
    172 H                     0.199806
    173 H                     0.198057
    174 H                     0.156378
    175 H                     0.146295
    176 C                    -0.470316
    177 H                     0.151544
    178 C                    -0.281287
    179 H                     0.141280
    180 H                     0.140967
    181 C                    -0.111541
    182 H                     0.131407
    183 C                    -0.474379
    184 H                     0.136095
    185 H                     0.147088
    186 H                     0.173277
    187 C                    -0.480236
    188 H                     0.138684
    189 H                     0.171044
    190 H                     0.175587
    191 H                     0.145543
    192 H                     0.142990
    193 C                    -0.460663
    194 H                     0.146720
    195 C                    -0.112254
    196 H                     0.156213
    197 C                    -0.474376
    198 H                     0.182104
    199 H                     0.133715
    200 H                     0.135029
    201 C                    -0.474763
    202 H                     0.152046
    203 H                     0.146786
    204 H                     0.161863
    205 H                     0.135430
    206 H                     0.161676
    207 C                    -0.466593
    208 H                     0.179770
    209 C                    -0.383222
    210 H                     0.180042
    211 H                     0.190048
    212 C                     0.580988
    213 O                    -0.474711
    214 O                    -0.614472
    215 H                     0.466915
    216 H                     0.145970
    217 H                     0.157301
    218 C                    -0.468866
    219 H                     0.143557
    220 C                    -0.498480
    221 H                     0.164386
    222 H                     0.173768
    223 H                     0.166749
    224 H                     0.152962
    225 H                     0.153471
    226 C                    -0.457705
    227 H                     0.137107
    228 C                    -0.348435
    229 H                     0.156584
    230 H                     0.148938
    231 C                     0.011417
    232 C                    -0.006438
    233 H                     0.166271
    234 N                    -0.720027
    235 H                     0.416556
    236 C                     0.268730
    237 C                    -0.183839
    238 H                     0.178289
    239 C                    -0.183858
    240 H                     0.140943
    241 C                    -0.179668
    242 H                     0.127932
    243 C                    -0.209802
    244 H                     0.134754
    245 C                     0.032620
    246 H                     0.155602
    247 O                    -0.877799
    248 H                     0.427329
    249 H                     0.429216
    250 O                    -0.884846
    251 H                     0.433336
    252 H                     0.428381
    253 O                    -0.830603
    254 H                     0.455012
    255 H                     0.378389
    256 O                    -0.831169
    257 H                     0.374890
    258 H                     0.425378
  ----------------------------------------
  Sum of atomic charges =    -1.000000

 -----------------------------------------------------------------
                    Cartesian Multipole Moments
 -----------------------------------------------------------------
    Charge (ESU x 10^10)
                -4.8032
    Dipole Moment (Debye)
         X       0.0953      Y       9.1985      Z      11.9338
       Tot      15.0678
    Quadrupole Moments (Debye-Ang)
        XX    -752.5377     XY     -26.9957     YY    -683.9791
        XZ       6.0684     YZ     -31.7946     ZZ    -738.3346
    Octopole Moments (Debye-Ang^2)
       XXX     318.9674    XXY    -123.0429    XYY    -121.7690
       YYY     647.8044    XXZ     185.1450    XYZ      22.7017
       YYZ     -30.3971    XZZ     104.2229    YZZ     269.8086
       ZZZ     306.9743
    Hexadecapole Moments (Debye-Ang^3)
      XXXX  -76105.5350   XXXY    -921.7725   XXYY  -23251.2590
      XYYY   -1175.2613   YYYY  -67639.4902   XXXZ     446.6129
      XXYZ     554.8253   XYYZ     306.1372   YYYZ   -1686.5593
      XXZZ  -19445.1535   XYZZ    -307.6991   YYZZ  -16779.9367
      XZZZ     999.2556   YZZZ   -1252.1906   ZZZZ  -36624.1772
 -----------------------------------------------------------------
 Total job time:  6192.95s(wall), 48509.39s(cpu) 
 Tue Aug  6 14:42:22 2024

        *************************************************************
        *                                                           *
        *  Thank you very much for using Q-Chem.  Have a nice day.  *
        *                                                           *
        *************************************************************



Running Job 2 of 2 19nt_mm_min_distance_cutoff3_optimized_spade_wb97x-v_631gd.in
qchem 19nt_mm_min_distance_cutoff3_optimized_spade_wb97x-v_631gd.in_4046292.1 ./qchem4046292/ 1
srun -n 1 /cm/shared/apps/spack/0.17.3/cpu/b/opt/spack/linux-rocky8-zen2/gcc-10.2.0/qchem-6.0-rytxnwjazd34ekd2gqyi5ufsaimxsd3r/exe/qcprog.exe 19nt_mm_min_distance_cutoff3_optimized_spade_wb97x-v_631gd.in_4046292.1 ./qchem4046292/

                  Welcome to Q-Chem
     A Quantum Leap Into The Future Of Chemistry


 Q-Chem 6.0, Q-Chem, Inc., Pleasanton, CA (2022)

 License issued to: University of California, San Diego (site)

 E. Epifanovsky,  A. T. B. Gilbert,  Xintian Feng,  Joonho Lee,  Yuezhi Mao,  
 N. Mardirossian,  P. Pokhilko,  A. White,  M. Wormit,  M. P. Coons,  
 A. L. Dempwolff,  Zhengting Gan,  D. Hait,  P. R. Horn,  L. D. Jacobson,  
 I. Kaliman,  J. Kussmann,  A. W. Lange,  Ka Un Lao,  D. S. Levine,  Jie Liu,  
 S. C. McKenzie,  A. F. Morrison,  K. Nanda,  F. Plasser,  D. R. Rehn,  
 M. L. Vidal,  Zhi-Qiang You,  Ying Zhu,  B. Alam,  B. Albrecht,  
 A. Aldossary,  E. Alguire,  J. H. Andersen,  V. Athavale,  D. Barton,  
 K. Begam,  A. Behn,  N. Bellonzi,  Y. A. Bernard,  E. J. Berquist,  
 H. Burton,  A. Carreras,  K. Carter-Fenk,  Romit Chakraborty,  
 Chandrima Chakravarty,  Junhan Chen,  A. D. Chien,  K. D. Closser,  
 V. Cofer-Shabica,  L. Cunha,  S. Dasgupta,  Jia Deng,  M. de Wergifosse,  
 M. Diedenhofen,  Hainam Do,  S. Ehlert,  Po-Tung Fang,  S. Fatehi,  
 Qingguo Feng,  T. Friedhoff,  B. Ganoe,  J. Gayvert,  Qinghui Ge,  
 G. Gidofalvi,  M. Goldey,  J. Gomes,  C. Gonzalez-Espinoza,  S. Gulania,  
 A. Gunina,  J. A. Gyamfi,  M. W. D. Hanson-Heine,  P. H. P. Harbach,  
 A. W. Hauser,  M. F. Herbst,  M. Hernandez Vera,  M. Hodecker,  
 Z. C. Holden,  S. Houck,  Xunkun Huang,  Kerwin Hui,  B. C. Huynh,  
 K. Ikeda,  M. Ivanov,  Hyunjun Ji,  Zuxin Jin,  Hanjie Jiang,  B. Kaduk,  
 S. Kaehler,  R. Kang,  K. Khistyaev,  Jaehoon Kim,  Yongbin Kim,  
 P. Klunzinger,  Z. Koczor-Benda,  Joong Hoon Koh,  D. Kosenkov,  
 Saikiran Kotaru,  L. Koulias,  T. Kowalczyk,  C. M. Krauter,  K. Kue,  
 A. Kunitsa,  T. Kus,  A. Landau,  K. V. Lawler,  D. Lefrancois,  S. Lehtola,  
 Rain Li,  Shaozhi Li,  Yi-Pei Li,  Jiashu Liang,  M. Liebenthal,  
 Hung-Hsuan Lin,  You-Sheng Lin,  Fenglai Liu,  Kuan-Yu Liu,  
 M. Loipersberger,  A. Luenser,  C. Malbon,  A. Manjanath,  P. Manohar,  
 E. Mansoor,  S. F. Manzer,  Shan-Ping Mao,  A. V. Marenich,  T. Markovich,  
 S. Mason,  F. Matz,  S. A. Maurer,  P. F. McLaughlin,  M. F. S. J. Menger,  
 J.-M. Mewes,  S. A. Mewes,  P. Morgante,  Mohammad Mostafanejad,  
 J. W. Mullinax,  K. J. Oosterbaan,  G. Paran,  V. Parravicini,  
 Alexander C. Paul,  Suranjan K. Paul,  F. Pavosevic,  Zheng Pei,  S. Prager,  
 E. I. Proynov,  E. Ramos,  B. Rana,  A. E. Rask,  A. Rettig,  R. M. Richard,  
 F. Rob,  E. Rossomme,  T. Scheele,  M. Scheurer,  M. Schneider,  
 P. E. Schneider,  N. Sergueev,  S. M. Sharada,  Hengyuan Shen,  
 W. Skomorowski,  D. W. Small,  C. J. Stein,  Yingli Su,  Yu-Chuan Su,  
 E. J. Sundstrom,  Zhen Tao,  J. Thirman,  Hung-Yi Tsai,  T. Tsuchimochi,  
 N. M. Tubman,  C. Utku,  S. P. Veccham,  O. Vydrov,  J. Wenzel,  
 Jonathan Wong,  J. Witte,  A. Yamada,  Chou-Hsun Yang,  Kun Yao,  
 S. Yeganeh,  S. R. Yost,  A. Zech,  F. Zeller,  Igor Ying Zhang,  
 Xing Zhang,  Yu Zhang,  D. Zuev,  A. Aspuru-Guzik,  A. T. Bell,  
 N. A. Besley,  K. B. Bravaya,  B. R. Brooks,  D. Casanova,  Jeng-Da Chai,  
 Hsing-Ta Chen,  S. Coriani,  C. J. Cramer,  A. E. DePrince, III,  
 R. A. DiStasio Jr.,  A. Dreuw,  B. D. Dunietz,  T. R. Furlani,  
 W. A. Goddard III,  S. Grimme,  S. Hammes-Schiffer,  T. Head-Gordon,  
 W. J. Hehre,  Chao-Ping Hsu,  T.-C. Jagau,  Yousung Jung,  A. Klamt,  
 Jing Kong,  D. S. Lambrecht,  Xiangyuan Li,  WanZhen Liang,  N. J. Mayhall,  
 C. W. McCurdy,  J. B. Neaton,  T. Neudecker,  C. Ochsenfeld,  
 J. A. Parkhill,  R. Peverati,  V. A. Rassolov,  Haisheng Ren,  Yihan Shao,  
 L. V. Slipchenko,  R. P. Steele,  J. E. Subotnik,  A. J. W. Thom,  
 A. Tkatchenko,  D. G. Truhlar,  T. Van Voorhis,  Fan Wang,  
 T. A. Wesolowski,  K. B. Whaley,  H. L. Woodcock III,  P. M. Zimmerman,  
 S. Faraji,  P. M. W. Gill,  M. Head-Gordon,  J. M. Herbert,  A. I. Krylov

 Contributors to earlier versions of Q-Chem not listed above: 
 R. D. Adamson,  B. Austin,  R. Baer,  J. Baker,  G. J. O. Beran,  
 K. Brandhorst,  S. T. Brown,  E. F. C. Byrd,  Arup K. Chakraborty,  
 G. K. L. Chan,  Chun-Min Chang,  Yunqing Chen,  C.-L. Cheng,  
 Siu Hung Chien,  D. M. Chipman,  D. L. Crittenden,  H. Dachsel,  
 R. J. Doerksen,  A. D. Dutoi,  R. G. Edgar,  J. Fosso-Tande,  
 L. Fusti-Molnar,  D. Ghosh,  A. Ghysels,  A. Golubeva-Zadorozhnaya,  
 J. Gonthier,  M. S. Gordon,  S. R. Gwaltney,  G. Hawkins,  J. E. Herr,  
 A. Heyden,  S. Hirata,  E. G. Hohenstein,  G. Kedziora,  F. J. Keil,  
 C. Kelley,  Jihan Kim,  R. A. King,  R. Z. Khaliullin,  P. P. Korambath,  
 W. Kurlancheek,  A. Laurent,  A. M. Lee,  M. S. Lee,  S. V. Levchenko,  
 Ching Yeh Lin,  D. Liotard,  E. Livshits,  R. C. Lochan,  I. Lotan,  
 L. A. Martinez-Martinez,  P. E. Maslen,  N. Nair,  D. P. O'Neill,  
 D. Neuhauser,  E. Neuscamman,  C. M. Oana,  R. Olivares-Amaya,  R. Olson,  
 T. M. Perrine,  B. Peters,  P. A. Pieniazek,  A. Prociuk,  Y. M. Rhee,  
 J. Ritchie,  M. A. Rohrdanz,  E. Rosta,  N. J. Russ,  H. F. Schaefer III,  
 M. W. Schmidt,  N. E. Schultz,  S. Sharma,  N. Shenvi,  C. D. Sherrill,  
 A. C. Simmonett,  A. Sodt,  T. Stein,  D. Stuck,  K. S. Thanthiriwatte,  
 V. Vanovschi,  L. Vogt,  Tao Wang,  A. Warshel,  M. A. Watson,  
 C. F. Williams,  Q. Wu,  X. Xu,  Jun Yang,  W. Zhang,  Yan Zhao

   Please cite Q-Chem as follows:
  "Software for the frontiers of quantum chemistry:
   An overview of developments in the Q-Chem 5 package"
   J. Chem. Phys. 155, 084801 (2021)
   https://doi.org/10.1063/5.0055522 (open access)

 Q-Chem 6.0.2 for Intel X86 EM64T Linux

 Parts of Q-Chem use Armadillo 9.900.5 (Nocturnal Misbehaviour).
 http://arma.sourceforge.net/

 Q-Chem begins on Tue Aug  6 14:42:23 2024  

 Host: 
0

     Scratch files written to ./qchem4046292//
 Dec722 |scratch|qcdevops|jenkins|workspace|build_RNUM    
 Processing $rem in /cm/shared/apps/spack/0.17.3/cpu/b/opt/spack/linux-rocky8-zen2/gcc-10.2.0/qchem-6.0-rytxnwjazd34ekd2gqyi5ufsaimxsd3r/config/preferences:
 Processing $rem in /home/hklem/.qchemrc:

 Checking the input file for inconsistencies... 	...done.

--------------------------------------------------------------
User input:
--------------------------------------------------------------

$molecule
-1 1
@C    3.47800    1.09100    -1.25300
@O    4.70500    1.23200    -1.42400
@C    2.85900    -0.20600   -1.16900
@C    1.51300    -0.36300   -1.26800
@C    0.57600    0.82300    -1.25600
@C    1.24100    2.03900    -0.61200
@C    2.60200    2.31700    -1.22700
@C    0.93800    -1.71600   -1.54100
@C    -0.49000   -1.95100   -1.04400
@C    -1.39000   -0.74800   -1.32900
@C    -0.77900   0.47500    -0.60700
@C    -2.83500   -0.96900   -0.89800
@C    -3.70500   0.29400    -1.03300
@C    -3.12700   1.38300    -0.13900
@C    -1.68900   1.71200    -0.54500
@C    -3.67700   -2.05400   -1.59100
@C    -5.14700   -1.63800   -1.29200
@C    -5.04200   -0.29100   -0.55700
@C    -3.82100   0.80100    -2.47900
@O    -6.19600   0.51700    -0.78200
@H    3.52100    -1.06700   -1.17900
@H    0.36700    1.04300    -2.31600
@H    1.34800    1.86400    0.46800
@H    0.61000    2.92400    -0.73000
@H    2.49000    2.64200    -2.27100
@H    3.13500    3.12200    -0.71200
@H    1.61600    -2.49800   -1.18100
@H    0.92800    -1.80900   -2.64000
@H    -0.48800   -2.14700   0.03600
@H    -0.88200   -2.85300   -1.52400
@H    -1.37600   -0.55100   -2.40800
@H    -0.58100   0.16300    0.43300
@H    -2.81500   -1.21300   0.17700
@H    -3.14800   1.04800    0.91000
@H    -3.73300   2.29600    -0.19400
@H    -1.68100   2.21500    -1.52000
@H    -1.27800   2.42400    0.18100
@H    -3.44300   -3.05900   -1.23600
@H    -3.49100   -2.04600   -2.67100
@H    -5.67800   -2.38100   -0.68900
@H    -5.70700   -1.49300   -2.22100
@H    -4.96600   -0.46800   0.52900
@H    -2.84400   1.01200    -2.91800
@H    -4.34000   0.09700    -3.13500
@H    -4.37900   1.74200    -2.49900
@H    -6.01900   1.38100    -0.38400
H    8.42100    7.38500    3.57500
C    7.77000    6.88500    2.84900
H    6.98900    7.59100    2.54500
C    8.55900    6.39800    1.63000
H    9.06200    7.25000    1.15800
H    9.35100    5.71600    1.96300
C    7.68200    5.70100    0.61700
C    7.14400    6.38900    -0.47300
H    7.37800    7.44400    -0.60600
C    6.32800    5.75600    -1.40100
H    5.92500    6.29100    -2.25500
C    6.02900    4.39800    -1.25800
O    5.26400    3.81400    -2.20400
H    5.14000    2.86600    -1.97700
C    6.53700    3.69900    -0.15700
H    6.30500    2.64500    -0.03600
C    7.35300    4.35300    0.75900
H    7.75200    3.79100    1.60100
H    7.27700    6.04600    3.35100
H    2.01900    8.18400    2.42700
C    1.47300    7.32200    2.02700
H    1.13700    7.57800    1.01500
C    2.35800    6.07000    1.99700
H    2.68600    5.86400    3.02500
C    1.57200    4.85400    1.50200
H    0.67900    4.67000    2.11100
H    1.24300    5.00500    0.46500
H    2.18900    3.94900    1.52600
C    3.60700    6.29200    1.13700
H    4.26700    5.41800    1.14400
H    4.19100    7.15000    1.49100
H    3.33000    6.48600    0.09300
H    0.58200    7.16500    2.64700
H    3.42400    -4.86600   -7.20800
C    2.99500    -3.89100   -6.94900
H    2.48600    -3.48900   -7.83000
C    2.02700    -4.01300   -5.77700
H    2.53600    -4.44600   -4.90400
H    1.21000    -4.70700   -6.00800
C    1.39100    -2.68600   -5.33200
O    0.48500    -2.78300   -4.43600
O    1.78600    -1.62600   -5.85300
H    3.80800    -3.20200   -6.70400
H    -4.12900   4.42800    -5.98400
C    -4.23300   3.74400    -5.13600
H    -3.27300   3.23700    -4.96700
H    -4.99000   2.99100    -5.35800
C    -4.62200   4.47000    -3.85300
O    -5.34400   3.95900    -2.99500
N    -4.10600   5.71800    -3.68300
H    -3.49600   6.07100    -4.40600
C    -4.25500   6.53200    -2.47600
H    -4.64000   5.87200    -1.69500
C    -2.92600   7.17200    -2.07800
H    -2.61300   7.86400    -2.87400
H    -3.10000   7.79300    -1.18800
C    -1.78500   6.18600    -1.79000
H    -1.63800   5.55900    -2.68000
C    -0.48700   6.95300    -1.52600
H    0.35200    6.26700    -1.36600
H    -0.22900   7.60900    -2.36500
H    -0.58200   7.57700    -0.62800
C    -2.11600   5.25900    -0.62000
H    -2.38100   5.83800    0.27400
H    -2.94700   4.58600    -0.85600
H    -1.25400   4.63400    -0.36600
H    -5.01000   7.31100    -2.64500
H    -6.87100   5.61400    2.60600
C    -5.98900   5.06000    2.94900
H    -6.33400   4.14700    3.44000
C    -5.04700   4.73200    1.78700
H    -4.66700   5.68100    1.38000
[...]
    3   2.8304627   1.8868702   1.4920331   2.1356448   0.0070537  -0.9045550
          139         140         141         142         143         144
    1   0.8555454   0.8034466   2.1162080   3.1541974   1.9794093   2.9560664
    2   0.7835839   0.9931286   0.1524412  -0.1372861  -0.2246588  -0.7785947
    3  -0.4677890  -1.6842849   0.5911539   0.3681680   1.7116397   2.2650719
          145         146         147         148         149         150
    1   1.1736364   0.9655124  -0.5698854  -1.1077203  -0.7078714  -2.0311041
    2  -2.3582672  -0.2280798   0.1381377   1.7458951   0.4392995   0.7576981
    3   1.1106817   2.9070271   2.3309801   2.6927650   0.6755634  -0.2899171
          151         152         153         154         155         156
    1   0.2581005   1.5081472  -0.5253183   0.3024867  -0.1991332   1.0542278
    2   1.3099409   0.9376890   2.4001922   1.1119425  -0.5108463  -0.7613512
    3   0.6554840   1.6672394   1.6647640  -1.3373417   0.2247521   1.4106999
          157         158         159         160         161         162
    1  -0.0921966  -1.4091562  -1.5382683  -1.9518082  -2.3046824  -2.5242376
    2   0.1815206  -1.4487877  -1.3208417  -0.9349617   0.2333864   1.7443276
    3  -1.7238895   0.7877419   2.2609723   2.2373879   0.7773720   1.1805292
          163         164         165         166         167         168
    1  -1.4115768  -0.3679512  -1.7464522  -1.1616892  -2.2896290   0.5193113
    2   1.0485302   1.5960630   1.7981262   0.2535155  -0.8977060   0.8001584
    3   0.5606282   2.4381377  -0.9110463  -0.5991443  -1.9256988  -0.7529217
          169         170         171         172         173         174
    1  -1.3317873  -0.8108524  -2.2167891   0.3706097  -0.7833581  -2.8634165
    2  -0.4060928  -1.2479850  -1.5953992   0.0189391  -2.0589641  -0.6249027
    3   1.5483341  -0.0374131  -1.4199808  -0.6242633   1.7626010  -0.9384762
          175         176         177         178         179         180
    1  -2.7229757  -1.1349962  -0.1323392  -1.7459563  -2.4011229  -2.3966875
    2  -1.2039759  -1.1596695  -2.6054810  -1.0702252   0.4073760  -2.6124070
    3   1.7148090   1.8773587   2.1660032   0.5298899  -0.1345538  -0.3666012
          181         182         183         184         185         186
    1  -0.4858153   0.4568313  -0.0708204  -0.1076552  -1.2009849   1.3297976
    2  -0.6861126   0.4200933  -2.1018215  -2.4489004  -3.1024054  -1.5263423
    3   0.9452560   2.1829490   1.0850773   2.7109581  -0.0909909   0.6834046
          187         188         189         190         191         192
    1  -0.8851253  -1.5337289  -2.1723371   0.7917028  -0.2016512  -0.9564063
    2  -0.1213532   1.3621351  -1.2478926  -0.0366831   0.3383668  -1.4519800
    3  -0.4651254  -0.4777103  -1.0758741  -0.6040096   2.5928776   2.5555747
          193         194         195         196         197         198
    1   0.5158380   0.3920216   0.7268758   0.9157027   1.6837042   1.5152508
    2  -2.0090748  -3.0278290  -0.7863831   0.0943373  -1.1425745   0.4906843
    3   1.5712625   0.1635518   1.0595531   2.2544303   0.0682960  -0.5396152
          199         200         201         202         203         204
    1   2.8134235   1.1776449  -0.2959922   0.1944237  -1.3456714  -0.1922422
    2  -1.8048314  -2.2849455  -0.2576399   1.3121579  -0.2103403  -1.3720199
    3   1.3748339  -1.1045487   0.0356197  -0.9007228   1.4451636  -0.9466373
          205         206         207         208         209         210
    1   1.9907713   2.1038033   1.9411039   0.4237601   2.3960001   3.5907783
    2  -2.1547197   0.2079513  -1.1888817  -2.1460006  -0.6193502   0.6782016
    3   2.2911783   2.1957805   0.7875270   0.7295781  -0.6000239  -0.5833970
          211         212         213         214         215         216
    1   1.8616737   1.8173862   0.2443152   1.4939583  -0.8908281   2.9693995
    2  -1.6304684  -0.1374612   0.1666187   0.9257760   2.1610391  -1.9461833
    3  -2.1525827  -0.3920517   1.0533090  -1.8341439  -1.0000891   0.2389788
          217         218         219         220         221         222
    1   1.8526998   1.5261753   2.7184552   0.7262479   0.3199706  -0.3224286
    2  -1.0669048  -1.4432375  -1.4149241  -0.1545084  -0.4009914  -0.1438094
    3  -2.6054276  -0.9654429   0.1307857  -0.8054000   0.8353382  -1.6357178
          223         224         225         226         227         228
    1   1.5720035   0.5246895   1.4462511   0.5093418   1.1502225   0.9067866
    2   1.1105912  -2.7623147  -2.3557999  -2.6759334  -3.0823409  -1.8790454
    3  -1.5145757  -0.4975291  -1.9182166  -0.2117544   1.1952183   0.6660672
          229         230         231         232         233         234
    1  -0.2864000   2.6446040   0.6275559   1.7228374   2.5652296   0.3609156
    2  -1.8760735  -1.3659538  -1.7578647  -0.7787268  -0.5547273   0.1126496
    3   2.1787921   0.5542825   0.0004253  -0.6251774  -0.6386580  -1.5500548
          235         236         237         238         239         240
    1   0.3024254  -0.8202322  -1.3405186  -1.3845779  -2.2893261  -3.1776555
    2   0.7646089  -0.5873087   0.1214706   1.0518157  -0.6840944  -0.3005344
    3  -1.9299264  -1.3251571  -1.8732739  -2.5661402  -1.3219625  -1.6548348
          241         242         243         244         245         246
    1  -2.1577136  -2.9611873  -0.9885420  -0.8280672  -0.4640089  -1.3767913
    2  -1.8967615  -2.4065210  -2.5064144  -3.4486753  -1.8108204  -2.9783862
    3  -0.3633288   0.1075672   0.2222781   1.1831488  -0.2994366  -0.4457579
          247         248         249         250         251         252
    1  -0.2324852  -1.5678834   1.5918715  -1.7740937  -0.4011375  -0.8562572
    2   0.8719921  -1.3552865   0.6503723  -0.1296011   1.5622272  -1.3230723
    3  -0.9198923  -0.3713060  -2.4911997  -0.8102319  -0.7456675   1.6273417
          253         254         255         256         257         258
    1  -0.2581774   0.2918940   2.3483917  -0.6591187  -3.0278819  -1.4699366
    2   0.5521047  -1.2266302   1.9009747  -0.6205669  -1.9671921   1.3131909
    3  -1.0017136  -1.6409406  -0.9050239  -1.2213086  -0.3822780  -0.5089576
 EField
            1           2           3           4           5           6
    1  -0.0246400  -0.0397628  -0.0149398  -0.0103654  -0.0069205  -0.0069152
    2  -0.0064179  -0.0036333  -0.0086577  -0.0054075  -0.0053162  -0.0041661
    3   0.0010338   0.0090978  -0.0043891  -0.0105601  -0.0127459  -0.0043007
            7           8           9          10          11          12
    1  -0.0139992  -0.0056510   0.0015875   0.0033785  -0.0001566   0.0039762
    2  -0.0001070  -0.0024785  -0.0033449  -0.0009320  -0.0021578  -0.0014390
    3  -0.0009152  -0.0141127  -0.0091112  -0.0091648  -0.0106166  -0.0070254
           13          14          15          16          17          18
    1   0.0067617   0.0027975   0.0006809   0.0052111   0.0073127   0.0085036
    2  -0.0008636  -0.0011109  -0.0027339  -0.0016304  -0.0018412  -0.0031209
    3  -0.0071709  -0.0067118  -0.0110652  -0.0055580  -0.0074860  -0.0032121
           19          20          21          22          23          24
    1   0.0086455   0.0118702  -0.0123231  -0.0092330  -0.0047852  -0.0035737
    2  -0.0008931  -0.0051244  -0.0114472  -0.0129337  -0.0016367  -0.0064779
    3  -0.0077976   0.0136329   0.0003472  -0.0166509  -0.0033540  -0.0033372
           25          26          27          28          29          30
    1  -0.0106534  -0.0114057  -0.0090920  -0.0089772   0.0009116   0.0036965
    2  -0.0010152   0.0065100  -0.0000976  -0.0050308  -0.0041278  -0.0019326
    3  -0.0025411   0.0007567  -0.0079413  -0.0228510  -0.0085338  -0.0065494
           31          32          33          34          35          36
    1   0.0058789   0.0001040   0.0024060   0.0023097   0.0023650   0.0015322
    2   0.0029608  -0.0017991  -0.0013023  -0.0002260  -0.0041498  -0.0061316
    3  -0.0049191  -0.0102386  -0.0085941  -0.0058058  -0.0056419  -0.0178506
           37          38          39          40          41          42
    1  -0.0008891   0.0066425   0.0024206   0.0070097   0.0115018   0.0052220
    2  -0.0049121  -0.0035840   0.0021137  -0.0011522  -0.0005582  -0.0012224
    3  -0.0081581  -0.0051230  -0.0036230  -0.0050339  -0.0133570  -0.0054475
           43          44          45          46          47          48
    1   0.0097556   0.0032620   0.0115686   0.0086715   0.0188762  -0.0007987
    2   0.0045191  -0.0082339   0.0033460   0.0051456   0.0156300   0.0000920
    3  -0.0049532  -0.0112301  -0.0054806   0.0059789   0.0229118  -0.0005897
           49          50          51          52          53          54
    1  -0.0246987   0.0003170   0.0171587   0.0258088  -0.0038583  -0.0014597
    2   0.0209569   0.0006428   0.0261916  -0.0193513  -0.0004038  -0.0070384
    3  -0.0081715   0.0000457  -0.0143677   0.0095176  -0.0021503   0.0023426
           55          56          57          58          59          60
    1   0.0077141   0.0025987  -0.0149685   0.0170243  -0.0484987  -0.0093256
    2   0.0367355   0.0018227   0.0204779   0.0232041   0.0624795  -0.0012062
    3  -0.0044285   0.0058293  -0.0301977   0.0211118  -0.0979834  -0.0066188
           61          62          63          64          65          66
    1   0.0055098  -0.0002570  -0.0013908   0.0148107  -0.0163841   0.0153148
    2   0.0146874  -0.0262270   0.0091642  -0.0171772  -0.0239943   0.0257664
    3   0.0062318   0.0173804  -0.0043353   0.0312256   0.0158661   0.0117148
           67          68          69          70          71          72
    1   0.0016591  -0.0110845  -0.0003002   0.0094105   0.0005428  -0.0285548
    2  -0.0038329   0.0074074  -0.0003380  -0.0069132   0.0018822  -0.0077359
    3  -0.0013369  -0.0306233  -0.0006334   0.0317336  -0.0003139   0.0169986
           73          74          75          76          77          78
    1  -0.0117226   0.0156294  -0.0032580   0.0199477   0.0181543  -0.0075450
    2   0.0016766  -0.0286875  -0.0013071  -0.0244195   0.0251683   0.0053591
    3  -0.0323066  -0.0006771   0.0010750  -0.0011399   0.0093771  -0.0325631
           79          80          81          82          83          84
    1  -0.0271985   0.0120872  -0.0023661  -0.0164127  -0.0038858   0.0122209
    2  -0.0047166  -0.0289285   0.0033911   0.0154787   0.0046984  -0.0125679
    3   0.0177725  -0.0078358   0.0016614  -0.0237808   0.0010800   0.0272424
           85          86          87          88          89          90
    1  -0.0268315   0.0007736  -0.0677637   0.0350604   0.0195796   0.0031800
    2  -0.0193112   0.0016805   0.0024331   0.0791812   0.0238562   0.0161665
    3  -0.0040514   0.0023655   0.0690098  -0.0440568   0.0076142  -0.0292573
           91          92          93          94          95          96
    1   0.0037679   0.0328670  -0.0205190  -0.0005645  -0.0598493  -0.0079780
    2  -0.0069887  -0.0209296  -0.0258374  -0.0125420  -0.0419847  -0.0036348
    3   0.0000370   0.0071472  -0.0068275  -0.0027814   0.0765808   0.0021474
           97          98          99         100         101         102
    1   0.0274576  -0.0018536  -0.0135453   0.0034161   0.0111811  -0.0039609
    2   0.0133797   0.0059320  -0.0240145  -0.0048280   0.0216896   0.0184738
    3  -0.0312441   0.0175896   0.0233061   0.0014950  -0.0217373   0.0265990
          103         104         105         106         107         108
    1   0.0003625   0.0039923  -0.0029685   0.0246312   0.0087927  -0.0014759
    2  -0.0032830  -0.0244007  -0.0034430  -0.0216192   0.0186548   0.0173189
    3  -0.0005398  -0.0265751  -0.0003636   0.0046776  -0.0247886   0.0268101
          109         110         111         112         113         114
    1   0.0008665  -0.0083090  -0.0243010   0.0257477  -0.0243287  -0.0259051
    2  -0.0017716   0.0144621  -0.0249721  -0.0232006   0.0210792   0.0158558
    3  -0.0026675   0.0280924  -0.0085016   0.0067493  -0.0055172  -0.0099379
          115         116         117         118         119         120
    1   0.0024621  -0.0105093   0.0005396   0.0121368  -0.0018957   0.0166116
    2  -0.0025948  -0.0275162  -0.0013113   0.0275514  -0.0000562   0.0139771
    3  -0.0029376   0.0145556  -0.0012091  -0.0131570  -0.0033578   0.0236063
          121         122         123         124         125         126
    1  -0.0083906   0.0218578   0.0035989  -0.0075629  -0.0253412   0.0171557
    2  -0.0309630  -0.0074659  -0.0020840  -0.0361171   0.0128689  -0.0096645
    3   0.0107352  -0.0250752  -0.0013233   0.0033262  -0.0113204  -0.0297489
          127         128         129         130         131         132
    1   0.0145714   0.0283791  -0.0001936  -0.0102933  -0.0016158  -0.0293540
    2   0.0175526   0.0157299  -0.0005564  -0.0072065  -0.0007105  -0.0163214
    3   0.0221422   0.0036931  -0.0012825   0.0299310   0.0004527   0.0005290
          133         134         135         136         137         138
    1  -0.0064851   0.0007921   0.0062584  -0.0342499   0.0039459  -0.0313712
    2   0.0295218   0.0001514  -0.0020774   0.0038333  -0.0043977   0.0109350
    3   0.0147058  -0.0080536  -0.0042722   0.0123443   0.0036728  -0.0237623
          139         140         141         142         143         144
    1  -0.0030309   0.0050234  -0.0080898   0.0314709  -0.0074057   0.0267250
    2  -0.0042319   0.0017321  -0.0014028  -0.0079917   0.0013717  -0.0131921
    3   0.0061681  -0.0330996   0.0019175  -0.0164196  -0.0057619   0.0208814
          145         146         147         148         149         150
    1   0.0059739   0.0270119   0.0000944  -0.0143584  -0.0000526  -0.0298111
    2  -0.0294087  -0.0074996   0.0004057   0.0261083  -0.0000594   0.0082112
    3  -0.0146948   0.0161009  -0.0040315   0.0138727  -0.0015240  -0.0164484
          151         152         153         154         155         156
    1  -0.0013890   0.0297366  -0.0129994   0.0052529  -0.0002379   0.0290316
    2  -0.0029701  -0.0035896   0.0285639   0.0052150   0.0016980  -0.0113170
    3  -0.0012556   0.0121852   0.0108244  -0.0349455  -0.0014807   0.0100698
          157         158         159         160         161         162
    1   0.0065417  -0.0191787  -0.0223830   0.0005324   0.0005877  -0.0171720
    2   0.0015153  -0.0268155  -0.0239138  -0.0224592  -0.0013803   0.0268145
    3  -0.0375655   0.0007580   0.0049501   0.0244797   0.0006676   0.0100434
          163         164         165         166         167         168
    1  -0.0004371   0.0174079  -0.0004816  -0.0010271  -0.0131955   0.0328427
    2   0.0031562   0.0147103   0.0253393   0.0095382  -0.0141161   0.0121570
    3   0.0006999   0.0248281  -0.0235022  -0.0087606  -0.0221470  -0.0126100
          169         170         171         172         173         174
    1  -0.0112796   0.0084128  -0.0172766   0.0304060   0.0101255  -0.0177129
    2   0.0024508  -0.0083288  -0.0137805   0.0133276  -0.0263474  -0.0134599
    3   0.0418331  -0.0081551  -0.0252037  -0.0140974   0.0192882  -0.0227035
          175         176         177         178         179         180
    1  -0.0311672   0.0014245   0.0150680   0.0042035  -0.0156634  -0.0133609
    2  -0.0025194   0.0003421  -0.0265370   0.0009184   0.0258252  -0.0244635
    3   0.0081332  -0.0032251   0.0104328  -0.0040401  -0.0133907  -0.0184178
          181         182         183         184         185         186
    1   0.0000087   0.0166307  -0.0007088   0.0009974  -0.0122344   0.0305254
    2   0.0011859   0.0225759   0.0037017  -0.0125907  -0.0207007   0.0050664
    3  -0.0020997   0.0182408  -0.0031841   0.0293792  -0.0226477  -0.0112443
          187         188         189         190         191         192
    1   0.0009310  -0.0106284  -0.0146556   0.0313089   0.0136095  -0.0270903
    2  -0.0008398   0.0327041  -0.0166300   0.0030616   0.0252352   0.0023744
    3  -0.0032432  -0.0068096  -0.0272181  -0.0179496   0.0161083   0.0180745
          193         194         195         196         197         198
    1  -0.0005273  -0.0068734  -0.0013614   0.0051904  -0.0053082   0.0065893
    2   0.0038496  -0.0236320   0.0023541   0.0254549   0.0020651   0.0288377
    3  -0.0041492  -0.0226588   0.0002237   0.0226246   0.0003983  -0.0131447
          199         200         201         202         203         204
    1   0.0250873  -0.0070931   0.0006599   0.0028433  -0.0288791  -0.0100281
    2  -0.0102378  -0.0208412  -0.0010741   0.0294547   0.0049210  -0.0188811
    3   0.0165353  -0.0262903  -0.0023058  -0.0179356   0.0155081  -0.0288038
          205         206         207         208         209         210
    1   0.0243466   0.0018738  -0.0022151  -0.0299161   0.0032147   0.0313212
    2  -0.0093599   0.0151224  -0.0033740  -0.0186800  -0.0064602   0.0146061
    3   0.0179140   0.0293193   0.0033242   0.0062990   0.0016411  -0.0044415
          211         212         213         214         215         216
    1  -0.0015301   0.0044501  -0.0753425   0.0779350  -0.0047650   0.0256453
    2  -0.0221308  -0.0239074  -0.0081271  -0.0108984  -0.0115238  -0.0234700
    3  -0.0283013   0.0180265   0.0851369  -0.0832914   0.0004582  -0.0006985
          217         218         219         220         221         222
    1   0.0074517  -0.0029156   0.0246439  -0.0063092  -0.0149874  -0.0333744
    2  -0.0017379  -0.0010368  -0.0036899   0.0006140   0.0027581   0.0039816
    3  -0.0322362  -0.0006763   0.0183254   0.0004975   0.0321860  -0.0178637
          223         224         225         226         227         228
    1   0.0097210  -0.0187907   0.0150866  -0.0005720   0.0131230  -0.0005983
    2   0.0238513  -0.0281133  -0.0019037   0.0027185  -0.0194208   0.0006117
    3  -0.0078912   0.0048354  -0.0290871  -0.0014120   0.0214371   0.0009671
          229         230         231         232         233         234
    1  -0.0154331   0.0300678   0.0001568  -0.0015706   0.0347744   0.0015166
    2   0.0044914   0.0110781   0.0068018  -0.0106810   0.0132337   0.0173655
    3   0.0287421   0.0062774  -0.0045764   0.0130795   0.0003659  -0.0086744
          235         236         237         238         239         240
    1   0.0034655  -0.0145452  -0.0030556  -0.0008348   0.0098522  -0.0314452
    2   0.0419450  -0.0039519  -0.0010448   0.0320403   0.0020381   0.0107907
    3  -0.0269057   0.0062113   0.0055598  -0.0226793   0.0032167  -0.0134109
          241         242         243         244         245         246
    1   0.0096853  -0.0293651  -0.0041918   0.0020616  -0.0006814  -0.0308160
    2   0.0064905  -0.0176747   0.0089935  -0.0260503   0.0036264  -0.0089413
    3  -0.0008326   0.0096042  -0.0060805   0.0235955  -0.0000404  -0.0071362
          247         248         249         250         251         252
    1  -0.0230377  -0.0117892   0.0320086  -0.0772976   0.0328991   0.0060290
    2   0.0820187  -0.0475512  -0.0179323  -0.0174647   0.0476491  -0.0075819
    3   0.0383930   0.0198327  -0.0212803  -0.0796604  -0.0026798   0.0147632
          253         254         255         256         257         258
    1  -0.1041135   0.0150421   0.0402940   0.1053858  -0.0322925  -0.0056896
    2   0.0186155  -0.0504375   0.0221809  -0.0242950  -0.0330518   0.0414889
    3   0.0205231  -0.0021313   0.0087792  -0.0528330   0.0085448   0.0124382
  --- DONE ESP SUMMARY ---
 Total job time:  11.20s(wall), 41.79s(cpu) 
 Tue Aug  6 14:42:34 2024

        *************************************************************
        *                                                           *
        *  Thank you very much for using Q-Chem.  Have a nice day.  *
        *                                                           *
        *************************************************************


