
Running Job 1 of 2 19nt_mm_min_distance_cutoff3_nowat_xtb_optimized_spade_wb97x-v_631gd.in
qchem 19nt_mm_min_distance_cutoff3_nowat_xtb_optimized_spade_wb97x-v_631gd.in_3932830.0 ./qchem3932830/ 1
srun -n 1 /cm/shared/apps/spack/0.17.3/cpu/b/opt/spack/linux-rocky8-zen2/gcc-10.2.0/qchem-6.0-rytxnwjazd34ekd2gqyi5ufsaimxsd3r/exe/qcprog.exe 19nt_mm_min_distance_cutoff3_nowat_xtb_optimized_spade_wb97x-v_631gd.in_3932830.0 ./qchem3932830/

                  Welcome to Q-Chem
     A Quantum Leap Into The Future Of Chemistry


 Q-Chem 6.0, Q-Chem, Inc., Pleasanton, CA (2022)

 License issued to: University of California, San Diego (site)

 E. Epifanovsky,  A. T. B. Gilbert,  Xintian Feng,  Joonho Lee,  Yuezhi Mao,  
 N. Mardirossian,  P. Pokhilko,  A. White,  M. Wormit,  M. P. Coons,  
 A. L. Dempwolff,  Zhengting Gan,  D. Hait,  P. R. Horn,  L. D. Jacobson,  
 I. Kaliman,  J. Kussmann,  A. W. Lange,  Ka Un Lao,  D. S. Levine,  Jie Liu,  
 S. C. McKenzie,  A. F. Morrison,  K. Nanda,  F. Plasser,  D. R. Rehn,  
 M. L. Vidal,  Zhi-Qiang You,  Ying Zhu,  B. Alam,  B. Albrecht,  
 A. Aldossary,  E. Alguire,  J. H. Andersen,  V. Athavale,  D. Barton,  
 K. Begam,  A. Behn,  N. Bellonzi,  Y. A. Bernard,  E. J. Berquist,  
 H. Burton,  A. Carreras,  K. Carter-Fenk,  Romit Chakraborty,  
 Chandrima Chakravarty,  Junhan Chen,  A. D. Chien,  K. D. Closser,  
 V. Cofer-Shabica,  L. Cunha,  S. Dasgupta,  Jia Deng,  M. de Wergifosse,  
 M. Diedenhofen,  Hainam Do,  S. Ehlert,  Po-Tung Fang,  S. Fatehi,  
 Qingguo Feng,  T. Friedhoff,  B. Ganoe,  J. Gayvert,  Qinghui Ge,  
 G. Gidofalvi,  M. Goldey,  J. Gomes,  C. Gonzalez-Espinoza,  S. Gulania,  
 A. Gunina,  J. A. Gyamfi,  M. W. D. Hanson-Heine,  P. H. P. Harbach,  
 A. W. Hauser,  M. F. Herbst,  M. Hernandez Vera,  M. Hodecker,  
 Z. C. Holden,  S. Houck,  Xunkun Huang,  Kerwin Hui,  B. C. Huynh,  
 K. Ikeda,  M. Ivanov,  Hyunjun Ji,  Zuxin Jin,  Hanjie Jiang,  B. Kaduk,  
 S. Kaehler,  R. Kang,  K. Khistyaev,  Jaehoon Kim,  Yongbin Kim,  
 P. Klunzinger,  Z. Koczor-Benda,  Joong Hoon Koh,  D. Kosenkov,  
 Saikiran Kotaru,  L. Koulias,  T. Kowalczyk,  C. M. Krauter,  K. Kue,  
 A. Kunitsa,  T. Kus,  A. Landau,  K. V. Lawler,  D. Lefrancois,  S. Lehtola,  
 Rain Li,  Shaozhi Li,  Yi-Pei Li,  Jiashu Liang,  M. Liebenthal,  
 Hung-Hsuan Lin,  You-Sheng Lin,  Fenglai Liu,  Kuan-Yu Liu,  
 M. Loipersberger,  A. Luenser,  C. Malbon,  A. Manjanath,  P. Manohar,  
 E. Mansoor,  S. F. Manzer,  Shan-Ping Mao,  A. V. Marenich,  T. Markovich,  
 S. Mason,  F. Matz,  S. A. Maurer,  P. F. McLaughlin,  M. F. S. J. Menger,  
 J.-M. Mewes,  S. A. Mewes,  P. Morgante,  Mohammad Mostafanejad,  
 J. W. Mullinax,  K. J. Oosterbaan,  G. Paran,  V. Parravicini,  
 Alexander C. Paul,  Suranjan K. Paul,  F. Pavosevic,  Zheng Pei,  S. Prager,  
 E. I. Proynov,  E. Ramos,  B. Rana,  A. E. Rask,  A. Rettig,  R. M. Richard,  
 F. Rob,  E. Rossomme,  T. Scheele,  M. Scheurer,  M. Schneider,  
 P. E. Schneider,  N. Sergueev,  S. M. Sharada,  Hengyuan Shen,  
 W. Skomorowski,  D. W. Small,  C. J. Stein,  Yingli Su,  Yu-Chuan Su,  
 E. J. Sundstrom,  Zhen Tao,  J. Thirman,  Hung-Yi Tsai,  T. Tsuchimochi,  
 N. M. Tubman,  C. Utku,  S. P. Veccham,  O. Vydrov,  J. Wenzel,  
 Jonathan Wong,  J. Witte,  A. Yamada,  Chou-Hsun Yang,  Kun Yao,  
 S. Yeganeh,  S. R. Yost,  A. Zech,  F. Zeller,  Igor Ying Zhang,  
 Xing Zhang,  Yu Zhang,  D. Zuev,  A. Aspuru-Guzik,  A. T. Bell,  
 N. A. Besley,  K. B. Bravaya,  B. R. Brooks,  D. Casanova,  Jeng-Da Chai,  
 Hsing-Ta Chen,  S. Coriani,  C. J. Cramer,  A. E. DePrince, III,  
 R. A. DiStasio Jr.,  A. Dreuw,  B. D. Dunietz,  T. R. Furlani,  
 W. A. Goddard III,  S. Grimme,  S. Hammes-Schiffer,  T. Head-Gordon,  
 W. J. Hehre,  Chao-Ping Hsu,  T.-C. Jagau,  Yousung Jung,  A. Klamt,  
 Jing Kong,  D. S. Lambrecht,  Xiangyuan Li,  WanZhen Liang,  N. J. Mayhall,  
 C. W. McCurdy,  J. B. Neaton,  T. Neudecker,  C. Ochsenfeld,  
 J. A. Parkhill,  R. Peverati,  V. A. Rassolov,  Haisheng Ren,  Yihan Shao,  
 L. V. Slipchenko,  R. P. Steele,  J. E. Subotnik,  A. J. W. Thom,  
 A. Tkatchenko,  D. G. Truhlar,  T. Van Voorhis,  Fan Wang,  
 T. A. Wesolowski,  K. B. Whaley,  H. L. Woodcock III,  P. M. Zimmerman,  
 S. Faraji,  P. M. W. Gill,  M. Head-Gordon,  J. M. Herbert,  A. I. Krylov

 Contributors to earlier versions of Q-Chem not listed above: 
 R. D. Adamson,  B. Austin,  R. Baer,  J. Baker,  G. J. O. Beran,  
 K. Brandhorst,  S. T. Brown,  E. F. C. Byrd,  Arup K. Chakraborty,  
 G. K. L. Chan,  Chun-Min Chang,  Yunqing Chen,  C.-L. Cheng,  
 Siu Hung Chien,  D. M. Chipman,  D. L. Crittenden,  H. Dachsel,  
 R. J. Doerksen,  A. D. Dutoi,  R. G. Edgar,  J. Fosso-Tande,  
 L. Fusti-Molnar,  D. Ghosh,  A. Ghysels,  A. Golubeva-Zadorozhnaya,  
 J. Gonthier,  M. S. Gordon,  S. R. Gwaltney,  G. Hawkins,  J. E. Herr,  
 A. Heyden,  S. Hirata,  E. G. Hohenstein,  G. Kedziora,  F. J. Keil,  
 C. Kelley,  Jihan Kim,  R. A. King,  R. Z. Khaliullin,  P. P. Korambath,  
 W. Kurlancheek,  A. Laurent,  A. M. Lee,  M. S. Lee,  S. V. Levchenko,  
 Ching Yeh Lin,  D. Liotard,  E. Livshits,  R. C. Lochan,  I. Lotan,  
 L. A. Martinez-Martinez,  P. E. Maslen,  N. Nair,  D. P. O'Neill,  
 D. Neuhauser,  E. Neuscamman,  C. M. Oana,  R. Olivares-Amaya,  R. Olson,  
 T. M. Perrine,  B. Peters,  P. A. Pieniazek,  A. Prociuk,  Y. M. Rhee,  
 J. Ritchie,  M. A. Rohrdanz,  E. Rosta,  N. J. Russ,  H. F. Schaefer III,  
 M. W. Schmidt,  N. E. Schultz,  S. Sharma,  N. Shenvi,  C. D. Sherrill,  
 A. C. Simmonett,  A. Sodt,  T. Stein,  D. Stuck,  K. S. Thanthiriwatte,  
 V. Vanovschi,  L. Vogt,  Tao Wang,  A. Warshel,  M. A. Watson,  
 C. F. Williams,  Q. Wu,  X. Xu,  Jun Yang,  W. Zhang,  Yan Zhao

   Please cite Q-Chem as follows:
  "Software for the frontiers of quantum chemistry:
   An overview of developments in the Q-Chem 5 package"
   J. Chem. Phys. 155, 084801 (2021)
   https://doi.org/10.1063/5.0055522 (open access)

 Q-Chem 6.0.2 for Intel X86 EM64T Linux

 Parts of Q-Chem use Armadillo 9.900.5 (Nocturnal Misbehaviour).
 http://arma.sourceforge.net/

 Q-Chem begins on Fri Aug  9 13:54:15 2024  

 Host: 
0

     Scratch files written to ./qchem3932830//
 Dec722 |scratch|qcdevops|jenkins|workspace|build_RNUM    
 Processing $rem in /cm/shared/apps/spack/0.17.3/cpu/b/opt/spack/linux-rocky8-zen2/gcc-10.2.0/qchem-6.0-rytxnwjazd34ekd2gqyi5ufsaimxsd3r/config/preferences:
 Processing $rem in /home/hklem/.qchemrc:
 No nuclear gradient supported for projection-based embedding or EMFT. Set max ideriv = 0.

 Checking the input file for inconsistencies... 	...done.

--------------------------------------------------------------
User input:
--------------------------------------------------------------
$molecule
-1 1
--
0 1
C    2.07700    1.89200    -9.41100
O    2.10000    0.71000    -9.00500
C    2.44900    2.99200    -8.59800
C    2.40700    4.28400    -9.02500
C    2.08400    4.64600    -10.42700
C    2.27100    3.44200    -11.35300
C    1.56900    2.21800    -10.78700
C    2.53700    5.38600    -8.04900
C    3.34500    6.56900    -8.57200
C    2.76100    7.02400    -9.90400
C    2.85800    5.88300    -10.92900
C    3.48600    8.23300    -10.47900
C    2.83100    8.73100    -11.77600
C    2.95200    7.62200    -12.81600
C    2.32500    6.32200    -12.30100
C    3.61800    9.49400    -9.62500
C    3.90200    10.60900   -10.64700
C    3.68400    9.99200    -12.05200
C    1.36400    9.13900    -11.60600
O    3.15700    10.90200   -12.98300
H    2.71400    2.77600    -7.57100
H    1.00700    4.93900    -10.41600
H    3.34100    3.23200    -11.46300
H    1.86300    3.65500    -12.34100
H    0.50100    2.44000    -10.68100
H    1.67000    1.35400    -11.44600
H    2.93100    5.02400    -7.09800
H    1.49800    5.72200    -7.89000
H    4.39300    6.27800    -8.69900
H    3.30400    7.38400    -7.84800
H    1.71000    7.26200    -9.73700
H    3.91800    5.61100    -11.03700
H    4.50300    7.91000    -10.74300
H    4.00800    7.44900    -13.04000
H    2.46700    7.91600    -13.74900
H    1.24300    6.42800    -12.22800
H    2.53400    5.54400    -13.03800
H    4.42300    9.40900    -8.89900
H    2.69600    9.68400    -9.07900
H    4.91600    10.99600   -10.55200
H    3.22000    11.45100   -10.51000
H    4.64400    9.69000    -12.48500
H    1.26000    9.94600    -10.88500
H    0.96100    9.46200    -12.56700
H    0.75900    8.30600    -11.26600
H    2.28300    11.16300   -12.66900
--
-1 1
H    6.35300    -6.84400   -9.63700
C    5.85000    -5.91600   -9.90300
H    6.00000    -5.73100   -10.96500
C    4.35600    -5.99800   -9.58800
H    3.91200    -6.82100   -10.15400
H    4.22300    -6.20600   -8.52400
C    3.67700    -4.70500   -9.94400
C    3.12000    -4.51200   -11.20100
H    3.14200    -5.31900   -11.92200
C    2.53400    -3.31100   -11.54500
H    2.09600    -3.16400   -12.52000
C    2.49300    -2.26300   -10.62700
O    1.90300    -1.10800   -10.98700
H    1.93800    -0.46800   -10.23000
C    3.06100    -2.44600   -9.36800
H    3.03400    -1.63500   -8.65500
C    3.64400    -3.65300   -9.03900
H    4.07800    -3.78100   -8.05700
H    6.30700    -5.10100   -9.34800
H    8.43400    -1.89900   -13.92300
C    7.55900    -1.25300   -13.88400
H    6.91600    -1.49500   -14.72900
C    6.80100    -1.44900   -12.57100
H    7.47400    -1.19900   -11.74300
C    5.58700    -0.52700   -12.50300
H    5.88700    0.51400    -12.60600
H    4.88600    -0.76800   -13.29900
H    5.07200    -0.64600   -11.55300
C    6.36100    -2.90300   -12.41500
H    5.81800    -3.03800   -11.48400
H    7.22200    -3.56900   -12.41700
H    5.70300    -3.18700   -13.23300
H    7.88800    -0.22100   -13.98500
H    -4.29400   6.72700    -7.94100
C    -3.34000   6.20800    -8.03900
H    -3.53500   5.15200    -8.22400
C    -2.51100   6.80000    -9.17300
H    -2.38500   7.87600    -9.01000
H    -3.00100   6.65100    -10.13800
C    -1.08700   6.18000    -9.24900
O    -0.43800   6.13900    -8.17900
O    -0.69000   5.80100    -10.35800
H    -2.79300   6.29400    -7.10200
H    2.03200    6.58800    -17.92300
C    2.51500    6.61100    -16.94900
H    1.96500    5.97400    -16.25900
H    2.52400    7.62200    -16.55600
C    3.96300    6.11100    -17.03100
O    4.85100    6.59000    -16.35700
N    4.19800    5.10300    -17.91300
H    3.41600    4.68900    -18.39600
C    5.47900    4.40800    -18.04900
H    6.19800    4.97300    -17.45800
C    5.39100    2.95800    -17.56900
H    4.75000    2.39700    -18.25500
H    6.39100    2.52200    -17.61900
C    4.83900    2.80200    -16.14600
H    3.84300    3.25500    -16.10800
C    4.70200    1.31800    -15.80900
H    4.24300    1.19500    -14.83100
H    4.08400    0.80600    -16.54400
H    5.68000    0.84200    -15.79000
C    5.71900    3.49700    -15.11000
H    6.74300    3.13500    -15.17300
H    5.71400    4.57300    -15.25500
H    5.34400    3.29300    -14.11000
H    5.78100    4.43500    -19.10100
H    11.00200   5.55900    -16.82800
C    10.75600   5.66500    -15.77300
H    11.10400   6.63600    -15.43600
C    9.24700    5.52900    -15.55800
H    8.93800    4.53600    -15.90700
C    8.90300    5.64600    -14.07600
H    9.41800    4.88200    -13.49800
H    9.19600    6.62000    -13.69500
H    7.83300    5.52700    -13.92500
C    8.48900    6.57900    -16.36600
H    8.80500    7.58000    -16.08000
H    8.67600    6.45500    -17.43200
H    7.41800    6.51000    -16.19100
H    11.29100   4.89600    -15.21900
H    8.86600    2.73500    -2.93500
C    9.70900    2.18100    -3.34200
H    10.41800   1.98500    -2.54000
C    9.22800    0.87100    -3.96900
H    10.08900   0.32600    -4.36600
H    8.76300    0.25400    -3.19700
C    8.23900    1.13000    -5.07300
C    8.67400    1.35700    -6.37200
H    9.73400    1.32800    -6.59100
C    7.76800    1.60900    -7.38700
H    8.12300    1.77500    -8.39500
C    6.41100    1.64200    -7.11500
H    5.70200    1.83500    -7.90500
C    5.96500    1.42500    -5.82200
H    4.90800    1.45300    -5.60500
C    6.87600    1.17300    -4.81100
H    6.52300    0.99900    -3.80300
H    10.19300   2.80300    -4.09200
H    10.15900   5.42900    -8.19100
C    10.33600   5.91300    -9.15000
H    11.03700   5.30500    -9.71900
C    9.02100    6.07200    -9.91100
H    9.23400    6.56900    -10.86500
C    8.39500    4.71000    -10.19700
H    8.14900    4.20700    -9.26300
H    9.08100    4.08000    -10.76000
H    7.48200    4.82100    -10.77600
C    8.04900    6.94000    -9.11700
H    7.80100    6.46100    -8.17200
H    7.12600    7.09200    -9.67200
H    8.49200    7.91100    -8.90800
H    10.79100   6.88400    -8.97100
H    12.23700   10.38100   -13.36300
C    11.89700   10.11400   -14.36100
H    12.70700   9.61000    -14.88300
C    10.67900   9.20700    -14.27100
H    10.95700   8.28400    -13.75700
H    10.34500   8.95400    -15.28100
C    9.51000    9.84000    -13.53300
H    9.28800    10.83300   -13.92700
H    8.62200    9.21200    -13.61700
S    9.85600    10.01100   -11.74100
C    8.15500    10.27900   -11.17100
H    7.72800    11.13200   -11.69100
H    7.56300    9.38600    -11.35100
H    8.20700    10.48100   -10.10600
H    11.65400   11.02800   -14.89900
H    9.77100    10.87600   -7.05100
C    9.25100    10.26300   -6.31700
H    9.40100    10.70800   -5.33700
C    7.76900    10.16600   -6.66000
H    7.67000    9.77400    -7.67400
H    7.32300    11.16400   -6.64800
C    6.98400    9.25200    -5.71200
H    7.54300    8.31800    -5.59100
C    6.80200    9.89200    -4.33800
H    7.76200    10.10600   -3.87300
H    6.24600    10.82300   -4.42600
H    6.25200    9.22300    -3.68100
C    5.62500    8.92200    -6.32400
H    5.75400    8.40100    -7.27000
H    5.05200    9.83000    -6.50300
H    5.04500    8.28500    -5.66200
H    9.70400    9.27300    -6.31800
H    6.82600    6.08900    -3.27200
C    5.74900    5.93400    -3.25100
H    5.26500    6.84800    -3.58900
C    5.35300    4.76700    -4.15600
H    5.84400    3.85800    -3.78900
C    3.84200    4.55100    -4.11800
H    3.56300    3.67600    -4.70000
H    3.50200    4.40300    -3.09400
H    3.33000    5.41900    -4.52800
C    5.82000    5.01900    -5.58600
H    5.56400    4.17600    -6.22200
H    6.90000    5.15400    -5.61800
H    5.34700    5.91300    -5.98800
H    5.44800    5.74600    -2.22200
H    2.80500    0.25900    -2.90100
C    1.81300    0.69700    -2.98200
H    1.92300    1.77800    -3.01800
C    1.12000    0.20800    -4.24700
H    1.04000    -0.88000   -4.26600
H    0.10600    0.61300    -4.30500
C    1.82700    0.65000    -5.51600
O    2.67300    1.51000    -5.55700
O    1.39000    -0.01400   -6.56500
H    1.77200    0.31200    -7.43800
H    1.23500    0.42600    -2.10200
H    -1.49200   4.66800    -4.41300
C    -0.54100   4.14800    -4.51200
H    -0.53500   3.31200    -3.81300
C    -0.33800   3.66500    -5.94100
H    0.63200    3.18800    -6.04600
H    -0.38600   4.49600    -6.64100
H    -1.10600   2.94400    -6.21500
H    0.25400    4.83200    -4.22500
H    1.19800    8.92200    -2.52400
C    2.01400    9.60800    -2.74100
H    2.63000    9.71000    -1.84900
C    2.84100    9.08900    -3.91700
H    3.66800    9.77800    -4.10300
H    3.25700    8.11300    -3.65400
C    2.00600    8.95900    -5.14900
C    1.32900    7.84800    -5.57100
H    1.31000    6.86500    -5.14000
N    0.60800    8.11300    -6.69300
H    0.08900    7.40900    -7.23800
C    0.81200    9.40900    -7.03800
C    0.30100    10.14800   -8.09900
H    -0.36900   9.69200    -8.81300
C    0.68300    11.46800   -8.20700
H    0.30400    12.07300   -9.02000
C    1.55600    12.04900   -7.28000
H    1.83400    13.08700   -7.40400
C    2.06100    11.32700   -6.22200
H    2.73100    11.79000   -5.51000
C    1.69100    9.99000    -6.08200
H    1.58600    10.57900   -2.98300
$end

$rem
JOBTYPE  SP
METHOD  WB97X-V
BASIS  6-31G(D)
SYMMETRY  FALSE
SYM_IGNORE  TRUE
MEM_TOTAL  64000
MEM_STATIC  4000
BASIS_LIN_DEP_THRESH  6
THRESH  14
SCF_CONVERGENCE  8
FD_MAT_VEC_PROD  FALSE
XC_GRID  000075000302
NL_GRID  1
MAX_SCF_CYCLES  200
ENV_METHOD  WB97X-V
GEN_SCFMAN_EMBED  TRUE
SPADE_PARTITION  TRUE
EMBEDDING_EARLY_STOP  TRUE
$end

--------------------------------------------------------------
 ----------------------------------------------------------------
             Standard Nuclear Orientation (Angstroms)
    I     Atom           X                Y                Z
 ----------------------------------------------------------------
    1      C       2.0770000000     1.8920000000    -9.4110000000
    2      O       2.1000000000     0.7100000000    -9.0050000000
    3      C       2.4490000000     2.9920000000    -8.5980000000
    4      C       2.4070000000     4.2840000000    -9.0250000000
    5      C       2.0840000000     4.6460000000   -10.4270000000
    6      C       2.2710000000     3.4420000000   -11.3530000000
    7      C       1.5690000000     2.2180000000   -10.7870000000
    8      C       2.5370000000     5.3860000000    -8.0490000000
    9      C       3.3450000000     6.5690000000    -8.5720000000
   10      C       2.7610000000     7.0240000000    -9.9040000000
   11      C       2.8580000000     5.8830000000   -10.9290000000
   12      C       3.4860000000     8.2330000000   -10.4790000000
   13      C       2.8310000000     8.7310000000   -11.7760000000
   14      C       2.9520000000     7.6220000000   -12.8160000000
   15      C       2.3250000000     6.3220000000   -12.3010000000
   16      C       3.6180000000     9.4940000000    -9.6250000000
   17      C       3.9020000000    10.6090000000   -10.6470000000
   18      C       3.6840000000     9.9920000000   -12.0520000000
   19      C       1.3640000000     9.1390000000   -11.6060000000
   20      O       3.1570000000    10.9020000000   -12.9830000000
   21      H       2.7140000000     2.7760000000    -7.5710000000
   22      H       1.0070000000     4.9390000000   -10.4160000000
   23      H       3.3410000000     3.2320000000   -11.4630000000
   24      H       1.8630000000     3.6550000000   -12.3410000000
   25      H       0.5010000000     2.4400000000   -10.6810000000
   26      H       1.6700000000     1.3540000000   -11.4460000000
   27      H       2.9310000000     5.0240000000    -7.0980000000
   28      H       1.4980000000     5.7220000000    -7.8900000000
   29      H       4.3930000000     6.2780000000    -8.6990000000
   30      H       3.3040000000     7.3840000000    -7.8480000000
   31      H       1.7100000000     7.2620000000    -9.7370000000
   32      H       3.9180000000     5.6110000000   -11.0370000000
   33      H       4.5030000000     7.9100000000   -10.7430000000
   34      H       4.0080000000     7.4490000000   -13.0400000000
   35      H       2.4670000000     7.9160000000   -13.7490000000
   36      H       1.2430000000     6.4280000000   -12.2280000000
   37      H       2.5340000000     5.5440000000   -13.0380000000
   38      H       4.4230000000     9.4090000000    -8.8990000000
   39      H       2.6960000000     9.6840000000    -9.0790000000
   40      H       4.9160000000    10.9960000000   -10.5520000000
   41      H       3.2200000000    11.4510000000   -10.5100000000
   42      H       4.6440000000     9.6900000000   -12.4850000000
   43      H       1.2600000000     9.9460000000   -10.8850000000
   44      H       0.9610000000     9.4620000000   -12.5670000000
   45      H       0.7590000000     8.3060000000   -11.2660000000
   46      H       2.2830000000    11.1630000000   -12.6690000000
   47      H       6.3530000000    -6.8440000000    -9.6370000000
   48      C       5.8500000000    -5.9160000000    -9.9030000000
   49      H       6.0000000000    -5.7310000000   -10.9650000000
   50      C       4.3560000000    -5.9980000000    -9.5880000000
   51      H       3.9120000000    -6.8210000000   -10.1540000000
   52      H       4.2230000000    -6.2060000000    -8.5240000000
   53      C       3.6770000000    -4.7050000000    -9.9440000000
   54      C       3.1200000000    -4.5120000000   -11.2010000000
   55      H       3.1420000000    -5.3190000000   -11.9220000000
   56      C       2.5340000000    -3.3110000000   -11.5450000000
   57      H       2.0960000000    -3.1640000000   -12.5200000000
   58      C       2.4930000000    -2.2630000000   -10.6270000000
   59      O       1.9030000000    -1.1080000000   -10.9870000000
   60      H       1.9380000000    -0.4680000000   -10.2300000000
   61      C       3.0610000000    -2.4460000000    -9.3680000000
   62      H       3.0340000000    -1.6350000000    -8.6550000000
   63      C       3.6440000000    -3.6530000000    -9.0390000000
   64      H       4.0780000000    -3.7810000000    -8.0570000000
   65      H       6.3070000000    -5.1010000000    -9.3480000000
   66      H       8.4340000000    -1.8990000000   -13.9230000000
   67      C       7.5590000000    -1.2530000000   -13.8840000000
   68      H       6.9160000000    -1.4950000000   -14.7290000000
   69      C       6.8010000000    -1.4490000000   -12.5710000000
   70      H       7.4740000000    -1.1990000000   -11.7430000000
   71      C       5.5870000000    -0.5270000000   -12.5030000000
   72      H       5.8870000000     0.5140000000   -12.6060000000
   73      H       4.8860000000    -0.7680000000   -13.2990000000
   74      H       5.0720000000    -0.6460000000   -11.5530000000
   75      C       6.3610000000    -2.9030000000   -12.4150000000
   76      H       5.8180000000    -3.0380000000   -11.4840000000
   77      H       7.2220000000    -3.5690000000   -12.4170000000
   78      H       5.7030000000    -3.1870000000   -13.2330000000
   79      H       7.8880000000    -0.2210000000   -13.9850000000
   80      H      -4.2940000000     6.7270000000    -7.9410000000
   81      C      -3.3400000000     6.2080000000    -8.0390000000
   82      H      -3.5350000000     5.1520000000    -8.2240000000
   83      C      -2.5110000000     6.8000000000    -9.1730000000
   84      H      -2.3850000000     7.8760000000    -9.0100000000
   85      H      -3.0010000000     6.6510000000   -10.1380000000
   86      C      -1.0870000000     6.1800000000    -9.2490000000
   87      O      -0.4380000000     6.1390000000    -8.1790000000
   88      O      -0.6900000000     5.8010000000   -10.3580000000
   89      H      -2.7930000000     6.2940000000    -7.1020000000
   90      H       2.0320000000     6.5880000000   -17.9230000000
   91      C       2.5150000000     6.6110000000   -16.9490000000
   92      H       1.9650000000     5.9740000000   -16.2590000000
   93      H       2.5240000000     7.6220000000   -16.5560000000
   94      C       3.9630000000     6.1110000000   -17.0310000000
   95      O       4.8510000000     6.5900000000   -16.3570000000
   96      N       4.1980000000     5.1030000000   -17.9130000000
   97      H       3.4160000000     4.6890000000   -18.3960000000
   98      C       5.4790000000     4.4080000000   -18.0490000000
   99      H       6.1980000000     4.9730000000   -17.4580000000
  100      C       5.3910000000     2.9580000000   -17.5690000000
  101      H       4.7500000000     2.3970000000   -18.2550000000
  102      H       6.3910000000     2.5220000000   -17.6190000000
  103      C       4.8390000000     2.8020000000   -16.1460000000
  104      H       3.8430000000     3.2550000000   -16.1080000000
  105      C       4.7020000000     1.3180000000   -15.8090000000
  106      H       4.2430000000     1.1950000000   -14.8310000000
  107      H       4.0840000000     0.8060000000   -16.5440000000
  108      H       5.6800000000     0.8420000000   -15.7900000000
  109      C       5.7190000000     3.4970000000   -15.1100000000
  110      H       6.7430000000     3.1350000000   -15.1730000000
  111      H       5.7140000000     4.5730000000   -15.2550000000
  112      H       5.3440000000     3.2930000000   -14.1100000000
  113      H       5.7810000000     4.4350000000   -19.1010000000
  114      H      11.0020000000     5.5590000000   -16.8280000000
  115      C      10.7560000000     5.6650000000   -15.7730000000
  116      H      11.1040000000     6.6360000000   -15.4360000000
  117      C       9.2470000000     5.5290000000   -15.5580000000
  118      H       8.9380000000     4.5360000000   -15.9070000000
  119      C       8.9030000000     5.6460000000   -14.0760000000
  120      H       9.4180000000     4.8820000000   -13.4980000000
  121      H       9.1960000000     6.6200000000   -13.6950000000
  122      H       7.8330000000     5.5270000000   -13.9250000000
  123      C       8.4890000000     6.5790000000   -16.3660000000
  124      H       8.8050000000     7.5800000000   -16.0800000000
  125      H       8.6760000000     6.4550000000   -17.4320000000
  126      H       7.4180000000     6.5100000000   -16.1910000000
  127      H      11.2910000000     4.8960000000   -15.2190000000
  128      H       8.8660000000     2.7350000000    -2.9350000000
  129      C       9.7090000000     2.1810000000    -3.3420000000
  130      H      10.4180000000     1.9850000000    -2.5400000000
  131      C       9.2280000000     0.8710000000    -3.9690000000
  132      H      10.0890000000     0.3260000000    -4.3660000000
  133      H       8.7630000000     0.2540000000    -3.1970000000
  134      C       8.2390000000     1.1300000000    -5.0730000000
  135      C       8.6740000000     1.3570000000    -6.3720000000
  136      H       9.7340000000     1.3280000000    -6.5910000000
  137      C       7.7680000000     1.6090000000    -7.3870000000
  138      H       8.1230000000     1.7750000000    -8.3950000000
  139      C       6.4110000000     1.6420000000    -7.1150000000
  140      H       5.7020000000     1.8350000000    -7.9050000000
  141      C       5.9650000000     1.4250000000    -5.8220000000
  142      H       4.9080000000     1.4530000000    -5.6050000000
  143      C       6.8760000000     1.1730000000    -4.8110000000
  144      H       6.5230000000     0.9990000000    -3.8030000000
  145      H      10.1930000000     2.8030000000    -4.0920000000
  146      H      10.1590000000     5.4290000000    -8.1910000000
  147      C      10.3360000000     5.9130000000    -9.1500000000
  148      H      11.0370000000     5.3050000000    -9.7190000000
  149      C       9.0210000000     6.0720000000    -9.9110000000
  150      H       9.2340000000     6.5690000000   -10.8650000000
  151      C       8.3950000000     4.7100000000   -10.1970000000
  152      H       8.1490000000     4.2070000000    -9.2630000000
  153      H       9.0810000000     4.0800000000   -10.7600000000
  154      H       7.4820000000     4.8210000000   -10.7760000000
  155      C       8.0490000000     6.9400000000    -9.1170000000
  156      H       7.8010000000     6.4610000000    -8.1720000000
  157      H       7.1260000000     7.0920000000    -9.6720000000
  158      H       8.4920000000     7.9110000000    -8.9080000000
  159      H      10.7910000000     6.8840000000    -8.9710000000
  160      H      12.2370000000    10.3810000000   -13.3630000000
  161      C      11.8970000000    10.1140000000   -14.3610000000
  162      H      12.7070000000     9.6100000000   -14.8830000000
  163      C      10.6790000000     9.2070000000   -14.2710000000
  164      H      10.9570000000     8.2840000000   -13.7570000000
  165      H      10.3450000000     8.9540000000   -15.2810000000
  166      C       9.5100000000     9.8400000000   -13.5330000000
  167      H       9.2880000000    10.8330000000   -13.9270000000
  168      H       8.6220000000     9.2120000000   -13.6170000000
  169      S       9.8560000000    10.0110000000   -11.7410000000
  170      C       8.1550000000    10.2790000000   -11.1710000000
  171      H       7.7280000000    11.1320000000   -11.6910000000
  172      H       7.5630000000     9.3860000000   -11.3510000000
  173      H       8.2070000000    10.4810000000   -10.1060000000
  174      H      11.6540000000    11.0280000000   -14.8990000000
  175      H       9.7710000000    10.8760000000    -7.0510000000
  176      C       9.2510000000    10.2630000000    -6.3170000000
  177      H       9.4010000000    10.7080000000    -5.3370000000
  178      C       7.7690000000    10.1660000000    -6.6600000000
  179      H       7.6700000000     9.7740000000    -7.6740000000
  180      H       7.3230000000    11.1640000000    -6.6480000000
  181      C       6.9840000000     9.2520000000    -5.7120000000
  182      H       7.5430000000     8.3180000000    -5.5910000000
  183      C       6.8020000000     9.8920000000    -4.3380000000
  184      H       7.7620000000    10.1060000000    -3.8730000000
  185      H       6.2460000000    10.8230000000    -4.4260000000
  186      H       6.2520000000     9.2230000000    -3.6810000000
  187      C       5.6250000000     8.9220000000    -6.3240000000
  188      H       5.7540000000     8.4010000000    -7.2700000000
  189      H       5.0520000000     9.8300000000    -6.5030000000
  190      H       5.0450000000     8.2850000000    -5.6620000000
  191      H       9.7040000000     9.2730000000    -6.3180000000
  192      H       6.8260000000     6.0890000000    -3.2720000000
  193      C       5.7490000000     5.9340000000    -3.2510000000
  194      H       5.2650000000     6.8480000000    -3.5890000000
  195      C       5.3530000000     4.7670000000    -4.1560000000
  196      H       5.8440000000     3.8580000000    -3.7890000000
  197      C       3.8420000000     4.5510000000    -4.1180000000
  198      H       3.5630000000     3.6760000000    -4.7000000000
  199      H       3.5020000000     4.4030000000    -3.0940000000
  200      H       3.3300000000     5.4190000000    -4.5280000000
  201      C       5.8200000000     5.0190000000    -5.5860000000
  202      H       5.5640000000     4.1760000000    -6.2220000000
  203      H       6.9000000000     5.1540000000    -5.6180000000
  204      H       5.3470000000     5.9130000000    -5.9880000000
  205      H       5.4480000000     5.7460000000    -2.2220000000
  206      H       2.8050000000     0.2590000000    -2.9010000000
  207      C       1.8130000000     0.6970000000    -2.9820000000
  208      H       1.9230000000     1.7780000000    -3.0180000000
  209      C       1.1200000000     0.2080000000    -4.2470000000
  210      H       1.0400000000    -0.8800000000    -4.2660000000
  211      H       0.1060000000     0.6130000000    -4.3050000000
  212      C       1.8270000000     0.6500000000    -5.5160000000
  213      O       2.6730000000     1.5100000000    -5.5570000000
  214      O       1.3900000000    -0.0140000000    -6.5650000000
  215      H       1.7720000000     0.3120000000    -7.4380000000
  216      H       1.2350000000     0.4260000000    -2.1020000000
  217      H      -1.4920000000     4.6680000000    -4.4130000000
  218      C      -0.5410000000     4.1480000000    -4.5120000000
  219      H      -0.5350000000     3.3120000000    -3.8130000000
  220      C      -0.3380000000     3.6650000000    -5.9410000000
  221      H       0.6320000000     3.1880000000    -6.0460000000
  222      H      -0.3860000000     4.4960000000    -6.6410000000
  223      H      -1.1060000000     2.9440000000    -6.2150000000
  224      H       0.2540000000     4.8320000000    -4.2250000000
  225      H       1.1980000000     8.9220000000    -2.5240000000
  226      C       2.0140000000     9.6080000000    -2.7410000000
  227      H       2.6300000000     9.7100000000    -1.8490000000
  228      C       2.8410000000     9.0890000000    -3.9170000000
  229      H       3.6680000000     9.7780000000    -4.1030000000
  230      H       3.2570000000     8.1130000000    -3.6540000000
  231      C       2.0060000000     8.9590000000    -5.1490000000
  232      C       1.3290000000     7.8480000000    -5.5710000000
  233      H       1.3100000000     6.8650000000    -5.1400000000
  234      N       0.6080000000     8.1130000000    -6.6930000000
  235      H       0.0890000000     7.4090000000    -7.2380000000
  236      C       0.8120000000     9.4090000000    -7.0380000000
  237      C       0.3010000000    10.1480000000    -8.0990000000
  238      H      -0.3690000000     9.6920000000    -8.8130000000
  239      C       0.6830000000    11.4680000000    -8.2070000000
  240      H       0.3040000000    12.0730000000    -9.0200000000
  241      C       1.5560000000    12.0490000000    -7.2800000000
  242      H       1.8340000000    13.0870000000    -7.4040000000
  243      C       2.0610000000    11.3270000000    -6.2220000000
  244      H       2.7310000000    11.7900000000    -5.5100000000
  245      C       1.6910000000     9.9900000000    -6.0820000000
  246      H       1.5860000000    10.5790000000    -2.9830000000
 ----------------------------------------------------------------
 Nuclear Repulsion Energy =       20764.16344111 hartrees
 There are      375 alpha and      375 beta electrons
 Requested basis set is 6-31G(d)
 There are 683 shells and 1731 basis functions

 Total QAlloc Memory Limit  64000 MB
 Mega-Array Size      3911 MB
 MEM_STATIC part      4000 MB

 A cutoff of  1.0D-14 yielded  68617 shell pairs
 There are    428620 function pairs
 Smallest overlap matrix eigenvalue = 3.40E-04

 Scale SEOQF with 1.000000e-02/1.000000e-02/1.000000e-03

 Standard Electronic Orientation quadrupole field applied
 Nucleus-field energy     =     0.0000002271 hartrees
 Guess from superposition of atomic densities
 Warning:  Energy on first SCF cycle will be non-variational
 SAD guess density has 749.000002 electrons

 -----------------------------------------------------------------------
  General SCF calculation program by
  Eric Jon Sundstrom, Paul Horn, Yuezhi Mao, Dmitri Zuev, Alec White,
  David Stuck, Shaama M.S., Shane Yost, Joonho Lee, David Small,
  Daniel Levine, Susi Lehtola, Hugh Burton, Evgeny Epifanovsky,
  Bang C. Huynh
 -----------------------------------------------------------------------
=================================================
        Doing projection-based embedding         
      F. Manby et al. JCTC, 8, 2564 (2012)       
=================================================

****************************************************
   Low-level SCF calculation for the whole system   
****************************************************
----------------------------------------------
 Summary of the low-level theory: 
 Exchange:     0.1670 Hartree-Fock + 1.0000 wB97X-V + LR-HF
 Correlation:  1.0000 wB97X-V
 Using Euler-Maclaurin-Lebedev (75,302) quadrature formula
 Nonlocal Correlation:  VV10 with C = 0.0100 and b = 6.00 and scale = 1.00000
 Grid used for NLC:  SG-1 standard quadrature
----------------------------------------------
 using 32 threads for integral computing
 -------------------------------------------------------
 OpenMP Integral computing Module                
 Release: version 1.0, May 2013, Q-Chem Inc. Pittsburgh 
 -------------------------------------------------------
 A restricted SCF calculation will be
 performed using DIIS
 SCF converges when DIIS error is below 1.0e-08
 ---------------------------------------
  Cycle       Energy         DIIS error
 ---------------------------------------
    1   -4428.0528693551      1.88e-02  
    2   -4399.5506067427      1.62e-03  
    3   -4399.8522270765      1.53e-03  
    4   -4400.4738530088      2.71e-04  
    5   -4400.4929392779      1.16e-04  
    6   -4400.4969046714      3.14e-05  
    7   -4400.4972047339      7.13e-06  
    8   -4400.4972301369      2.26e-06  
    9   -4400.4972337902      1.15e-06  
   10   -4400.4972346819      4.66e-07  
   11   -4400.4972348591      2.20e-07  
   12   -4400.4972349039      8.33e-08  
   13   -4400.4972349104      3.29e-08  
   14   -4400.4972349118      1.32e-08  
   15   -4400.4972349120      6.19e-09  Convergence criterion met
 ---------------------------------------
 SCF time:   CPU 42853.48s  wall 1421.00s 
 SCF   energy in the final basis set =    -4400.4972349120
 Total energy in the final basis set =    -4400.4972349120

****************************************************
             Start embedding calculation            
****************************************************
----------------------------------------------
 Summary of the high-level theory: 
 Exchange:     0.1670 Hartree-Fock + 1.0000 wB97X-V + LR-HF
 Correlation:  1.0000 wB97X-V
 Using Euler-Maclaurin-Lebedev (75,302) quadrature formula
 Nonlocal Correlation:  VV10 with C = 0.0100 and b = 6.00 and scale = 1.00000
 Grid used for NLC:  SG-1 standard quadrature
----------------------------------------------
Doing R-in-R Embedding Calculation
Number of fragments: 2
Embedded fragment(s): 1 
NOcc for each fragment
           75
          300
NBasis for each fragment
          352
         1379
Variational space of the embedded problem: 
NOcc (active)  = 75
NOcc (fixed)   = 300
NVir (total)   = 1356
Read converged orbitals from disk
=========================================================
       Doing SPADE partition for the orbital space       
     D. Claudino and N. Mayhall JCTC 15, 1053 (2019)     
=========================================================
SPADE singular values:
 1.0000 1.0000 1.0000 1.0000 1.0000 1.0000 1.0000 1.0000 1.0000 1.0000
 1.0000 1.0000 1.0000 1.0000 1.0000 1.0000 1.0000 1.0000 1.0000 1.0000
 1.0000 1.0000 1.0000 1.0000 1.0000 1.0000 1.0000 1.0000 1.0000 1.0000
 1.0000 1.0000 1.0000 1.0000 1.0000 1.0000 1.0000 1.0000 1.0000 1.0000
 1.0000 1.0000 1.0000 1.0000 1.0000 1.0000 1.0000 1.0000 1.0000 0.9999
 0.9999 0.9999 0.9999 0.9999 0.9999 0.9998 0.9998 0.9998 0.9997 0.9997
 0.9996 0.9996 0.9995 0.9994 0.9993 0.9993 0.9992 0.9991 0.9987 0.9984
 0.9980 0.9979 0.9976 0.9749 0.9713 0.2119 0.1505 0.1057 0.0905 0.0736
 0.0721 0.0650 0.0643 0.0615 0.0567 0.0499 0.0439 0.0398 0.0333 0.0324
 0.0296 0.0294 0.0276 0.0249 0.0241 0.0222 0.0193 0.0182 0.0168 0.0164
 0.0154 0.0151 0.0146 0.0125 0.0120 0.0114 0.0102 0.0099 0.0095 0.0092
 0.0086 0.0075 0.0073 0.0069 0.0067 0.0063 0.0054 0.0045 0.0040 0.0037
 0.0035 0.0032 0.0031 0.0028 0.0027 0.0027 0.0026 0.0024 0.0023 0.0022
 0.0020 0.0019 0.0018 0.0017 0.0016 0.0015 0.0014 0.0014 0.0014 0.0013
 0.0013 0.0012 0.0011 0.0010 0.0010 0.0010 0.0009 0.0009 0.0009 0.0009
 0.0008 0.0008 0.0008 0.0007 0.0006 0.0006 0.0006 0.0006 0.0006 0.0006
 0.0005 0.0005 0.0005 0.0005 0.0005 0.0005 0.0004 0.0004 0.0004 0.0004
 0.0004 0.0004 0.0003 0.0003 0.0003 0.0003 0.0003 0.0003 0.0003 0.0003
 0.0003 0.0002 0.0002 0.0002 0.0002 0.0002 0.0002 0.0002 0.0002 0.0002
 0.0002 0.0002 0.0002 0.0002 0.0002 0.0002 0.0001 0.0001 0.0001 0.0001
 0.0001 0.0001 0.0001 0.0001 0.0001 0.0001 0.0001 0.0001 0.0001 0.0001
 0.0001 0.0001 0.0001 0.0001 0.0001 0.0001 0.0001 0.0001 0.0001 0.0001
 0.0001 0.0001 0.0001 0.0001 0.0000 0.0000 0.0000 0.0000 0.0000 0.0000
 0.0000 0.0000 0.0000 0.0000 0.0000 0.0000 0.0000 0.0000 0.0000 0.0000
 0.0000 0.0000 0.0000 0.0000 0.0000 0.0000 0.0000 0.0000 0.0000 0.0000
 0.0000 0.0000 0.0000 0.0000 0.0000 0.0000 0.0000 0.0000 0.0000 0.0000
 0.0000 0.0000 0.0000 0.0000 0.0000 0.0000 0.0000 0.0000 0.0000 0.0000
 0.0000 0.0000 0.0000 0.0000 0.0000 0.0000 0.0000 0.0000 0.0000 0.0000
 0.0000 0.0000 0.0000 0.0000 0.0000 0.0000 0.0000 0.0000 0.0000 0.0000
 0.0000 0.0000 0.0000 0.0000 0.0000 0.0000 0.0000 0.0000 0.0000 0.0000
 0.0000 0.0000 0.0000 0.0000 0.0000 0.0000 0.0000 0.0000 0.0000 0.0000
 0.0000 0.0000 0.0000 0.0000 0.0000 0.0000 0.0000 0.0000 0.0000 0.0000
 0.0000 0.0000 0.0000 0.0000 0.0000 0.0000 0.0000 0.0000 0.0000 0.0000
 0.0000 0.0000 0.0000 0.0000 0.0000 0.0000 0.0000 0.0000 0.0000 0.0000
 0.0000 0.0000 0.0000 0.0000 0.0000 0.0000 0.0000 0.0000 0.0000 0.0000
 0.0000 0.0000
Early stop requested; no embedded SCF will be performed

 300 environment occs will be part of frozen-core in future post-HF calculations
 
 --------------------------------------------------------------
 
                    Orbital Energies (a.u.)
 --------------------------------------------------------------
 
 Alpha MOs
 -- Occupied --
-88.8062 -19.1807 -19.1588 -19.1421 -19.1402 -19.0676 -19.0598 -14.3980
-14.3556 -10.3349 -10.3316 -10.2637 -10.2611 -10.2565 -10.2520 -10.2442
-10.2320 -10.2314 -10.2289 -10.2269 -10.2231 -10.2227 -10.2211 -10.2201
-10.2190 -10.2177 -10.2171 -10.2155 -10.2147 -10.2137 -10.2129 -10.2126
-10.2120 -10.2103 -10.2099 -10.2096 -10.2093 -10.2087 -10.2086 -10.2084
-10.2067 -10.2066 -10.2064 -10.2062 -10.2047 -10.2041 -10.2039 -10.2024
-10.2019 -10.2019 -10.2010 -10.2006 -10.1999 -10.1989 -10.1988 -10.1988
-10.1976 -10.1968 -10.1961 -10.1961 -10.1958 -10.1948 -10.1931 -10.1926
-10.1926 -10.1921 -10.1871 -10.1864 -10.1823 -10.1808 -10.1805 -10.1799
-10.1744 -10.1715 -10.1641  -7.9729  -5.9309  -5.9268  -5.9193  -1.1508
 -1.1133  -1.0927  -1.0586  -1.0515  -1.0201  -0.9996  -0.9560  -0.9273
 -0.9184  -0.8970  -0.8930  -0.8912  -0.8803  -0.8800  -0.8726  -0.8716
 -0.8603  -0.8585  -0.8541  -0.8489  -0.8463  -0.8420  -0.8337  -0.8057
 -0.8046  -0.8010  -0.8003  -0.7954  -0.7950  -0.7943  -0.7875  -0.7766
 -0.7731  -0.7666  -0.7557  -0.7545  -0.7531  -0.7504  -0.7482  -0.7454
 -0.7440  -0.7417  -0.7416  -0.7355  -0.7293  -0.7230  -0.7099  -0.6955
 -0.6920  -0.6875  -0.6839  -0.6763  -0.6653  -0.6574  -0.6569  -0.6564
 -0.6506  -0.6476  -0.6380  -0.6290  -0.6289  -0.6262  -0.6237  -0.6232
 -0.6219  -0.6142  -0.6126  -0.6111  -0.6019  -0.5875  -0.5734  -0.5629
 -0.5598  -0.5570  -0.5367  -0.5366  -0.5288  -0.5283  -0.5264  -0.5238
 -0.5233  -0.5199  -0.5170  -0.5165  -0.5153  -0.5137  -0.5134  -0.5126
 -0.5110  -0.5103  -0.5084  -0.5017  -0.5014  -0.4998  -0.4947  -0.4916
 -0.4881  -0.4854  -0.4842  -0.4833  -0.4800  -0.4790  -0.4789  -0.4774
 -0.4766  -0.4759  -0.4750  -0.4745  -0.4733  -0.4696  -0.4694  -0.4660
 -0.4660  -0.4655  -0.4639  -0.4620  -0.4607  -0.4600  -0.4597  -0.4562
 -0.4545  -0.4543  -0.4525  -0.4518  -0.4507  -0.4506  -0.4475  -0.4419
 -0.4416  -0.4402  -0.4386  -0.4375  -0.4370  -0.4359  -0.4348  -0.4321
 -0.4308  -0.4290  -0.4269  -0.4266  -0.4253  -0.4234  -0.4216  -0.4211
 -0.4191  -0.4158  -0.4157  -0.4146  -0.4136  -0.4098  -0.4092  -0.4069
 -0.4062  -0.4054  -0.4054  -0.4045  -0.4016  -0.4013  -0.4007  -0.4000
 -0.3955  -0.3952  -0.3941  -0.3939  -0.3890  -0.3860  -0.3851  -0.3843
 -0.3834  -0.3826  -0.3811  -0.3810  -0.3781  -0.3754  -0.3722  -0.3675
 -0.3672  -0.3663  -0.3655  -0.3643  -0.3625  -0.3620  -0.3612  -0.3605
 -0.3592  -0.3591  -0.3588  -0.3579  -0.3577  -0.3558  -0.3557  -0.3548
 -0.3542  -0.3528  -0.3524  -0.3521  -0.3493  -0.3481  -0.3475  -0.3453
 -0.3448  -0.3430  -0.3395  -0.3383  -0.3357  -0.3319  -0.2991  -0.2982
 -0.2948  -0.2868  -0.2706  -0.2699  -0.2607  -0.2582  -0.2424  -0.2357
 -0.2225  -0.2202  -0.2193  -0.1948 -18.9544  -9.9611  -9.7256  -9.6303
-10.0260  -9.6726  -9.6250  -8.7858  -7.2746  -9.4999  -4.9585  -9.1375
 -6.4160  -7.2183  -9.5656  -9.0440  -8.5507  -8.6226  -3.3806  -7.6738
 -3.2683  -3.0162  -7.0574  -1.3028  -4.2782  -7.3316  -2.0897  -3.7244
 -0.9877 -10.5273  -1.2370  -1.3009  -0.7623  -1.1045  -0.8838  -0.7906
 -1.0894  -0.8418  -2.0022  -1.3497  -0.5738  -0.8012  -0.5656  -0.7257
 -0.7194  -0.7302  -0.6025  -0.5050  -0.4558  -0.6438  -0.4534  -0.4619
 -0.4200  -0.4379  -0.4589  -0.4522  -0.4341  -1.5569  -0.4522  -0.4420
 -0.4288  -0.4806  -0.4006  -0.4106  -0.4168  -0.4657  -0.4246  -0.4267
 -0.4170  -0.4232  -0.3790  -0.3830  -0.3508  -0.6076  -0.3853
 -- Virtual --
  0.1060   0.1542   0.1557   0.1564   0.1593   0.1736   0.1774   0.1800
  0.1889   0.1902   0.1958   0.2012   0.2061   0.2120   0.2181   0.2202
  0.2225   0.2258   0.2289   0.2320   0.2349   0.2355   0.2386   0.2395
  0.2435   0.2442   0.2477   0.2497   0.2518   0.2536   0.2545   0.2569
  0.2586   0.2613   0.2628   0.2656   0.2666   0.2674   0.2694   0.2711
  0.2717   0.2725   0.2750   0.2763   0.2785   0.2792   0.2799   0.2815
  0.2820   0.2831   0.2852   0.2869   0.2890   0.2893   0.2903   0.2919
  0.2936   0.2941   0.2957   0.2969   0.2978   0.2991   0.3001   0.3014
  0.3022   0.3043   0.3045   0.3049   0.3064   0.3075   0.3083   0.3087
  0.3095   0.3097   0.3134   0.3153   0.3164   0.3176   0.3178   0.3185
  0.3202   0.3218   0.3225   0.3232   0.3245   0.3249   0.3259   0.3276
  0.3278   0.3284   0.3311   0.3318   0.3329   0.3333   0.3345   0.3350
  0.3355   0.3362   0.3381   0.3390   0.3397   0.3401   0.3408   0.3417
  0.3436   0.3440   0.3446   0.3457   0.3469   0.3471   0.3483   0.3495
  0.3500   0.3503   0.3511   0.3521   0.3527   0.3537   0.3553   0.3565
  0.3568   0.3590   0.3595   0.3605   0.3616   0.3627   0.3643   0.3651
  0.3656   0.3673   0.3686   0.3694   0.3700   0.3707   0.3723   0.3728
  0.3749   0.3764   0.3771   0.3787   0.3800   0.3807   0.3820   0.3829
  0.3839   0.3847   0.3859   0.3880   0.3889   0.3901   0.3910   0.3929
  0.3939   0.3958   0.3973   0.3983   0.3992   0.3999   0.4009   0.4033
  0.4043   0.4047   0.4055   0.4066   0.4083   0.4092   0.4102   0.4106
  0.4124   0.4138   0.4143   0.4159   0.4168   0.4177   0.4192   0.4199
  0.4210   0.4214   0.4222   0.4234   0.4257   0.4265   0.4274   0.4296
  0.4307   0.4322   0.4325   0.4353   0.4356   0.4381   0.4391   0.4417
  0.4424   0.4434   0.4452   0.4468   0.4474   0.4493   0.4510   0.4528
  0.4534   0.4554   0.4585   0.4593   0.4608   0.4632   0.4645   0.4657
  0.4678   0.4679   0.4703   0.4745   0.4789   0.4819   0.4834   0.4861
  0.4882   0.4899   0.4931   0.4960   0.4973   0.5000   0.5011   0.5017
  0.5069   0.5085   0.5133   0.5149   0.5212   0.5252   0.5279   0.5289
  0.5322   0.5361   0.5418   0.5471   0.5506   0.5530   0.5549   0.5579
  0.5608   0.5654   0.5670   0.5773   0.5906   0.5975   0.5982   0.6047
  0.6226   0.6248   0.6317   0.6347   0.6388   0.6402   0.6437   0.6474
  0.6509   0.6524   0.6541   0.6551   0.6574   0.6617   0.6624   0.6656
  0.6716   0.6736   0.6765   0.6783   0.6800   0.6807   0.6814   0.6823
  0.6843   0.6853   0.6863   0.6875   0.6892   0.6901   0.6917   0.6931
  0.6947   0.6978   0.6981   0.7001   0.7024   0.7053   0.7062   0.7070
  0.7081   0.7101   0.7116   0.7137   0.7142   0.7150   0.7165   0.7173
  0.7178   0.7179   0.7195   0.7226   0.7233   0.7245   0.7261   0.7276
  0.7289   0.7306   0.7329   0.7339   0.7347   0.7376   0.7405   0.7422
  0.7438   0.7452   0.7467   0.7494   0.7506   0.7527   0.7530   0.7548
  0.7556   0.7567   0.7575   0.7600   0.7626   0.7635   0.7655   0.7662
  0.7673   0.7689   0.7699   0.7734   0.7744   0.7754   0.7758   0.7800
  0.7814   0.7847   0.7858   0.7875   0.7896   0.7906   0.7925   0.7934
  0.7941   0.7955   0.7965   0.7975   0.7990   0.7997   0.8018   0.8039
  0.8047   0.8060   0.8077   0.8097   0.8130   0.8152   0.8169   0.8176
  0.8196   0.8234   0.8250   0.8284   0.8302   0.8307   0.8316   0.8336
  0.8351   0.8372   0.8388   0.8411   0.8418   0.8434   0.8445   0.8460
  0.8476   0.8513   0.8520   0.8525   0.8545   0.8553   0.8558   0.8581
  0.8589   0.8596   0.8604   0.8623   0.8627   0.8651   0.8663   0.8682
  0.8702   0.8712   0.8734   0.8741   0.8759   0.8795   0.8809   0.8827
  0.8850   0.8872   0.8876   0.8897   0.8901   0.8928   0.8943   0.8961
  0.8978   0.9007   0.9030   0.9040   0.9053   0.9075   0.9081   0.9085
  0.9103   0.9119   0.9128   0.9142   0.9149   0.9170   0.9176   0.9197
  0.9213   0.9219   0.9228   0.9240   0.9262   0.9274   0.9304   0.9309
  0.9331   0.9352   0.9363   0.9375   0.9401   0.9409   0.9415   0.9460
  0.9473   0.9494   0.9514   0.9535   0.9540   0.9574   0.9579   0.9586
  0.9643   0.9655   0.9712   0.9762   0.9797   0.9804   0.9822   0.9870
  0.9890   0.9902   0.9909   0.9924   0.9958   0.9995   1.0022   1.0036
  1.0063   1.0079   1.0100   1.0103   1.0113   1.0125   1.0135   1.0154
  1.0173   1.0182   1.0196   1.0211   1.0229   1.0247   1.0267   1.0286
  1.0322   1.0336   1.0342   1.0360   1.0370   1.0383   1.0387   1.0398
  1.0426   1.0443   1.0447   1.0461   1.0463   1.0505   1.0509   1.0527
  1.0536   1.0555   1.0563   1.0578   1.0591   1.0604   1.0623   1.0629
  1.0636   1.0655   1.0664   1.0677   1.0688   1.0691   1.0708   1.0717
  1.0726   1.0742   1.0751   1.0761   1.0775   1.0787   1.0793   1.0804
  1.0809   1.0819   1.0825   1.0835   1.0847   1.0865   1.0883   1.0892
  1.0895   1.0909   1.0914   1.0935   1.0940   1.0947   1.0955   1.0959
  1.0969   1.0979   1.0989   1.1002   1.1021   1.1023   1.1033   1.1041
  1.1053   1.1065   1.1079   1.1089   1.1112   1.1122   1.1136   1.1156
  1.1158   1.1171   1.1176   1.1180   1.1209   1.1218   1.1233   1.1238
  1.1255   1.1268   1.1276   1.1293   1.1302   1.1311   1.1321   1.1334
  1.1343   1.1360   1.1371   1.1376   1.1394   1.1405   1.1416   1.1431
  1.1440   1.1456   1.1464   1.1477   1.1497   1.1519   1.1531   1.1547
  1.1560   1.1563   1.1587   1.1610   1.1622   1.1642   1.1647   1.1660
  1.1674   1.1701   1.1711   1.1721   1.1724   1.1737   1.1738   1.1755
  1.1767   1.1784   1.1806   1.1808   1.1841   1.1881   1.1887   1.1909
  1.1940   1.1958   1.1969   1.1980   1.2003   1.2016   1.2023   1.2052
  1.2067   1.2104   1.2125   1.2145   1.2151   1.2154   1.2180   1.2196
  1.2211   1.2223   1.2261   1.2265   1.2274   1.2294   1.2306   1.2323
  1.2332   1.2360   1.2370   1.2390   1.2401   1.2427   1.2448   1.2468
  1.2477   1.2503   1.2530   1.2549   1.2558   1.2599   1.2624   1.2639
  1.2643   1.2663   1.2690   1.2738   1.2755   1.2775   1.2785   1.2846
  1.2857   1.2934   1.2959   1.2988   1.3008   1.3031   1.3057   1.3070
  1.3145   1.3195   1.3220   1.3226   1.3301   1.3335   1.3348   1.3388
  1.3432   1.3465   1.3536   1.3543   1.3559   1.3576   1.3640   1.3677
  1.3687   1.3701   1.3733   1.3771   1.3780   1.3823   1.3861   1.3929
  1.3943   1.3949   1.3990   1.4028   1.4038   1.4064   1.4113   1.4172
  1.4176   1.4219   1.4267   1.4290   1.4320   1.4347   1.4363   1.4414
  1.4432   1.4453   1.4562   1.4583   1.4599   1.4767   1.4778   1.4790
  1.4808   1.4962   1.4986   1.5017   1.5057   1.5067   1.5145   1.5218
  1.5233   1.5276   1.5293   1.5361   1.5412   1.5420   1.5466   1.5496
  1.5540   1.5586   1.5625   1.5642   1.5656   1.5677   1.5757   1.5787
  1.5798   1.5843   1.5861   1.5889   1.5904   1.5946   1.5977   1.5989
  1.6005   1.6011   1.6035   1.6042   1.6068   1.6111   1.6152   1.6183
  1.6188   1.6194   1.6211   1.6212   1.6241   1.6260   1.6271   1.6294
  1.6326   1.6344   1.6381   1.6385   1.6394   1.6399   1.6431   1.6461
  1.6506   1.6523   1.6533   1.6552   1.6577   1.6614   1.6656   1.6667
  1.6699   1.6712   1.6724   1.6757   1.6769   1.6777   1.6792   1.6815
  1.6832   1.6893   1.6912   1.6961   1.6963   1.6971   1.6984   1.7005
  1.7064   1.7083   1.7110   1.7128   1.7140   1.7183   1.7214   1.7266
  1.7414   1.7481   1.7542   1.7613   1.7652   1.7703   1.7713   1.7771
  1.7838   1.7889   1.7972   1.7993   1.8014   1.8043   1.8097   1.8182
  1.8207   1.8271   1.8326   1.8339   1.8371   1.8432   1.8519   1.8569
  1.8655   1.8674   1.8710   1.8747   1.8753   1.8754   1.8797   1.8854
  1.8861   1.8945   1.8960   1.8993   1.9036   1.9041   1.9057   1.9080
  1.9088   1.9102   1.9112   1.9127   1.9179   1.9187   1.9232   1.9254
  1.9290   1.9312   1.9336   1.9355   1.9374   1.9416   1.9445   1.9479
  1.9539   1.9602   1.9673   1.9687   1.9695   1.9707   1.9733   1.9766
  1.9781   1.9798   1.9836   1.9838   1.9873   1.9885   1.9898   1.9913
  1.9926   1.9940   1.9975   2.0012   2.0015   2.0067   2.0105   2.0109
  2.0146   2.0169   2.0185   2.0203   2.0208   2.0263   2.0320   2.0324
  2.0341   2.0384   2.0391   2.0459   2.0539   2.0583   2.0586   2.0641
  2.0731   2.0742   2.0767   2.0782   2.0828   2.0834   2.0837   2.0859
  2.0876   2.0907   2.0931   2.0952   2.0962   2.1035   2.1056   2.1068
  2.1078   2.1096   2.1112   2.1171   2.1185   2.1215   2.1231   2.1253
  2.1280   2.1291   2.1297   2.1317   2.1338   2.1353   2.1356   2.1394
  2.1399   2.1421   2.1429   2.1453   2.1457   2.1480   2.1499   2.1511
  2.1533   2.1547   2.1554   2.1592   2.1613   2.1638   2.1655   2.1679
  2.1693   2.1722   2.1747   2.1763   2.1775   2.1801   2.1808   2.1846
  2.1863   2.1876   2.1893   2.1921   2.1929   2.1952   2.1970   2.1982
  2.1995   2.2022   2.2024   2.2036   2.2100   2.2105   2.2124   2.2130
  2.2138   2.2167   2.2193   2.2221   2.2260   2.2292   2.2308   2.2326
  2.2360   2.2412   2.2440   2.2464   2.2470   2.2524   2.2571   2.2574
  2.2603   2.2637   2.2657   2.2671   2.2735   2.2771   2.2777   2.2791
  2.2817   2.2825   2.2835   2.2865   2.2918   2.2928   2.2948   2.2959
  2.2967   2.2987   2.3011   2.3051   2.3088   2.3152   2.3194   2.3222
  2.3257   2.3271   2.3299   2.3310   2.3328   2.3352   2.3363   2.3385
  2.3399   2.3399   2.3408   2.3476   2.3551   2.3567   2.3586   2.3594
  2.3611   2.3644   2.3660   2.3670   2.3758   2.3780   2.3806   2.3862
  2.3905   2.3934   2.3946   2.3980   2.3983   2.4013   2.4037   2.4093
  2.4168   2.4195   2.4274   2.4283   2.4287   2.4303   2.4323   2.4345
  2.4354   2.4361   2.4397   2.4407   2.4418   2.4428   2.4439   2.4457
  2.4490   2.4494   2.4499   2.4511   2.4531   2.4576   2.4592   2.4618
  2.4626   2.4635   2.4664   2.4667   2.4711   2.4725   2.4737   2.4745
  2.4762   2.4776   2.4820   2.4837   2.4845   2.4851   2.4885   2.4913
  2.4935   2.4954   2.4992   2.5020   2.5042   2.5059   2.5078   2.5086
  2.5099   2.5105   2.5114   2.5129   2.5132   2.5169   2.5185   2.5186
  2.5209   2.5280   2.5284   2.5318   2.5346   2.5375   2.5378   2.5410
  2.5444   2.5466   2.5489   2.5508   2.5530   2.5560   2.5650   2.5719
  2.5727   2.5767   2.5803   2.5899   2.5928   2.5966   2.5983   2.6005
  2.6023   2.6160   2.6229   2.6264   2.6315   2.6334   2.6400   2.6401
  2.6431   2.6560   2.6567   2.6580   2.6669   2.6720   2.6760   2.6772
  2.6814   2.6821   2.6844   2.6896   2.6923   2.6958   2.6958   2.6983
  2.7003   2.7017   2.7040   2.7058   2.7076   2.7124   2.7129   2.7149
  2.7194   2.7242   2.7257   2.7283   2.7345   2.7373   2.7404   2.7462
  2.7585   2.7620   2.7676   2.7713   2.7732   2.7739   2.7818   2.7826
  2.7884   2.7965   2.8012   2.8065   2.8109   2.8113   2.8126   2.8186
  2.8205   2.8219   2.8236   2.8296   2.8383   2.8391   2.8468   2.8514
  2.8568   2.8653   2.8666   2.8738   2.8766   2.8781   2.8798   2.8821
  2.8881   2.8906   2.8941   2.8953   2.9016   2.9024   2.9075   2.9104
  2.9121   2.9143   2.9161   2.9175   2.9204   2.9281   2.9295   2.9339
  2.9352   2.9441   2.9452   2.9476   2.9509   2.9586   2.9611   2.9630
  2.9668   2.9756   2.9802   2.9817   2.9881   2.9902   3.0035   3.0185
  3.0308   3.0407   3.0614   3.0653   3.0662   3.0885   3.0944   3.0980
  3.0996   3.1044   3.1077   3.1252   3.1378   3.1543   3.1555   3.1655
  3.1975   3.2043   3.2095   3.2213   3.2239   3.2428   3.2506   3.2608
  3.2973   3.3021   3.3187   3.3274   3.3329   3.3473   3.3835   3.4025
  3.4058   3.4864   3.6371   3.6525   3.6812   4.1025   4.1264   4.1551
  4.2058   4.2481   4.2795   4.3052   4.3136   4.3191   4.3262   4.3351
  4.3393   4.3419   4.3430   4.3475   4.3494   4.3504   4.3625   4.3704
  4.3724   4.3791   4.3829   4.3918   4.3930   4.3976   4.4015   4.4028
  4.4076   4.4196   4.4202   4.4321   4.4360   4.4449   4.4539   4.4582
  4.4716   4.4783   4.4798   4.4874   4.4951   4.5011   4.5043   4.5145
  4.5175   4.5207   4.5251   4.5273   4.5288   4.5406   4.5424   4.5454
  4.5488   4.5493   4.5512   4.5550   4.5626   4.5684   4.5842   4.5895
  4.6024   4.6152   4.6303   4.6344   4.6390   4.6481   4.6497   4.6568
  4.6593   4.6607   4.6784   4.6821   4.6929   4.7021   4.7048   4.7298
  4.7325   4.7501   4.7654   4.7744   4.7856   4.7878   4.7890   4.8007
  4.8087   4.8174   4.8368   4.8473   4.9220   4.9246   4.9388   4.9861
  4.9900   5.0351   5.0510   5.0617
 --------------------------------------------------------------
 
          Ground-State Mulliken Net Atomic Charges

     Atom                 Charge (a.u.)
  ----------------------------------------
      1 C                     0.480201
      2 O                    -0.617129
      3 C                    -0.308456
      4 C                     0.191075
      5 C                    -0.235307
      6 C                    -0.308582
      7 C                    -0.403024
      8 C                    -0.403658
      9 C                    -0.295132
     10 C                    -0.143575
     11 C                    -0.118525
     12 C                    -0.122885
     13 C                     0.005924
     14 C                    -0.274722
     15 C                    -0.318424
     16 C                    -0.318671
     17 C                    -0.322061
     18 C                     0.129468
     19 C                    -0.537805
     20 O                    -0.646234
     21 H                     0.191145
     22 H                     0.273911
     23 H                     0.140755
     24 H                     0.158970
     25 H                     0.207255
     26 H                     0.189006
     27 H                     0.157555
     28 H                     0.252534
     29 H                     0.128182
     30 H                     0.173939
     31 H                     0.171256
     32 H                     0.113871
     33 H                     0.115636
     34 H                     0.140156
     35 H                     0.134445
     36 H                     0.184887
     37 H                     0.132147
     38 H                     0.148320
     39 H                     0.186322
     40 H                     0.140372
     41 H                     0.138544
     42 H                     0.132877
     43 H                     0.153862
     44 H                     0.142323
     45 H                     0.203073
     46 H                     0.393413
     47 H                     0.138875
     48 C                    -0.456757
     49 H                     0.159386
     50 C                    -0.345020
     51 H                     0.144073
     52 H                     0.148679
     53 C                     0.100137
     54 C                    -0.192434
     55 H                     0.131463
     56 C                    -0.198092
     57 H                     0.145622
     58 C                     0.350777
     59 O                    -0.708528
     60 H                     0.466759
     61 C                    -0.233565
     62 H                     0.170257
     63 C                    -0.195530
     64 H                     0.141852
     65 H                     0.159546
     66 H                     0.141840
     67 C                    -0.455493
     68 H                     0.142960
     69 C                    -0.123378
     70 H                     0.137862
     71 C                    -0.456197
     72 H                     0.142953
     73 H                     0.148425
     74 H                     0.169780
     75 C                    -0.456463
     76 H                     0.176652
     77 H                     0.134269
     78 H                     0.140529
     79 H                     0.147278
     80 H                     0.126749
     81 C                    -0.462485
     82 H                     0.146698
     83 C                    -0.364907
     84 H                     0.137971
     85 H                     0.142755
     86 C                     0.572739
     87 O                    -0.585159
     88 O                    -0.566760
     89 H                     0.165909
     90 H                     0.158485
     91 C                    -0.565310
     92 H                     0.197745
     93 H                     0.211476
     94 C                     0.570466
     95 O                    -0.488530
     96 N                    -0.610258
     97 H                     0.327127
     98 C                    -0.164804
     99 H                     0.211206
    100 C                    -0.289083
    101 H                     0.132182
    102 H                     0.148279
    103 C                    -0.117582
    104 H                     0.135470
    105 C                    -0.462196
    106 H                     0.170271
    107 H                     0.140901
    108 H                     0.148888
    109 C                    -0.492166
    110 H                     0.141640
    111 H                     0.194097
    112 H                     0.160563
    113 H                     0.154262
    114 H                     0.141736
    115 C                    -0.461463
    116 H                     0.151404
    117 C                    -0.121422
    118 H                     0.132440
    119 C                    -0.468488
    120 H                     0.148318
    121 H                     0.153788
    122 H                     0.168966
    123 C                    -0.490715
    124 H                     0.145562
    125 H                     0.135185
    126 H                     0.202271
    127 H                     0.146852
    128 H                     0.162758
    129 C                    -0.456891
    130 H                     0.144693
    131 C                    -0.347455
    132 H                     0.149992
    133 H                     0.151715
    134 C                     0.115351
    135 C                    -0.196699
    136 H                     0.135316
    137 C                    -0.155198
    138 H                     0.152896
    139 C                    -0.171526
    140 H                     0.164054
    141 C                    -0.170973
    142 H                     0.213184
    143 C                    -0.201606
    144 H                     0.138787
    145 H                     0.158535
    146 H                     0.146128
    147 C                    -0.456280
    148 H                     0.142034
    149 C                    -0.125897
    150 H                     0.151573
    151 C                    -0.459772
    152 H                     0.154594
    153 H                     0.141177
    154 H                     0.155067
    155 C                    -0.467756
    156 H                     0.156460
    157 H                     0.155711
    158 H                     0.151235
    159 H                     0.153095
    160 H                     0.176629
    161 C                    -0.470777
    162 H                     0.153421
    163 C                    -0.310469
    164 H                     0.173783
    165 H                     0.165494
    166 C                    -0.433377
    167 H                     0.176309
    168 H                     0.190090
    169 S                     0.065592
    170 C                    -0.619748
    171 H                     0.190121
    172 H                     0.195809
    173 H                     0.198901
    174 H                     0.150694
    175 H                     0.149765
    176 C                    -0.469858
    177 H                     0.148288
    178 C                    -0.283927
    179 H                     0.149129
    180 H                     0.138166
    181 C                    -0.114534
    182 H                     0.134750
    183 C                    -0.467285
    184 H                     0.143621
    185 H                     0.144525
    186 H                     0.160727
    187 C                    -0.474050
    188 H                     0.161331
    189 H                     0.157524
    190 H                     0.167259
    191 H                     0.152579
    192 H                     0.142086
    193 C                    -0.468490
    194 H                     0.160006
    195 C                    -0.119384
    196 H                     0.134593
    197 C                    -0.484791
    198 H                     0.195150
    199 H                     0.134210
    200 H                     0.146878
    201 C                    -0.463685
    202 H                     0.165671
    203 H                     0.138829
    204 H                     0.156252
    205 H                     0.140184
    206 H                     0.156853
    207 C                    -0.466916
    208 H                     0.182553
    209 C                    -0.380576
    210 H                     0.176451
    211 H                     0.191138
    212 C                     0.588341
    213 O                    -0.468701
    214 O                    -0.611844
    215 H                     0.473055
    216 H                     0.146171
    217 H                     0.147286
    218 C                    -0.463390
    219 H                     0.129493
    220 C                    -0.508299
    221 H                     0.153940
    222 H                     0.219218
    223 H                     0.133029
    224 H                     0.150505
    225 H                     0.153759
    226 C                    -0.451953
    227 H                     0.135258
    228 C                    -0.349278
    229 H                     0.149041
    230 H                     0.154188
    231 C                     0.007605
    232 C                    -0.008939
    233 H                     0.173521
    234 N                    -0.711399
    235 H                     0.406302
    236 C                     0.287000
    237 C                    -0.192297
    238 H                     0.161618
    239 C                    -0.183883
    240 H                     0.129594
    241 C                    -0.173926
    242 H                     0.125953
    243 C                    -0.205340
    244 H                     0.130961
    245 C                     0.031130
    246 H                     0.153667
  ----------------------------------------
  Sum of atomic charges =    -1.000000

 -----------------------------------------------------------------
                    Cartesian Multipole Moments
 -----------------------------------------------------------------
    Charge (ESU x 10^10)
                -4.8032
    Dipole Moment (Debye)
         X     -12.8697      Y     -25.2868      Z      40.4285
       Tot      49.3915
    Quadrupole Moments (Debye-Ang)
        XX    -723.1292     XY     -78.0978     YY    -863.0324
        XZ     126.8833     YZ     210.8609     ZZ    -956.1307
    Octopole Moments (Debye-Ang^2)
       XXX   -9246.8501    XXY   -3746.3693    XYY   -3652.0787
       YYY  -11139.8844    XXZ    7001.9841    XYZ     830.6021
       YYZ    8132.9588    XZZ   -4125.8189    YZZ   -4965.7223
       ZZZ   20221.0234
    Hexadecapole Moments (Debye-Ang^3)
      XXXX -126776.1720   XXXY  -48598.1087   XXYY  -53984.2036
      XYYY  -49822.4547   YYYY -181001.3318   XXXZ   95027.3003
      XXYZ   36187.1070   XYYZ   38221.8670   YYYZ  105079.5992
      XXZZ  -98196.7738   XYZZ  -23643.6757   YYZZ -116174.0972
      XZZZ  100101.7293   YZZZ  104442.5485   ZZZZ -406688.9848
 -----------------------------------------------------------------
 Total job time:  1453.87s(wall), 43492.44s(cpu) 
 Fri Aug  9 14:18:29 2024

        *************************************************************
        *                                                           *
        *  Thank you very much for using Q-Chem.  Have a nice day.  *
        *                                                           *
        *************************************************************



Running Job 2 of 2 19nt_mm_min_distance_cutoff3_nowat_xtb_optimized_spade_wb97x-v_631gd.in
qchem 19nt_mm_min_distance_cutoff3_nowat_xtb_optimized_spade_wb97x-v_631gd.in_3932830.1 ./qchem3932830/ 1
srun -n 1 /cm/shared/apps/spack/0.17.3/cpu/b/opt/spack/linux-rocky8-zen2/gcc-10.2.0/qchem-6.0-rytxnwjazd34ekd2gqyi5ufsaimxsd3r/exe/qcprog.exe 19nt_mm_min_distance_cutoff3_nowat_xtb_optimized_spade_wb97x-v_631gd.in_3932830.1 ./qchem3932830/

                  Welcome to Q-Chem
     A Quantum Leap Into The Future Of Chemistry


 Q-Chem 6.0, Q-Chem, Inc., Pleasanton, CA (2022)

 License issued to: University of California, San Diego (site)

 E. Epifanovsky,  A. T. B. Gilbert,  Xintian Feng,  Joonho Lee,  Yuezhi Mao,  
 N. Mardirossian,  P. Pokhilko,  A. White,  M. Wormit,  M. P. Coons,  
 A. L. Dempwolff,  Zhengting Gan,  D. Hait,  P. R. Horn,  L. D. Jacobson,  
 I. Kaliman,  J. Kussmann,  A. W. Lange,  Ka Un Lao,  D. S. Levine,  Jie Liu,  
 S. C. McKenzie,  A. F. Morrison,  K. Nanda,  F. Plasser,  D. R. Rehn,  
 M. L. Vidal,  Zhi-Qiang You,  Ying Zhu,  B. Alam,  B. Albrecht,  
 A. Aldossary,  E. Alguire,  J. H. Andersen,  V. Athavale,  D. Barton,  
 K. Begam,  A. Behn,  N. Bellonzi,  Y. A. Bernard,  E. J. Berquist,  
 H. Burton,  A. Carreras,  K. Carter-Fenk,  Romit Chakraborty,  
 Chandrima Chakravarty,  Junhan Chen,  A. D. Chien,  K. D. Closser,  
 V. Cofer-Shabica,  L. Cunha,  S. Dasgupta,  Jia Deng,  M. de Wergifosse,  
 M. Diedenhofen,  Hainam Do,  S. Ehlert,  Po-Tung Fang,  S. Fatehi,  
 Qingguo Feng,  T. Friedhoff,  B. Ganoe,  J. Gayvert,  Qinghui Ge,  
 G. Gidofalvi,  M. Goldey,  J. Gomes,  C. Gonzalez-Espinoza,  S. Gulania,  
 A. Gunina,  J. A. Gyamfi,  M. W. D. Hanson-Heine,  P. H. P. Harbach,  
 A. W. Hauser,  M. F. Herbst,  M. Hernandez Vera,  M. Hodecker,  
 Z. C. Holden,  S. Houck,  Xunkun Huang,  Kerwin Hui,  B. C. Huynh,  
 K. Ikeda,  M. Ivanov,  Hyunjun Ji,  Zuxin Jin,  Hanjie Jiang,  B. Kaduk,  
 S. Kaehler,  R. Kang,  K. Khistyaev,  Jaehoon Kim,  Yongbin Kim,  
 P. Klunzinger,  Z. Koczor-Benda,  Joong Hoon Koh,  D. Kosenkov,  
 Saikiran Kotaru,  L. Koulias,  T. Kowalczyk,  C. M. Krauter,  K. Kue,  
 A. Kunitsa,  T. Kus,  A. Landau,  K. V. Lawler,  D. Lefrancois,  S. Lehtola,  
 Rain Li,  Shaozhi Li,  Yi-Pei Li,  Jiashu Liang,  M. Liebenthal,  
 Hung-Hsuan Lin,  You-Sheng Lin,  Fenglai Liu,  Kuan-Yu Liu,  
 M. Loipersberger,  A. Luenser,  C. Malbon,  A. Manjanath,  P. Manohar,  
 E. Mansoor,  S. F. Manzer,  Shan-Ping Mao,  A. V. Marenich,  T. Markovich,  
 S. Mason,  F. Matz,  S. A. Maurer,  P. F. McLaughlin,  M. F. S. J. Menger,  
 J.-M. Mewes,  S. A. Mewes,  P. Morgante,  Mohammad Mostafanejad,  
 J. W. Mullinax,  K. J. Oosterbaan,  G. Paran,  V. Parravicini,  
 Alexander C. Paul,  Suranjan K. Paul,  F. Pavosevic,  Zheng Pei,  S. Prager,  
 E. I. Proynov,  E. Ramos,  B. Rana,  A. E. Rask,  A. Rettig,  R. M. Richard,  
 F. Rob,  E. Rossomme,  T. Scheele,  M. Scheurer,  M. Schneider,  
 P. E. Schneider,  N. Sergueev,  S. M. Sharada,  Hengyuan Shen,  
 W. Skomorowski,  D. W. Small,  C. J. Stein,  Yingli Su,  Yu-Chuan Su,  
 E. J. Sundstrom,  Zhen Tao,  J. Thirman,  Hung-Yi Tsai,  T. Tsuchimochi,  
 N. M. Tubman,  C. Utku,  S. P. Veccham,  O. Vydrov,  J. Wenzel,  
 Jonathan Wong,  J. Witte,  A. Yamada,  Chou-Hsun Yang,  Kun Yao,  
 S. Yeganeh,  S. R. Yost,  A. Zech,  F. Zeller,  Igor Ying Zhang,  
 Xing Zhang,  Yu Zhang,  D. Zuev,  A. Aspuru-Guzik,  A. T. Bell,  
 N. A. Besley,  K. B. Bravaya,  B. R. Brooks,  D. Casanova,  Jeng-Da Chai,  
 Hsing-Ta Chen,  S. Coriani,  C. J. Cramer,  A. E. DePrince, III,  
 R. A. DiStasio Jr.,  A. Dreuw,  B. D. Dunietz,  T. R. Furlani,  
 W. A. Goddard III,  S. Grimme,  S. Hammes-Schiffer,  T. Head-Gordon,  
 W. J. Hehre,  Chao-Ping Hsu,  T.-C. Jagau,  Yousung Jung,  A. Klamt,  
 Jing Kong,  D. S. Lambrecht,  Xiangyuan Li,  WanZhen Liang,  N. J. Mayhall,  
 C. W. McCurdy,  J. B. Neaton,  T. Neudecker,  C. Ochsenfeld,  
 J. A. Parkhill,  R. Peverati,  V. A. Rassolov,  Haisheng Ren,  Yihan Shao,  
 L. V. Slipchenko,  R. P. Steele,  J. E. Subotnik,  A. J. W. Thom,  
 A. Tkatchenko,  D. G. Truhlar,  T. Van Voorhis,  Fan Wang,  
 T. A. Wesolowski,  K. B. Whaley,  H. L. Woodcock III,  P. M. Zimmerman,  
 S. Faraji,  P. M. W. Gill,  M. Head-Gordon,  J. M. Herbert,  A. I. Krylov

 Contributors to earlier versions of Q-Chem not listed above: 
 R. D. Adamson,  B. Austin,  R. Baer,  J. Baker,  G. J. O. Beran,  
 K. Brandhorst,  S. T. Brown,  E. F. C. Byrd,  Arup K. Chakraborty,  
 G. K. L. Chan,  Chun-Min Chang,  Yunqing Chen,  C.-L. Cheng,  
 Siu Hung Chien,  D. M. Chipman,  D. L. Crittenden,  H. Dachsel,  
 R. J. Doerksen,  A. D. Dutoi,  R. G. Edgar,  J. Fosso-Tande,  
 L. Fusti-Molnar,  D. Ghosh,  A. Ghysels,  A. Golubeva-Zadorozhnaya,  
 J. Gonthier,  M. S. Gordon,  S. R. Gwaltney,  G. Hawkins,  J. E. Herr,  
 A. Heyden,  S. Hirata,  E. G. Hohenstein,  G. Kedziora,  F. J. Keil,  
 C. Kelley,  Jihan Kim,  R. A. King,  R. Z. Khaliullin,  P. P. Korambath,  
 W. Kurlancheek,  A. Laurent,  A. M. Lee,  M. S. Lee,  S. V. Levchenko,  
 Ching Yeh Lin,  D. Liotard,  E. Livshits,  R. C. Lochan,  I. Lotan,  
 L. A. Martinez-Martinez,  P. E. Maslen,  N. Nair,  D. P. O'Neill,  
 D. Neuhauser,  E. Neuscamman,  C. M. Oana,  R. Olivares-Amaya,  R. Olson,  
 T. M. Perrine,  B. Peters,  P. A. Pieniazek,  A. Prociuk,  Y. M. Rhee,  
 J. Ritchie,  M. A. Rohrdanz,  E. Rosta,  N. J. Russ,  H. F. Schaefer III,  
 M. W. Schmidt,  N. E. Schultz,  S. Sharma,  N. Shenvi,  C. D. Sherrill,  
 A. C. Simmonett,  A. Sodt,  T. Stein,  D. Stuck,  K. S. Thanthiriwatte,  
 V. Vanovschi,  L. Vogt,  Tao Wang,  A. Warshel,  M. A. Watson,  
 C. F. Williams,  Q. Wu,  X. Xu,  Jun Yang,  W. Zhang,  Yan Zhao

   Please cite Q-Chem as follows:
  "Software for the frontiers of quantum chemistry:
   An overview of developments in the Q-Chem 5 package"
   J. Chem. Phys. 155, 084801 (2021)
   https://doi.org/10.1063/5.0055522 (open access)

 Q-Chem 6.0.2 for Intel X86 EM64T Linux

 Parts of Q-Chem use Armadillo 9.900.5 (Nocturnal Misbehaviour).
 http://arma.sourceforge.net/

 Q-Chem begins on Fri Aug  9 14:18:33 2024  

 Host: 
0

     Scratch files written to ./qchem3932830//
 Dec722 |scratch|qcdevops|jenkins|workspace|build_RNUM    
 Processing $rem in /cm/shared/apps/spack/0.17.3/cpu/b/opt/spack/linux-rocky8-zen2/gcc-10.2.0/qchem-6.0-rytxnwjazd34ekd2gqyi5ufsaimxsd3r/config/preferences:
 Processing $rem in /home/hklem/.qchemrc:

 Checking the input file for inconsistencies... 	...done.

--------------------------------------------------------------
User input:
--------------------------------------------------------------

$molecule
-1 1
@C    2.07700    1.89200    -9.41100
@O    2.10000    0.71000    -9.00500
@C    2.44900    2.99200    -8.59800
@C    2.40700    4.28400    -9.02500
@C    2.08400    4.64600    -10.42700
@C    2.27100    3.44200    -11.35300
@C    1.56900    2.21800    -10.78700
@C    2.53700    5.38600    -8.04900
@C    3.34500    6.56900    -8.57200
@C    2.76100    7.02400    -9.90400
@C    2.85800    5.88300    -10.92900
@C    3.48600    8.23300    -10.47900
@C    2.83100    8.73100    -11.77600
@C    2.95200    7.62200    -12.81600
@C    2.32500    6.32200    -12.30100
@C    3.61800    9.49400    -9.62500
@C    3.90200    10.60900   -10.64700
@C    3.68400    9.99200    -12.05200
@C    1.36400    9.13900    -11.60600
@O    3.15700    10.90200   -12.98300
@H    2.71400    2.77600    -7.57100
@H    1.00700    4.93900    -10.41600
@H    3.34100    3.23200    -11.46300
@H    1.86300    3.65500    -12.34100
@H    0.50100    2.44000    -10.68100
@H    1.67000    1.35400    -11.44600
@H    2.93100    5.02400    -7.09800
@H    1.49800    5.72200    -7.89000
@H    4.39300    6.27800    -8.69900
@H    3.30400    7.38400    -7.84800
@H    1.71000    7.26200    -9.73700
@H    3.91800    5.61100    -11.03700
@H    4.50300    7.91000    -10.74300
@H    4.00800    7.44900    -13.04000
@H    2.46700    7.91600    -13.74900
@H    1.24300    6.42800    -12.22800
@H    2.53400    5.54400    -13.03800
@H    4.42300    9.40900    -8.89900
@H    2.69600    9.68400    -9.07900
@H    4.91600    10.99600   -10.55200
@H    3.22000    11.45100   -10.51000
@H    4.64400    9.69000    -12.48500
@H    1.26000    9.94600    -10.88500
@H    0.96100    9.46200    -12.56700
@H    0.75900    8.30600    -11.26600
@H    2.28300    11.16300   -12.66900
H    6.35300    -6.84400   -9.63700
C    5.85000    -5.91600   -9.90300
H    6.00000    -5.73100   -10.96500
C    4.35600    -5.99800   -9.58800
H    3.91200    -6.82100   -10.15400
H    4.22300    -6.20600   -8.52400
C    3.67700    -4.70500   -9.94400
C    3.12000    -4.51200   -11.20100
H    3.14200    -5.31900   -11.92200
C    2.53400    -3.31100   -11.54500
H    2.09600    -3.16400   -12.52000
C    2.49300    -2.26300   -10.62700
O    1.90300    -1.10800   -10.98700
H    1.93800    -0.46800   -10.23000
C    3.06100    -2.44600   -9.36800
H    3.03400    -1.63500   -8.65500
C    3.64400    -3.65300   -9.03900
H    4.07800    -3.78100   -8.05700
H    6.30700    -5.10100   -9.34800
H    8.43400    -1.89900   -13.92300
C    7.55900    -1.25300   -13.88400
H    6.91600    -1.49500   -14.72900
C    6.80100    -1.44900   -12.57100
H    7.47400    -1.19900   -11.74300
C    5.58700    -0.52700   -12.50300
H    5.88700    0.51400    -12.60600
H    4.88600    -0.76800   -13.29900
H    5.07200    -0.64600   -11.55300
C    6.36100    -2.90300   -12.41500
H    5.81800    -3.03800   -11.48400
H    7.22200    -3.56900   -12.41700
H    5.70300    -3.18700   -13.23300
H    7.88800    -0.22100   -13.98500
H    -4.29400   6.72700    -7.94100
C    -3.34000   6.20800    -8.03900
H    -3.53500   5.15200    -8.22400
C    -2.51100   6.80000    -9.17300
H    -2.38500   7.87600    -9.01000
H    -3.00100   6.65100    -10.13800
C    -1.08700   6.18000    -9.24900
O    -0.43800   6.13900    -8.17900
O    -0.69000   5.80100    -10.35800
H    -2.79300   6.29400    -7.10200
H    2.03200    6.58800    -17.92300
C    2.51500    6.61100    -16.94900
H    1.96500    5.97400    -16.25900
H    2.52400    7.62200    -16.55600
C    3.96300    6.11100    -17.03100
O    4.85100    6.59000    -16.35700
N    4.19800    5.10300    -17.91300
H    3.41600    4.68900    -18.39600
C    5.47900    4.40800    -18.04900
H    6.19800    4.97300    -17.45800
C    5.39100    2.95800    -17.56900
H    4.75000    2.39700    -18.25500
H    6.39100    2.52200    -17.61900
C    4.83900    2.80200    -16.14600
H    3.84300    3.25500    -16.10800
C    4.70200    1.31800    -15.80900
H    4.24300    1.19500    -14.83100
H    4.08400    0.80600    -16.54400
H    5.68000    0.84200    -15.79000
C    5.71900    3.49700    -15.11000
H    6.74300    3.13500    -15.17300
H    5.71400    4.57300    -15.25500
H    5.34400    3.29300    -14.11000
H    5.78100    4.43500    -19.10100
H    11.00200   5.55900    -16.82800
C    10.75600   5.66500    -15.77300
H    11.10400   6.63600    -15.43600
C    9.24700    5.52900    -15.55800
H    8.93800    4.53600    -15.90700
C    8.90300    5.64600    -14.07600
H    9.41800    4.88200    -13.49800
H    9.19600    6.62000    -13.69500
H    7.83300    5.52700    -13.92500
C    8.48900    6.57900    -16.36600
H    8.80500    7.58000    -16.08000
H    8.67600    6.45500    -17.43200
H    7.41800    6.51000    -16.19100
H    11.29100   4.89600    -15.21900
H    8.86600    2.73500    -2.93500
C    9.70900    2.18100    -3.34200
H    10.41800   1.98500    -2.54000
C    9.22800    0.87100    -3.96900
H    10.08900   0.32600    -4.36600
H    8.76300    0.25400    -3.19700
C    8.23900    1.13000    -5.07300
C    8.67400    1.35700    -6.37200
H    9.73400    1.32800    -6.59100
C    7.76800    1.60900    -7.38700
H    8.12300    1.77500    -8.39500
C    6.41100    1.64200    -7.11500
H    5.70200    1.83500    -7.90500
C    5.96500    1.42500    -5.82200
H    4.90800    1.45300    -5.60500
C    6.87600    1.17300    -4.81100
H    6.52300    0.99900    -3.80300
H    10.19300   2.80300    -4.09200
H    10.15900   5.42900    -8.19100
C    10.33600   5.91300    -9.15000
H    11.03700   5.30500    -9.71900
C    9.02100    6.07200    -9.91100
H    9.23400    6.56900    -10.86500
C    8.39500    4.71000    -10.19700
H    8.14900    4.20700    -9.26300
H    9.08100    4.08000    -10.76000
H    7.48200    4.82100    -10.77600
C    8.04900    6.94000    -9.11700
H    7.80100    6.46100    -8.17200
H    7.12600    7.09200    -9.67200
H    8.49200    7.91100    -8.90800
H    10.79100   6.88400    -8.97100
H    12.23700   10.38100   -13.36300
C    11.89700   10.11400   -14.36100
H    12.70700   9.61000    -14.88300
C    10.67900   9.20700    -14.27100
H    10.95700   8.28400    -13.75700
H    10.34500   8.95400    -15.28100
C    9.51000    9.84000    -13.53300
H    9.28800    10.83300   -13.92700
H    8.62200    9.21200    -13.61700
S    9.85600    10.01100   -11.74100
C    8.15500    10.27900   -11.17100
H    7.72800    11.13200   -11.69100
H    7.56300    9.38600    -11.35100
[...]
    3   0.1890728  -0.3947306  -0.0927074   1.5195673  -3.6113161  -2.7989757
          115         116         117         118         119         120
    1   1.9865251   2.2277357   0.7666781   0.4499095   0.5047373   1.6780403
    2  -0.2331613   1.3842653  -0.5564611  -2.1897476  -0.1706364  -1.6122559
    3  -1.0910919  -0.5105775  -1.0755364  -1.6024823   0.1845657   0.6752975
          121         122         123         124         125         126
    1   0.9669375  -1.3231893   0.1772717   0.6570048   0.7811209  -1.2100666
    2   1.4178653  -0.1539652   0.8863857   2.3658750   0.3857213   0.7502747
    3   0.3755736   0.1272803  -1.6618104  -1.0719118  -3.2516692  -0.9332782
          127         128         129         130         131         132
    1   2.4923616  -0.1155475   1.5050899   2.2884994   1.4608415   2.8003781
    2  -1.6069451   0.9473491   0.2627146  -0.3944117  -1.3499852  -1.9943563
    3   0.0559958   2.2515552   1.5520576   2.4803398   1.4003064   0.3047626
          133         134         135         136         137         138
    1   0.2486054   1.2030938   2.1484462   3.3954984   1.2053031   1.5931671
    2  -2.1706884  -1.0109175  -0.7415978  -0.7214517  -0.5340462  -0.4103084
    3   2.6313092   1.0214957  -0.1504572  -0.4049028  -1.0461447  -2.0318895
          139         140         141         142         143         144
    1  -0.2746793  -1.1385960  -0.6652982  -1.4743387   0.0215454  -0.4240182
    2  -0.5025080  -0.1546003  -0.8571992  -0.8160582  -1.0930139  -1.2822502
    3  -0.8135370  -1.7361417   0.6838728   0.9396180   1.8497941   3.1867219
          145         146         147         148         149         150
    1   2.3325122   1.5518261   2.1731178   2.9645645   0.9855688   1.2523756
    2   1.1318793  -0.8259048  -0.0795043  -1.1322587   0.1950385   0.8802375
    3  -0.0222887   2.0161820   0.5202400  -0.6728208  -0.4537692  -1.8157227
          151         152         153         154         155         156
    1   0.3659979   0.1949087   1.8824155  -1.2917656   0.0275380   0.0314497
    2  -0.9512657  -1.3177374  -1.7316808  -0.3002361   0.7225851  -0.3498569
    3  -0.4656830   1.0896922  -1.2189946  -1.3072913   0.2963428   1.6773852
          157         158         159         160         161         162
    1  -1.5804594   1.1946922   2.5750098   2.3007640   1.8292510   2.7305190
    2   0.7562960   2.0313448   1.6265844   1.4272270   1.1633703  -0.0546415
    3  -0.9958500   0.5099390   0.7056397   0.9968224  -0.8607793  -1.5268443
          163         164         165         166         167         168
    1   1.0596098   1.8504427   0.3298476  -0.1851535  -0.3963724  -1.6180287
    2   0.2271829  -1.2620635   0.3511697   1.1741252   3.0568795  -0.0450983
    3  -1.2320772   0.0867988  -2.7940766  -1.3537159  -1.7651469  -1.2317176
          169         170         171         172         173         174
    1   1.2642759  -0.8481394  -1.1838439  -1.5088223   0.0089862   0.8308327
    2   1.0907056   1.4357911   2.8843056  -0.3101571   1.7600325   2.5873974
    3   0.3122391   0.1368566  -1.0063200  -0.5214543   1.6476241  -1.7204049
          175         176         177         178         179         180
    1   2.1353656   1.8439121   1.7162404   0.6806448   0.4258103  -0.1633024
    2   2.1324606   1.1606044   1.8291382   1.5724763   0.7238400   3.3340906
    3  -0.6539246   0.6119047   2.2381762  -0.1901230  -1.6722221   0.0190972
          181         182         183         184         185         186
    1   0.8171366   1.8926126   0.5963532   2.2019574  -0.3995504  -0.1511899
    2   0.4752520  -1.1719235   1.3257544   1.3780001   2.9698051   0.0297424
    3   0.7381023   1.0437137   1.8871136   2.3218146   1.2416740   2.6971981
          187         188         189         190         191         192
    1  -0.3015754   0.0409807  -0.8062907  -0.6960065   2.3669898   2.5434140
    2   0.6131883  -0.1932265   2.4507085  -0.3884171  -0.7294243   0.6494368
    3  -0.1320356  -1.6706183  -0.4118217   1.1844044   0.6739586   1.7169818
          193         194         195         196         197         198
    1   0.7147405  -0.2535378   0.4708797   1.2203993  -0.9210477  -0.9135309
    2   0.6806788   1.8363053  -0.3383811  -1.6281980  -0.2140930  -1.3050437
    3   2.0757056   1.2649572   1.4001967   2.1840691   1.2876692   0.1717914
          199         200         201         202         203         204
    1  -1.0765806  -1.3950671   0.6310561  -0.1604162   2.5008010  -0.4160600
    2  -0.3955299   1.1756544   0.1986227  -0.9871444   0.3905311   1.4240929
    3   3.2102699   0.4123900  -0.1642055  -1.0315915   0.3237424  -0.6704523
          205         206         207         208         209         210
    1  -0.0115076   1.3761095  -0.3475636  -0.3560290  -1.4600319  -1.1578313
    2   0.0554956  -1.6116440  -0.6756954   1.1648867  -1.4040202  -3.1653338
    3   3.5622933   1.9646961   2.1668187   1.9481487   1.3516528   1.1313502
          211         212         213         214         215         216
    1  -3.1108189  -0.9725393   0.5629466  -1.4716048  -0.1340043  -1.4135979
    2  -0.3796098  -1.1259323   0.4191157  -1.6929842  -0.1248440  -1.0894601
    3   1.0146602   0.8269098   0.3960509  -0.6478528  -2.4145430   3.0024575
          217         218         219         220         221         222
    1  -2.8740124  -1.3811578  -1.3492872  -1.2276163   0.2789541  -1.1569441
    2   0.7060132  -0.0120272  -1.3500556  -0.5383960  -0.8612366   0.5082537
    3   1.3600710   1.5071390   2.3807628  -0.0232776  -0.1233226  -0.7038609
          223         224         225         226         227         228
    1  -2.6366582   0.0168265  -2.1336529  -0.7574883   0.5633057   0.4100459
    2  -1.6619741   0.9707352  -0.3735244   1.0576663   1.0144159   0.6701913
    3  -0.2942592   1.8284781   2.2506662   2.2101618   3.1521843   1.6555768
          229         230         231         232         233         234
    1   1.5034466   0.6456875  -0.0863757  -0.6865924  -0.7924435  -1.5242733
    2   2.1432255  -1.0120152   0.6583328  -0.8389541  -1.6713038  -0.3350338
    3   1.1724209   2.0362260   1.2720261   1.2816516   1.6864727  -0.2060196
          235         236         237         238         239         240
    1  -1.8183451  -1.1163745  -1.6058074  -2.2694109  -1.0863888  -1.4373740
    2  -0.7557204   0.9692280   0.8903187   0.4001275   2.0381661   2.4742704
    3  -0.6620324  -0.4920469  -1.3178218  -2.0759609  -1.2704431  -2.0985581
          241         242         243         244         245         246
    1  -0.1825814   0.2059870   0.3113484   1.0895784  -0.2392393  -1.3594732
    2   2.6630551   3.5825815   2.2320430   2.7269860   1.4788343   2.7120120
    3  -0.2646310  -0.3158469   0.8732545   1.7693814   0.6179930   1.4079968
 EField
            1           2           3           4           5           6
    1  -0.0019278   0.0079030  -0.0042626  -0.0138298  -0.0216846  -0.0081899
    2   0.0310973   0.0436708   0.0212768   0.0157600   0.0138591   0.0132939
    3  -0.0058698  -0.0151369   0.0020799  -0.0005322   0.0060609   0.0044728
            7           8           9          10          11          12
    1  -0.0057152  -0.0183716  -0.0131807  -0.0142128  -0.0146765  -0.0082784
    2   0.0189528   0.0070163   0.0002075  -0.0036597   0.0010674  -0.0029037
    3  -0.0046961  -0.0038290   0.0009213   0.0045941   0.0069306   0.0048265
           13          14          15          16          17          18
    1  -0.0050344  -0.0036485  -0.0093993  -0.0085570  -0.0056786  -0.0038282
    2  -0.0044081  -0.0026340  -0.0005718  -0.0025875  -0.0039884  -0.0037059
    3   0.0058162   0.0054972   0.0104958   0.0056390   0.0049601   0.0040675
           19          20          21          22          23          24
    1  -0.0021459  -0.0017938  -0.0003413  -0.0408447  -0.0055140  -0.0065358
    2  -0.0073081  -0.0036801   0.0151813   0.0275880   0.0087250   0.0094708
    3   0.0075228   0.0036891   0.0111208   0.0093988   0.0019417   0.0078352
           25          26          27          28          29          30
    1  -0.0054376  -0.0038329  -0.0092154  -0.0320007  -0.0097129  -0.0116381
    2   0.0201521   0.0103692   0.0053393   0.0055766   0.0010487   0.0001102
    3  -0.0011165  -0.0125997  -0.0060230  -0.0168314   0.0012975   0.0002354
           31          32          33          34          35          36
    1  -0.0147054  -0.0094128  -0.0080409  -0.0028752  -0.0002828  -0.0122389
    2  -0.0126126   0.0026266  -0.0015413  -0.0017363  -0.0026380  -0.0044054
    3   0.0043790   0.0039345   0.0031748   0.0008540   0.0068279   0.0192013
           37          38          39          40          41          42
    1  -0.0050922  -0.0090936  -0.0092164  -0.0054832  -0.0045863  -0.0043510
    2   0.0029092  -0.0019026  -0.0018003  -0.0033630  -0.0056800  -0.0031428
    3   0.0092963   0.0031807   0.0061530   0.0033551   0.0059927   0.0022111
           43          44          45          46          47          48
    1   0.0005470  -0.0004458  -0.0032023  -0.0010949   0.0204895  -0.0008542
    2  -0.0064519  -0.0061256  -0.0139479  -0.0041844  -0.0324586  -0.0003518
    3   0.0078289   0.0069580   0.0082840   0.0043479   0.0086041  -0.0005147
           49          50          51          52          53          54
    1   0.0077846   0.0003737  -0.0158549  -0.0062805  -0.0000165   0.0009422
    2   0.0076905   0.0000167  -0.0292960  -0.0109520   0.0019792   0.0046551
    3  -0.0366239  -0.0007548  -0.0158791   0.0346241  -0.0022999   0.0056627
           55          56          57          58          59          60
    1   0.0008403   0.0032445  -0.0178015   0.0141208  -0.0506977  -0.0047704
    2  -0.0318903  -0.0050218   0.0052287  -0.0328861   0.0205891   0.0010849
    3  -0.0286931   0.0018256  -0.0410268   0.0001380  -0.1140627  -0.0171142
           61          62          63          64          65          66
    1   0.0053426   0.0090550  -0.0014803   0.0185409   0.0187992   0.0315612
    2  -0.0159865   0.0127975  -0.0048647  -0.0082741   0.0284940  -0.0217666
    3  -0.0046619   0.0308249  -0.0093443   0.0389884   0.0174895  -0.0034972
           67          68          69          70          71          72
    1  -0.0023795  -0.0215710  -0.0002784   0.0226720   0.0038197   0.0087106
    2  -0.0002372  -0.0074849   0.0000268   0.0085609  -0.0016510   0.0398762
    3   0.0041148  -0.0314612  -0.0014526   0.0265441  -0.0013929  -0.0054413
           73          74          75          76          77          78
    1  -0.0269088  -0.0178977   0.0009742  -0.0202093   0.0299503  -0.0248314
    2  -0.0059047  -0.0024740   0.0039220  -0.0087249  -0.0257565  -0.0123327
    3  -0.0295126   0.0284039   0.0001159   0.0311611   0.0000362  -0.0290372
           79          80          81          82          83          84
    1   0.0124205  -0.0301629   0.0068879  -0.0028098   0.0101283   0.0079974
    2   0.0369042   0.0166381   0.0011166  -0.0345223  -0.0054552   0.0334568
    3  -0.0058613   0.0036431  -0.0008480  -0.0058905  -0.0037389   0.0028592
           85          86          87          88          89          90
    1  -0.0062267   0.0080242   0.0648405   0.0450928   0.0247173  -0.0217557
    2  -0.0049750   0.0003214  -0.0122073  -0.0337896   0.0017519   0.0029580
    3  -0.0323414  -0.0079469   0.0721587  -0.0920915   0.0283731  -0.0323930
           91          92          93          94          95          96
    1   0.0002323  -0.0230129   0.0004047  -0.0023329   0.0777526   0.0067676
    2   0.0025195  -0.0198745   0.0335959   0.0077173   0.0496051   0.0106837
    3   0.0023941   0.0272969   0.0156185   0.0084315   0.0655159  -0.0029581
           97          98          99         100         101         102
    1  -0.0367810   0.0167846   0.0236352  -0.0022233  -0.0193797   0.0332863
    2  -0.0166546  -0.0071538   0.0212387   0.0017001  -0.0222085  -0.0172152
    3  -0.0209593   0.0029161   0.0188726   0.0058850  -0.0227108  -0.0022013
          103         104         105         106         107         108
    1   0.0002982  -0.0331806  -0.0001093  -0.0154631  -0.0221659   0.0342172
    2   0.0003279   0.0165641   0.0049214  -0.0057100  -0.0197640  -0.0189245
    3   0.0016055   0.0026756   0.0002060   0.0338843  -0.0243022   0.0025749
          109         110         111         112         113         114
    1  -0.0029974   0.0379887  -0.0002841  -0.0122750   0.0124267   0.0103254
    2   0.0026085  -0.0110936   0.0408914  -0.0041180   0.0039981  -0.0031740
    3  -0.0014968   0.0005994  -0.0023431   0.0373380  -0.0323270  -0.0364127
          115         116         117         118         119         120
    1  -0.0051299   0.0137239  -0.0005765  -0.0109004  -0.0006181   0.0164741
    2   0.0000378   0.0351848   0.0014650  -0.0318576  -0.0000487  -0.0256237
    3   0.0011572   0.0123488   0.0005481  -0.0104476  -0.0034184   0.0236501
          121         122         123         124         125         126
    1   0.0094994  -0.0388634  -0.0017038   0.0090492   0.0046765  -0.0400201
    2   0.0355699  -0.0034958  -0.0025558   0.0360238  -0.0018167   0.0007745
    3   0.0174239   0.0081877   0.0035234   0.0091468  -0.0374183   0.0045246
          127         128         129         130         131         132
    1   0.0202758  -0.0286296  -0.0009497   0.0250597  -0.0002244   0.0270793
    2  -0.0256886   0.0221940   0.0004720  -0.0038996   0.0009167  -0.0202349
    3   0.0191026   0.0137994  -0.0007604   0.0285530  -0.0002613  -0.0110352
          133         134         135         136         137         138
    1  -0.0131700  -0.0031886  -0.0083343   0.0402312  -0.0022990   0.0139078
    2  -0.0226735   0.0028719   0.0010812  -0.0003806   0.0007940   0.0081414
    3   0.0248372  -0.0033482   0.0021023  -0.0085329   0.0080017  -0.0381112
          139         140         141         142         143         144
    1   0.0063978  -0.0253497   0.0040746  -0.0415569   0.0028493  -0.0138921
    2   0.0025220   0.0122467   0.0038852   0.0062358   0.0033521  -0.0052285
    3   0.0073335  -0.0293820   0.0008409   0.0097251  -0.0077751   0.0389877
          145         146         147         148         149         150
    1   0.0160089  -0.0053145  -0.0049485   0.0253830  -0.0009825   0.0062268
    2   0.0242985  -0.0165906   0.0013365  -0.0204007   0.0006727   0.0177761
    3  -0.0248815   0.0347136  -0.0022857  -0.0184607  -0.0002942  -0.0304688
          151         152         153         154         155         156
    1   0.0004937  -0.0107927   0.0222384  -0.0348298   0.0014417  -0.0127908
    2   0.0052093  -0.0178224  -0.0228031   0.0032940  -0.0022747  -0.0151292
    3   0.0014974   0.0324444  -0.0200934  -0.0206714  -0.0019147   0.0353214
          157         158         159         160         161         162
    1  -0.0368916   0.0129167   0.0168685   0.0141307  -0.0011527   0.0297312
    2   0.0068031   0.0356160   0.0344977   0.0115781  -0.0003394  -0.0154969
    3  -0.0176043   0.0085308   0.0066745   0.0340373   0.0014048  -0.0175080
          163         164         165         166         167         168
    1   0.0019702   0.0070416  -0.0101018  -0.0022201  -0.0095950  -0.0309026
    2  -0.0011633  -0.0323769  -0.0116438  -0.0018658   0.0326665  -0.0208922
    3  -0.0002582   0.0151176  -0.0314650  -0.0110165  -0.0136091  -0.0049632
          169         170         171         172         173         174
    1   0.0380037  -0.0122246  -0.0184559  -0.0243862  -0.0037760  -0.0060234
    2  -0.0032498   0.0005627   0.0296842  -0.0321816   0.0068436   0.0331996
    3   0.0203876   0.0036233  -0.0146784  -0.0031247   0.0389524  -0.0179337
          175         176         177         178         179         180
    1   0.0196079  -0.0034490   0.0066307  -0.0034029  -0.0071349  -0.0182936
    2   0.0205493  -0.0006164   0.0155449  -0.0034469  -0.0122035   0.0324833
    3  -0.0242142  -0.0007993   0.0342715   0.0023427  -0.0348515  -0.0024655
          181         182         183         184         185         186
    1  -0.0022239   0.0171771  -0.0008950   0.0316910  -0.0216461  -0.0208908
    2   0.0008561  -0.0324424  -0.0027747   0.0079438   0.0330691  -0.0226843
    3  -0.0022985   0.0033353  -0.0043560   0.0178379  -0.0022316   0.0236279
          187         188         189         190         191         192
    1  -0.0004229  -0.0026889  -0.0274910  -0.0273938   0.0165976   0.0372507
    2  -0.0001376  -0.0187668   0.0291417  -0.0228346  -0.0339028   0.0078142
    3   0.0002602  -0.0356857  -0.0100993   0.0188684  -0.0000272  -0.0007423
          193         194         195         196         197         198
    1  -0.0027617  -0.0174958  -0.0019679   0.0153942   0.0023760  -0.0150842
    2  -0.0032854   0.0339055   0.0013975  -0.0289670   0.0002775  -0.0282602
    3  -0.0048755  -0.0122886  -0.0019409   0.0095557  -0.0046247  -0.0224413
          199         200         201         202         203         204
    1  -0.0154614  -0.0224404  -0.0045697  -0.0094596   0.0371533  -0.0194505
    2  -0.0041432   0.0322522  -0.0000707  -0.0265492   0.0052140   0.0331016
    3   0.0336775  -0.0194035   0.0016871  -0.0245220  -0.0045891  -0.0183318
          205         206         207         208         209         210
    1  -0.0110199   0.0359823   0.0014527   0.0066014  -0.0007284  -0.0067141
    2  -0.0041586  -0.0111329   0.0045729   0.0400274   0.0013101  -0.0360104
    3   0.0356248   0.0063913   0.0016192  -0.0002073   0.0072499   0.0029503
          211         212         213         214         215         216
    1  -0.0367318   0.0028391   0.0775911  -0.0756419  -0.0010588  -0.0190237
    2   0.0132825   0.0127936   0.0881068  -0.0793792   0.0100379  -0.0070594
    3   0.0012939   0.0274171   0.0035536   0.0155063   0.0222315   0.0334838
          217         218         219         220         221         222
    1  -0.0313618   0.0007169   0.0004524   0.0016258   0.0362002   0.0015403
    2   0.0213932   0.0026553  -0.0248268   0.0106897  -0.0079952   0.0352696
    3   0.0021217  -0.0047722   0.0252893  -0.0071020  -0.0079758  -0.0356976
          223         224         225         226         227         228
    1  -0.0266206   0.0279921  -0.0293440   0.0000188   0.0200248  -0.0008023
    2  -0.0192318   0.0266665  -0.0227413  -0.0014738   0.0039997  -0.0007613
    3  -0.0148187   0.0087558   0.0054275  -0.0038672   0.0311536  -0.0013837
          229         230         231         232         233         234
    1   0.0302747   0.0165726  -0.0035625   0.0127699  -0.0004734  -0.0101513
    2   0.0186295  -0.0310190  -0.0052499   0.0073618  -0.0419147  -0.0142273
    3  -0.0083426   0.0053776  -0.0055739   0.0061335   0.0124679  -0.0116566
          235         236         237         238         239         240
    1  -0.0179480   0.0075296   0.0082925  -0.0222642   0.0044828  -0.0134984
    2  -0.0407273   0.0146116   0.0028077  -0.0210304  -0.0099832   0.0182805
    3  -0.0337654  -0.0063422  -0.0012401  -0.0302446   0.0041189  -0.0317812
          241         242         243         244         245         246
    1  -0.0013906   0.0102573  -0.0064193   0.0249855  -0.0000953  -0.0169627
    2  -0.0112680   0.0363582  -0.0031855   0.0166055  -0.0032687   0.0324473
    3   0.0006038  -0.0051371  -0.0097878   0.0256106  -0.0035809  -0.0092507
  --- DONE ESP SUMMARY ---
 Total job time:  6.98s(wall), 93.20s(cpu) 
 Fri Aug  9 14:18:40 2024

        *************************************************************
        *                                                           *
        *  Thank you very much for using Q-Chem.  Have a nice day.  *
        *                                                           *
        *************************************************************


