
Running Job 1 of 2 19nt_mm_min_distance_cutoff6_xtb_optimized_spade_wb97x-v_631gd.in
qchem 19nt_mm_min_distance_cutoff6_xtb_optimized_spade_wb97x-v_631gd.in_3054477.0 ./qchem3054477/ 1
srun -n 1 /cm/shared/apps/spack/0.17.3/cpu/b/opt/spack/linux-rocky8-zen2/gcc-10.2.0/qchem-6.0-rytxnwjazd34ekd2gqyi5ufsaimxsd3r/exe/qcprog.exe 19nt_mm_min_distance_cutoff6_xtb_optimized_spade_wb97x-v_631gd.in_3054477.0 ./qchem3054477/

                  Welcome to Q-Chem
     A Quantum Leap Into The Future Of Chemistry


 Q-Chem 6.0, Q-Chem, Inc., Pleasanton, CA (2022)

 License issued to: University of California, San Diego (site)

 E. Epifanovsky,  A. T. B. Gilbert,  Xintian Feng,  Joonho Lee,  Yuezhi Mao,  
 N. Mardirossian,  P. Pokhilko,  A. White,  M. Wormit,  M. P. Coons,  
 A. L. Dempwolff,  Zhengting Gan,  D. Hait,  P. R. Horn,  L. D. Jacobson,  
 I. Kaliman,  J. Kussmann,  A. W. Lange,  Ka Un Lao,  D. S. Levine,  Jie Liu,  
 S. C. McKenzie,  A. F. Morrison,  K. Nanda,  F. Plasser,  D. R. Rehn,  
 M. L. Vidal,  Zhi-Qiang You,  Ying Zhu,  B. Alam,  B. Albrecht,  
 A. Aldossary,  E. Alguire,  J. H. Andersen,  V. Athavale,  D. Barton,  
 K. Begam,  A. Behn,  N. Bellonzi,  Y. A. Bernard,  E. J. Berquist,  
 H. Burton,  A. Carreras,  K. Carter-Fenk,  Romit Chakraborty,  
 Chandrima Chakravarty,  Junhan Chen,  A. D. Chien,  K. D. Closser,  
 V. Cofer-Shabica,  L. Cunha,  S. Dasgupta,  Jia Deng,  M. de Wergifosse,  
 M. Diedenhofen,  Hainam Do,  S. Ehlert,  Po-Tung Fang,  S. Fatehi,  
 Qingguo Feng,  T. Friedhoff,  B. Ganoe,  J. Gayvert,  Qinghui Ge,  
 G. Gidofalvi,  M. Goldey,  J. Gomes,  C. Gonzalez-Espinoza,  S. Gulania,  
 A. Gunina,  J. A. Gyamfi,  M. W. D. Hanson-Heine,  P. H. P. Harbach,  
 A. W. Hauser,  M. F. Herbst,  M. Hernandez Vera,  M. Hodecker,  
 Z. C. Holden,  S. Houck,  Xunkun Huang,  Kerwin Hui,  B. C. Huynh,  
 K. Ikeda,  M. Ivanov,  Hyunjun Ji,  Zuxin Jin,  Hanjie Jiang,  B. Kaduk,  
 S. Kaehler,  R. Kang,  K. Khistyaev,  Jaehoon Kim,  Yongbin Kim,  
 P. Klunzinger,  Z. Koczor-Benda,  Joong Hoon Koh,  D. Kosenkov,  
 Saikiran Kotaru,  L. Koulias,  T. Kowalczyk,  C. M. Krauter,  K. Kue,  
 A. Kunitsa,  T. Kus,  A. Landau,  K. V. Lawler,  D. Lefrancois,  S. Lehtola,  
 Rain Li,  Shaozhi Li,  Yi-Pei Li,  Jiashu Liang,  M. Liebenthal,  
 Hung-Hsuan Lin,  You-Sheng Lin,  Fenglai Liu,  Kuan-Yu Liu,  
 M. Loipersberger,  A. Luenser,  C. Malbon,  A. Manjanath,  P. Manohar,  
 E. Mansoor,  S. F. Manzer,  Shan-Ping Mao,  A. V. Marenich,  T. Markovich,  
 S. Mason,  F. Matz,  S. A. Maurer,  P. F. McLaughlin,  M. F. S. J. Menger,  
 J.-M. Mewes,  S. A. Mewes,  P. Morgante,  Mohammad Mostafanejad,  
 J. W. Mullinax,  K. J. Oosterbaan,  G. Paran,  V. Parravicini,  
 Alexander C. Paul,  Suranjan K. Paul,  F. Pavosevic,  Zheng Pei,  S. Prager,  
 E. I. Proynov,  E. Ramos,  B. Rana,  A. E. Rask,  A. Rettig,  R. M. Richard,  
 F. Rob,  E. Rossomme,  T. Scheele,  M. Scheurer,  M. Schneider,  
 P. E. Schneider,  N. Sergueev,  S. M. Sharada,  Hengyuan Shen,  
 W. Skomorowski,  D. W. Small,  C. J. Stein,  Yingli Su,  Yu-Chuan Su,  
 E. J. Sundstrom,  Zhen Tao,  J. Thirman,  Hung-Yi Tsai,  T. Tsuchimochi,  
 N. M. Tubman,  C. Utku,  S. P. Veccham,  O. Vydrov,  J. Wenzel,  
 Jonathan Wong,  J. Witte,  A. Yamada,  Chou-Hsun Yang,  Kun Yao,  
 S. Yeganeh,  S. R. Yost,  A. Zech,  F. Zeller,  Igor Ying Zhang,  
 Xing Zhang,  Yu Zhang,  D. Zuev,  A. Aspuru-Guzik,  A. T. Bell,  
 N. A. Besley,  K. B. Bravaya,  B. R. Brooks,  D. Casanova,  Jeng-Da Chai,  
 Hsing-Ta Chen,  S. Coriani,  C. J. Cramer,  A. E. DePrince, III,  
 R. A. DiStasio Jr.,  A. Dreuw,  B. D. Dunietz,  T. R. Furlani,  
 W. A. Goddard III,  S. Grimme,  S. Hammes-Schiffer,  T. Head-Gordon,  
 W. J. Hehre,  Chao-Ping Hsu,  T.-C. Jagau,  Yousung Jung,  A. Klamt,  
 Jing Kong,  D. S. Lambrecht,  Xiangyuan Li,  WanZhen Liang,  N. J. Mayhall,  
 C. W. McCurdy,  J. B. Neaton,  T. Neudecker,  C. Ochsenfeld,  
 J. A. Parkhill,  R. Peverati,  V. A. Rassolov,  Haisheng Ren,  Yihan Shao,  
 L. V. Slipchenko,  R. P. Steele,  J. E. Subotnik,  A. J. W. Thom,  
 A. Tkatchenko,  D. G. Truhlar,  T. Van Voorhis,  Fan Wang,  
 T. A. Wesolowski,  K. B. Whaley,  H. L. Woodcock III,  P. M. Zimmerman,  
 S. Faraji,  P. M. W. Gill,  M. Head-Gordon,  J. M. Herbert,  A. I. Krylov

 Contributors to earlier versions of Q-Chem not listed above: 
 R. D. Adamson,  B. Austin,  R. Baer,  J. Baker,  G. J. O. Beran,  
 K. Brandhorst,  S. T. Brown,  E. F. C. Byrd,  Arup K. Chakraborty,  
 G. K. L. Chan,  Chun-Min Chang,  Yunqing Chen,  C.-L. Cheng,  
 Siu Hung Chien,  D. M. Chipman,  D. L. Crittenden,  H. Dachsel,  
 R. J. Doerksen,  A. D. Dutoi,  R. G. Edgar,  J. Fosso-Tande,  
 L. Fusti-Molnar,  D. Ghosh,  A. Ghysels,  A. Golubeva-Zadorozhnaya,  
 J. Gonthier,  M. S. Gordon,  S. R. Gwaltney,  G. Hawkins,  J. E. Herr,  
 A. Heyden,  S. Hirata,  E. G. Hohenstein,  G. Kedziora,  F. J. Keil,  
 C. Kelley,  Jihan Kim,  R. A. King,  R. Z. Khaliullin,  P. P. Korambath,  
 W. Kurlancheek,  A. Laurent,  A. M. Lee,  M. S. Lee,  S. V. Levchenko,  
 Ching Yeh Lin,  D. Liotard,  E. Livshits,  R. C. Lochan,  I. Lotan,  
 L. A. Martinez-Martinez,  P. E. Maslen,  N. Nair,  D. P. O'Neill,  
 D. Neuhauser,  E. Neuscamman,  C. M. Oana,  R. Olivares-Amaya,  R. Olson,  
 T. M. Perrine,  B. Peters,  P. A. Pieniazek,  A. Prociuk,  Y. M. Rhee,  
 J. Ritchie,  M. A. Rohrdanz,  E. Rosta,  N. J. Russ,  H. F. Schaefer III,  
 M. W. Schmidt,  N. E. Schultz,  S. Sharma,  N. Shenvi,  C. D. Sherrill,  
 A. C. Simmonett,  A. Sodt,  T. Stein,  D. Stuck,  K. S. Thanthiriwatte,  
 V. Vanovschi,  L. Vogt,  Tao Wang,  A. Warshel,  M. A. Watson,  
 C. F. Williams,  Q. Wu,  X. Xu,  Jun Yang,  W. Zhang,  Yan Zhao

   Please cite Q-Chem as follows:
  "Software for the frontiers of quantum chemistry:
   An overview of developments in the Q-Chem 5 package"
   J. Chem. Phys. 155, 084801 (2021)
   https://doi.org/10.1063/5.0055522 (open access)

 Q-Chem 6.0.2 for Intel X86 EM64T Linux

 Parts of Q-Chem use Armadillo 9.900.5 (Nocturnal Misbehaviour).
 http://arma.sourceforge.net/

 Q-Chem begins on Fri Aug  9 13:56:24 2024  

 Host: 
0

     Scratch files written to ./qchem3054477//
 Dec722 |scratch|qcdevops|jenkins|workspace|build_RNUM    
 Processing $rem in /cm/shared/apps/spack/0.17.3/cpu/b/opt/spack/linux-rocky8-zen2/gcc-10.2.0/qchem-6.0-rytxnwjazd34ekd2gqyi5ufsaimxsd3r/config/preferences:
 Processing $rem in /home/hklem/.qchemrc:
 No nuclear gradient supported for projection-based embedding or EMFT. Set max ideriv = 0.

 Checking the input file for inconsistencies... 	...done.

--------------------------------------------------------------
User input:
--------------------------------------------------------------
$molecule
-1 1
--
0 1
C    3.20800    2.48900    -8.95600
O    2.88100    1.39600    -8.45000
C    3.12400    3.71800    -8.25200
C    3.37100    4.92500    -8.82600
C    3.91400    5.03000    -10.21700
C    4.60000    3.71800    -10.60700
C    3.65000    2.54900    -10.39100
C    2.99300    6.16300    -8.10500
C    3.89000    7.35900    -8.40000
C    4.10400    7.51100    -9.90200
C    4.83300    6.25600    -10.40600
C    4.92400    8.75000    -10.22700
C    5.22500    8.90200    -11.72700
C    6.03900    7.68600    -12.16400
C    5.28000    6.38900    -11.86800
C    4.36300    10.11800   -9.84900
C    5.26500    11.08700   -10.63300
C    6.01100    10.23600   -11.68600
C    3.98200    9.05700    -12.60800
O    6.16300    10.89000   -12.92700
H    2.75500    3.66800    -7.23800
H    3.04800    5.17100    -10.88100
H    5.49700    3.57800    -9.99800
H    4.89800    3.74200    -11.65400
H    2.75300    2.69300    -11.00500
H    4.11000    1.60100    -10.67800
H    2.94100    5.97500    -7.03200
H    1.96800    6.39400    -8.42500
H    4.85500    7.21700    -7.90700
H    3.44100    8.26100    -7.98700
H    3.13200    7.58600    -10.38800
H    5.72600    6.11200    -9.78800
H    5.89100    8.65100    -9.72000
H    6.99600    7.68300    -11.63900
H    6.25500    7.72200    -13.23300
H    4.40500    6.32300    -12.51700
H    5.94200    5.55900    -12.11800
H    4.40000    10.30600   -8.77900
H    3.32600    10.20600   -10.16900
H    5.97400    11.58500   -9.97300
H    4.67700    11.85900   -11.13000
H    7.03200    10.02100   -11.35200
H    3.45000    9.97700    -12.39600
H    4.27100    9.06600    -13.65600
H    3.29600    8.23100    -12.46400
H    5.39900    11.48500   -13.06900
--
-1 1
H    6.93800    -6.30100   -9.16000
C    6.29300    -5.47300   -9.46000
H    5.80000    -5.72200   -10.40000
C    5.23400    -5.20700   -8.37900
H    4.60800    -6.09600   -8.27500
H    5.72500    -5.02200   -7.42000
C    4.39100    -4.01800   -8.74900
C    3.22900    -4.15200   -9.49700
H    2.89300    -5.13600   -9.79000
C    2.48800    -3.04500   -9.86500
H    1.58300    -3.15200   -10.44300
C    2.90900    -1.77400   -9.48900
O    2.18500    -0.69000   -9.87900
H    2.50400    0.10900    -9.37400
C    4.06700    -1.63000   -8.73500
H    4.38800    -0.64400   -8.43100
C    4.79500    -2.74400   -8.37500
H    5.69600    -2.62500   -7.79400
C    7.14600    -4.22000   -9.72800
O    7.00400    -3.54600   -10.73100
N    8.06400    -3.91400   -8.78300
H    8.16900    -4.52200   -7.98700
C    8.99900    -2.78800   -8.85600
H    8.51500    -1.99400   -9.42400
C    9.40600    -2.32900   -7.45600
H    9.73300    -3.21800   -6.89800
C    10.59700   -1.37900   -7.54300
H    10.87000   -1.02900   -6.55100
H    10.35300   -0.52000   -8.15700
H    11.45800   -1.88000   -7.98100
C    8.24200    -1.70800   -6.67400
H    7.48500    -2.47500   -6.49800
H    8.60800    -1.40600   -5.69200
C    7.58800    -0.50500   -7.34100
H    6.80400    -0.12000   -6.69400
H    7.14400    -0.77000   -8.29600
H    8.30500    0.29500    -7.49700
H    9.89100    -3.10600   -9.41100
H    7.92400    -1.85100   -13.13800
C    8.00100    -0.81000   -13.44200
H    7.14900    -0.57700   -14.07700
C    8.00700    0.09300    -12.21000
H    8.87300    -0.17300   -11.59300
C    8.12300    1.55900    -12.61900
H    9.04400    1.74100    -13.17000
H    7.28700    1.82800    -13.25700
H    8.10400    2.20800    -11.74700
C    6.74400    -0.12800   -11.38300
H    6.75200    0.50500    -10.49700
H    6.67000    -1.16800   -11.07400
H    5.86300    0.11100    -11.97300
H    8.91200    -0.67900   -14.02400
H    3.36100    -5.61000   -15.38500
C    2.46600    -5.23000   -14.89600
H    2.17300    -5.93700   -14.12200
C    2.72300    -3.85400   -14.28500
H    3.04000    -3.17400   -15.08400
C    1.43700    -3.30800   -13.67000
H    1.08600    -3.97100   -12.88200
H    0.65700    -3.22700   -14.42500
H    1.60000    -2.32000   -13.25100
C    3.85200    -3.94700   -13.25300
H    3.49300    -4.49100   -12.37600
H    4.67300    -4.52300   -13.68500
C    4.39600    -2.59600   -12.81100
H    5.23200    -2.74500   -12.13400
H    4.74000    -2.02500   -13.67100
H    3.63700    -2.01800   -12.29200
H    1.66800    -5.18100   -15.63400
H    -2.20500   -6.95900   -11.94900
C    -3.24800   -7.12900   -11.69300
H    -3.32600   -7.20300   -10.61100
C    -4.11600   -5.98000   -12.20800
H    -4.03400   -5.92900   -13.29600
H    -5.16000   -6.17200   -11.95400
C    -3.67200   -4.67900   -11.60200
C    -2.54900   -4.02600   -12.09200
H    -2.01700   -4.43900   -12.93800
C    -2.10000   -2.85300   -11.52000
H    -1.22400   -2.36100   -11.91500
C    -2.77600   -2.29700   -10.43700
O    -2.38300   -1.14000   -9.85600
H    -1.61200   -0.78100   -10.33500
C    -3.89900   -2.95000   -9.93500
H    -4.41900   -2.51800   -9.09400
C    -4.33300   -4.12700   -10.51300
H    -5.20700   -4.62200   -10.11300
H    -3.56300   -8.07500   -12.13000
H    -3.93600   6.31900    -7.52300
C    -2.89700   6.65100    -7.59600
H    -2.44200   6.61800    -6.60900
C    -2.13000   5.73200    -8.54600
H    -2.61100   5.70700    -9.52500
H    -2.09400   4.71600    -8.14400
C    -0.69300   6.24200    -8.73100
O    -0.19100   6.92900    -7.82700
O    -0.10200   5.95000    -9.80100
C    -2.89600   8.06100    -8.16500
O    -3.23100   8.28100    -9.31800
N    -2.53200   9.07400    -7.35200
C    -2.54800   10.43900   -7.85100
H    -1.65000   10.63100   -8.44800
H    -3.41800   10.58300   -8.49400
C    -2.55800   11.29200   -6.58900
H    -2.14500   12.28400   -6.75700
H    -3.57600   11.39200   -6.20900
C    -1.71200   10.45900   -5.62800
H    -1.89600   10.69900   -4.58200
H    -0.65500   10.61500   -5.83900
C    -2.11100   9.02100    -5.96300
H    -1.27600   8.32900    -5.83800
H    -2.94500   8.68900    -5.33100
H    -3.23600   3.88800    -17.83000
C    -2.74400   4.46800    -17.04300
H    -2.90900   5.52200    -17.26900
C    -3.35500   4.11100    -15.68900
H    -3.23100   3.04600    -15.47500
H    -4.43100   4.29900    -15.75700
C    -2.79900   4.93200    -14.55700
C    -2.91900   6.31900    -14.57300
H    -3.38700   6.80800    -15.41500
C    -2.46500   7.07900    -13.51000
H    -2.56800   8.15200    -13.52600
C    -1.89300   6.46100    -12.41100
H    -1.57200   7.05000    -11.56800
C    -1.75600   5.08300    -12.39000
H    -1.31200   4.60400    -11.53100
C    -2.19900   4.32300    -13.46100
H    -2.09800   3.24600    -13.43000
C    -1.24000   4.21700    -17.22400
O    -0.58700   4.91500    -17.98500
N    -0.68100   3.16800    -16.59000
H    -1.18300   2.68900    -15.85900
C    0.70200    2.74100    -16.78900
H    1.34900    3.23700    -16.05600
C    0.80700    1.22100    -16.63700
H    0.08200    0.74500    -17.30000
H    1.80700    0.91400    -16.94400
C    0.56300    0.80600    -15.21200
C    -0.71100   0.48500    -14.75800
H    -1.54200   0.47100    -15.45000
C    -0.93700   0.14900    -13.43700
H    -1.92900   -0.09700   -13.09100
C    0.12700    0.10800    -12.53900
O    -0.11800   -0.25600   -11.25400
H    0.72300    -0.38900   -10.76500
C    1.40600    0.41900    -12.98500
H    2.23400    0.37100    -12.29200
C    1.61300    0.77400    -14.30300
H    2.61100    1.01700    -14.63500
H    0.99200    3.06300    -17.79200
H    0.33600    6.26600    -19.60300
C    0.86700    7.20600    -19.74800
H    1.18800    7.29500    -20.78600
C    -0.05500   8.37300    -19.38100
H    -0.87100   8.41400    -20.10400
H    0.49300    9.31500    -19.44300
C    -0.65700   8.21500    -17.98900
H    -0.97200   7.17600    -17.85900
H    0.07000    8.45800    -17.21900
C    -1.89200   9.07400    -17.77200
O    -2.65900   9.40000    -18.65900
N    -2.08700   9.37400    -16.47500
H    -1.36300   9.17800    -15.79000
H    -2.84600   9.98500    -16.22200
C    2.14500    7.19200    -18.88200
O    3.23400    7.52300    -19.33300
N    2.02500    6.75600    -17.60200
H    1.11800    6.41800    -17.31200
C    2.95800    7.05400    -16.50600
H    2.55600    6.57800    -15.61100
H    3.00400    8.13500    -16.34000
C    4.40000    6.58800    -16.68400
O    5.31700    7.20100    -16.14000
N    4.61900    5.47500    -17.39400
H    3.82500    5.03000    -17.83000
C    5.92200    4.85100    -17.60600
H    6.66400    5.41700    -17.04200
C    5.88400    3.38500    -17.16900
H    5.26400    2.82900    -17.87800
H    6.89900    2.99400    -17.24800
C    5.34400    3.16200    -15.75300
H    4.29900    3.49100    -15.71400
C    5.39100    1.66800    -15.43800
H    5.00400    1.47200    -14.44000
H    4.79800    1.10300    -16.15500
H    6.41500    1.30500    -15.48900
C    6.13500    3.95800    -14.72000
H    7.19900    3.75700    -14.81200
H    5.96900    5.02400    -14.84300
H    5.81500    3.68700    -13.71700
C    6.32300    4.87800    -19.11400
O    7.22100    4.15500    -19.50700
N    5.59400    5.66000    -19.93000
H    4.92400    6.32700    -19.56100
C    5.82100    5.72800    -21.36900
H    6.53500    4.94900    -21.63100
H    4.87800    5.56800    -21.89100
H    6.22600    6.70200    -21.64200
H    11.25700   6.18800    -16.41500
C    11.19900   6.10800    -15.33000
H    11.52400   7.03600    -14.86400
C    9.74500    5.80900    -14.92000
H    9.48500    4.81000    -15.29000
C    9.56600    5.85100    -13.40600
H    10.14200   5.07600    -12.90700
H    9.87800    6.81700    -13.01500
H    8.51900    5.70800    -13.15200
C    8.82300    6.83100    -15.57900
H    9.07600    7.83300    -15.24400
H    8.90600    6.79700    -16.66300
H    7.79200    6.63100    -15.30300
C    12.15000   4.99600    -14.90300
O    12.45200   4.08800    -15.70000
N    12.65700   5.04700    -13.67000
H    12.43200   5.85800    -13.09100
C    13.42400   3.99900    -12.98400
H    13.33800   3.08200    -13.57500
C    14.89000   4.39400    -12.74300
H    15.51200   3.49900    -12.81500
H    15.03300   4.79500    -11.73100
C    15.42900   5.48900    -13.66000
H    16.40100   5.76900    -13.25300
H    14.78600   6.36700    -13.59700
C    15.55300   5.10800    -15.13700
H    14.57900   5.00600    -15.60700
H    16.10200   5.89100    -15.66700
N    16.28900   3.86900    -15.31400
H    17.24200   3.90800    -14.98100
C    15.76500   2.66600    -15.51500
N    14.48700   2.46400    -15.76200
H    13.70400   3.19200    -15.71600
H    14.18600   1.53200    -15.99300
N    16.60700   1.60500    -15.47900
H    17.59800   1.74100    -15.38700
H    16.28900   0.69700    -15.76400
C    12.70800   3.81500    -11.62700
O    12.08500   4.73200    -11.13300
N    12.80200   2.60500    -11.04600
H    13.31800   1.86700    -11.49700
C    12.09100   2.27300    -9.81500
H    11.81900   3.22100    -9.35000
C    10.84200   1.45600    -10.11200
H    10.23600   1.36800    -9.21500
H    11.09900   0.46100    -10.46700
H    10.24800   1.95600    -10.87200
H    12.76900   1.73200    -9.15200
H    5.47600    -2.01600   0.45900
C    6.37400    -1.50000   0.12600
H    7.18200    -1.73600   0.81400
C    6.74000    -1.92600   -1.29100
H    6.93600    -3.00000   -1.31800
H    7.65300    -1.41700   -1.60800
C    5.62500    -1.60200   -2.27100
H    5.43800    -0.52700   -2.30300
H    4.70400    -2.12300   -2.00100
S    6.07600    -2.12600   -3.96100
C    4.56800    -1.58200   -4.80300
H    3.71600    -2.08900   -4.36000
H    4.47700    -0.50400   -4.71800
H    4.65700    -1.86100   -5.84600
H    6.18800    -0.42900   0.16700
H    9.38200    2.59400    -2.13100
C    10.15200   2.62400    -2.89900
H    11.11400   2.41100    -2.43700
C    9.84600    1.60700    -4.00200
H    10.63500   1.64600    -4.75600
H    9.83600    0.60300    -3.57100
C    8.51500    1.89800    -4.63500
C    8.42600    2.56100    -5.85100
H    9.33300    2.85600    -6.36300
C    7.19200    2.84200    -6.41400
H    7.13500    3.35100    -7.36600
C    6.03100    2.47800    -5.75700
H    5.06400    2.69300    -6.18200
C    6.11100    1.84200    -4.53100
H    5.20000    1.59900    -4.00400
C    7.34200    1.54500    -3.97900
H    7.40300    1.03700    -3.02600
H    10.18000   3.62900    -3.31300
H    10.59500   6.36300    -7.63300
C    10.77900   6.35600    -8.70700
H    11.39900   5.50200    -8.97200
C    9.45100    6.30300    -9.47500
H    9.63400    6.63200    -10.50300
C    8.91100    4.87700    -9.51800
H    8.79200    4.48500    -8.51000
H    9.59800    4.23800    -10.06500
H    7.94600    4.85300    -10.01900
C    8.44900    7.25200    -8.83100
H    8.19700    6.91800    -7.82500
H    7.53700    7.30300    -9.41900
H    8.87600    8.24800    -8.77400
C    11.53000   7.64600    -9.08200
O    11.38000   8.69200    -8.46700
N    12.33500   7.54100    -10.15800
H    12.38200   6.65000    -10.63500
C    13.17500   8.59600    -10.71400
H    13.06000   9.48000    -10.08500
C    14.64200   8.12400    -10.79600
H    15.24900   8.93700    -11.20400
H    14.67900   7.28900    -11.50200
C    15.24600   7.62700    -9.49600
H    14.52700   7.00700    -8.95600
H    15.56300   8.44400    -8.84800
C    16.50000   6.70300    -9.81400
O    16.31200   5.83800    -10.69100
O    17.52000   6.92700    -9.16600
C    12.75700   8.84600    -12.16900
O    12.52700   7.90800    -12.92400
N    12.73200   10.12700   -12.58500
H    13.05200   10.87200   -11.97900
C    12.34000   10.55700   -13.91800
H    13.03300   10.12600   -14.65800
C    10.91500   10.08800   -14.25500
H    10.91200   9.00000    -14.19300
H    10.66800   10.35500   -15.28500
C    9.83800    10.61900   -13.31200
H    10.02100   11.64900   -13.01400
H    8.86200    10.56200   -13.79200
S    9.71300    9.60800    -11.77900
C    10.12400   10.83500   -10.51300
H    10.94800   11.44500   -10.86800
H    9.25200    11.45100   -10.30900
H    10.41900   10.28700   -9.62200
C    12.52900   12.10400   -13.99000
O    13.28800   12.65300   -13.20900
N    11.87800   12.76700   -14.97000
H    11.15600   12.30300   -15.50100
C    12.05200   14.18400   -15.29800
H    12.88900   14.54400   -14.69300
C    12.35200   14.34200   -16.79800
H    11.48900   13.95300   -17.34900
C    12.53600   15.81600   -17.14900
H    13.35700   16.24500   -16.57700
H    12.76600   15.92000   -18.20600
H    11.63200   16.38200   -16.93900
C    13.59500   13.54400   -17.18000
H    14.46000   13.90300   -16.62600
H    13.46300   12.48800   -16.96200
H    13.79700   13.65200   -18.24300
C    10.74900   14.96400   -14.95800
O    9.67400    14.55700   -15.34300
N    10.91100   16.13800   -14.30000
H    11.79300   16.31200   -13.84500
C    9.80200    17.02900   -13.94200
H    9.06100    16.93600   -14.73900
C    9.15500    16.63800   -12.60500
H    9.12300    15.54600   -12.55900
H    9.76100    16.99400   -11.77200
C    7.76500    17.16700   -12.50600
C    7.28400    18.13300   -11.67500
H    7.79700    18.69800   -10.92000
N    5.94700    18.33200   -11.90500
H    5.35900    18.97900   -11.40800
C    5.53800    17.49100   -12.90000
C    4.29000    17.32300   -13.48700
H    3.43800    17.90400   -13.16400
C    4.18200    16.39000   -14.49700
H    3.22800    16.23300   -14.97600
C    5.28500    15.63600   -14.91300
H    5.15900    14.92200   -15.71100
C    6.52400    15.79000   -14.32800
H    7.36500    15.19700   -14.65300
C    6.66200    16.73500   -13.30900
H    10.18300   18.05000   -13.91600
H    13.83300   15.42600   -10.42200
C    13.77300   14.35500   -10.23600
H    14.59800   14.06300   -9.59000
C    12.45300   14.00500   -9.57900
H    12.39600   12.94200   -9.34200
H    12.29200   14.58900   -8.67200
S    11.07800   14.39300   -10.73300
H    10.09800   14.09200   -9.88200
H    13.86800   13.83300   -11.18700
H    10.48600   10.61300   -6.61300
C    9.69400    10.70600   -5.87400
H    9.74300    11.70000   -5.43400
C    8.34500    10.44100   -6.52800
H    8.43600    9.53800    -7.13200
H    8.08900    11.26100   -7.20300
C    7.19800    10.23300   -5.53600
H    7.46900    9.41100    -4.86300
C    6.93200    11.47900   -4.69500
H    7.79900    11.73900   -4.09300
H    6.68400    12.32100   -5.33900
H    6.09400    11.30800   -4.02300
C    5.93800    9.84100    -6.30200
H    6.14000    9.00100    -6.96000
H    5.59400    10.67800   -6.90600
H    5.13600    9.56100    -5.62700
H    9.88300    9.97500    -5.09100
H    7.19000    6.68900    -3.10800
C    6.19200    6.37700    -2.80800
H    5.56400    7.26300    -2.74000
C    5.61400    5.39000    -3.81800
H    6.28000    4.52100    -3.87000
C    4.23300    4.91200    -3.37700
H    3.85800    4.15100    -4.05600
H    4.27800    4.48500    -2.37700
H    3.53100    5.74300    -3.36300
C    5.54000    6.02700    -5.20200
H    5.16500    5.30900    -5.92600
H    6.52500    6.35700    -5.52300
H    4.87600    6.89000    -5.18800
H    6.25800    5.92500    -1.82000
H    3.25100    0.71100    -2.44000
C    2.25600    1.14000    -2.53900
H    2.35200    2.22200    -2.57800
C    1.57900    0.63600    -3.80700
H    1.59000    -0.45400   -3.85800
H    0.53600    0.96500    -3.84100
C    2.22200    1.18400    -5.06300
O    2.89900    2.18000    -5.10600
O    1.94700    0.44800    -6.12800
H    2.31500    0.86900    -6.95500
H    1.67500    0.86600    -1.66200
H    -1.79800   -2.94600   -1.99900
C    -1.73000   -3.99000   -2.29700
H    -2.48300   -4.17900   -3.06000
C    -0.33800   -4.30400   -2.83100
H    -0.27500   -5.35800   -3.11100
H    0.40800    -4.12400   -2.05400
C    -0.01100   -3.44900   -4.04400
H    -0.02100   -2.38900   -3.78200
H    -0.72400   -3.62900   -4.84900
S    1.65000    -3.85600   -4.69200
C    1.56400    -2.99500   -6.28700
H    1.52300    -1.92100   -6.13300
H    2.46500    -3.25600   -6.83200
H    0.69100    -3.34300   -6.83200
H    -1.95400   -4.61000   -1.43300
H    -4.57800   -1.37500   -5.23000
C    -3.56100   -1.00800   -5.10800
H    -3.09800   -1.53800   -4.27800
C    -2.75600   -1.21100   -6.38600
H    -2.67600   -2.27900   -6.61000
H    -3.26400   -0.73700   -7.22800
C    -1.35400   -0.63600   -6.26300
H    -0.88800   -0.96000   -5.33400
H    -0.72600   -0.93100   -7.10200
S    -1.33200   1.18900    -6.21600
C    -1.07100   1.52200    -7.97900
H    -1.86100   1.05100    -8.55600
H    -0.09700   1.13900    -8.27000
H    -1.09700   2.59900    -8.11100
H    -3.60000   0.05100    -4.86200
H    -1.18300   4.61500    -4.15300
C    -0.09800   4.59100    -4.06900
H    0.17600    3.73900    -3.45100
C    0.54200    4.47700    -5.44300
H    1.62300    4.41500    -5.34300
H    0.29200    5.33200    -6.06700
H    0.19300    3.57500    -5.93900
H    0.22600    5.49800    -3.56200
H    1.48900    9.56700    -2.18500
C    2.45700    10.05100   -2.29800
H    2.96100    10.04900   -1.33300
C    3.29200    9.32000    -3.34800
H    4.27100    9.80200    -3.42300
H    3.44400    8.28600    -3.03200
C    2.61000    9.33300    -4.67700
C    1.91500    8.30600    -5.25100
H    1.76300    7.30800    -4.88800
N    1.38500    8.69000    -6.44600
H    0.82000    8.08700    -7.04300
C    1.72200    9.98700    -6.67300
C    1.42200    10.82900   -7.74000
H    0.80700    10.49200   -8.56200
C    1.91600    12.11300   -7.70800
H    1.70300    12.78600   -8.52600
C    2.69400    12.56400   -6.63700
H    3.06500    13.57900   -6.65200
C    2.98700    11.74500   -5.57100
H    3.58800    12.10500   -4.74800
C    2.50200    10.43700   -5.57500
H    2.28800    11.08200   -2.60000
H    9.07200    15.59300   -3.89900
C    9.16900    15.15900   -4.89200
H    8.62900    14.21600   -4.90200
C    8.61600    16.11700   -5.94200
H    9.10000    17.09000   -5.81900
H    7.54600    16.25900   -5.77200
C    8.83100    15.64700   -7.38500
H    9.90500    15.48000   -7.53500
C    8.09100    14.34200   -7.66800
H    7.04400    14.43100   -7.38700
H    8.13200    14.10300   -8.73000
H    8.53200    13.51700   -7.11600
C    8.37200    16.72900   -8.36200
H    7.30700    16.91500   -8.24200
H    8.90600    17.66000   -8.18300
H    8.55000    16.42100   -9.39000
H    10.22200   14.95600   -5.07600
O    1.03200    8.24000    -10.48800
H    1.15600    8.76600    -9.69600
H    0.57400    7.41400    -10.18600
O    6.48200    9.62800    -15.24300
H    6.33700    8.67500    -15.24300
H    6.40900    9.95300    -14.31700
O    1.41800    5.94200    -12.10200
H    1.52800    6.88900    -11.94300
H    0.78900    5.68000    -11.40800
O    5.41800    12.35300   -16.02300
H    6.15500    11.90500   -15.59300
H    4.81200    11.63100   -16.30800
O    4.16900    10.07500   -16.68500
H    4.91200    9.69600    -16.18200
H    4.40700    9.93600    -17.62300
O    1.90100    11.66700   -13.17000
H    1.74200    11.47400   -14.11600
H    2.70500    12.19900   -13.16500
O    4.40400    12.93100   -13.57400
H    4.62300    12.81600   -14.52400
H    4.67200    13.82600   -13.35300
O    7.11500    8.08100    -18.21500
H    6.62000    7.75200    -17.45300
H    6.48300    8.64600    -18.69100
O    8.45600    10.18300   -17.06900
H    8.22800    9.40600    -17.61500
H    7.86800    10.08000   -16.30200
O    -0.02500   9.75600    -12.52100
H    0.30400    9.21000    -11.78500
H    0.59600    10.49500   -12.61200
O    0.59500    5.91000    -14.65300
H    0.90900    5.85600    -13.72100
H    -0.32600   5.64200    -14.62500
O    1.61500    10.87900   -15.76300
H    2.47200    10.58400   -16.10000
H    1.10700    10.07600   -15.55500
O    5.32700    9.96400    -19.11500
H    5.89900    10.76700   -18.97300
H    4.83700    10.07600   -19.92800
O    6.89300    11.95500   -18.41900
H    7.59100    11.41500   -17.98600
H    6.41300    12.38200   -17.69200
O    0.19700    8.66500    -14.91100
H    0.37200    7.71500    -14.81300
H    0.06400    9.02900    -14.00000
$end

$rem
JOBTYPE  SP
METHOD  WB97X-V
BASIS  6-31G(D)
SYMMETRY  FALSE
SYM_IGNORE  TRUE
MEM_TOTAL  64000
MEM_STATIC  4000
BASIS_LIN_DEP_THRESH  6
THRESH  14
SCF_CONVERGENCE  8
FD_MAT_VEC_PROD  FALSE
XC_GRID  000075000302
NL_GRID  1
MAX_SCF_CYCLES  200
ENV_METHOD  WB97X-V
GEN_SCFMAN_EMBED  TRUE
SPADE_PARTITION  TRUE
EMBEDDING_EARLY_STOP  TRUE
$end

--------------------------------------------------------------
 ----------------------------------------------------------------
             Standard Nuclear Orientation (Angstroms)
    I     Atom           X                Y                Z
 ----------------------------------------------------------------
    1      C       3.2080000000     2.4890000000    -8.9560000000
    2      O       2.8810000000     1.3960000000    -8.4500000000
    3      C       3.1240000000     3.7180000000    -8.2520000000
    4      C       3.3710000000     4.9250000000    -8.8260000000
    5      C       3.9140000000     5.0300000000   -10.2170000000
    6      C       4.6000000000     3.7180000000   -10.6070000000
    7      C       3.6500000000     2.5490000000   -10.3910000000
    8      C       2.9930000000     6.1630000000    -8.1050000000
    9      C       3.8900000000     7.3590000000    -8.4000000000
   10      C       4.1040000000     7.5110000000    -9.9020000000
   11      C       4.8330000000     6.2560000000   -10.4060000000
   12      C       4.9240000000     8.7500000000   -10.2270000000
   13      C       5.2250000000     8.9020000000   -11.7270000000
   14      C       6.0390000000     7.6860000000   -12.1640000000
   15      C       5.2800000000     6.3890000000   -11.8680000000
   16      C       4.3630000000    10.1180000000    -9.8490000000
   17      C       5.2650000000    11.0870000000   -10.6330000000
   18      C       6.0110000000    10.2360000000   -11.6860000000
   19      C       3.9820000000     9.0570000000   -12.6080000000
   20      O       6.1630000000    10.8900000000   -12.9270000000
   21      H       2.7550000000     3.6680000000    -7.2380000000
   22      H       3.0480000000     5.1710000000   -10.8810000000
   23      H       5.4970000000     3.5780000000    -9.9980000000
   24      H       4.8980000000     3.7420000000   -11.6540000000
   25      H       2.7530000000     2.6930000000   -11.0050000000
   26      H       4.1100000000     1.6010000000   -10.6780000000
   27      H       2.9410000000     5.9750000000    -7.0320000000
   28      H       1.9680000000     6.3940000000    -8.4250000000
   29      H       4.8550000000     7.2170000000    -7.9070000000
   30      H       3.4410000000     8.2610000000    -7.9870000000
   31      H       3.1320000000     7.5860000000   -10.3880000000
   32      H       5.7260000000     6.1120000000    -9.7880000000
   33      H       5.8910000000     8.6510000000    -9.7200000000
   34      H       6.9960000000     7.6830000000   -11.6390000000
   35      H       6.2550000000     7.7220000000   -13.2330000000
   36      H       4.4050000000     6.3230000000   -12.5170000000
   37      H       5.9420000000     5.5590000000   -12.1180000000
   38      H       4.4000000000    10.3060000000    -8.7790000000
   39      H       3.3260000000    10.2060000000   -10.1690000000
   40      H       5.9740000000    11.5850000000    -9.9730000000
   41      H       4.6770000000    11.8590000000   -11.1300000000
   42      H       7.0320000000    10.0210000000   -11.3520000000
   43      H       3.4500000000     9.9770000000   -12.3960000000
   44      H       4.2710000000     9.0660000000   -13.6560000000
   45      H       3.2960000000     8.2310000000   -12.4640000000
   46      H       5.3990000000    11.4850000000   -13.0690000000
   47      H       6.9380000000    -6.3010000000    -9.1600000000
   48      C       6.2930000000    -5.4730000000    -9.4600000000
   49      H       5.8000000000    -5.7220000000   -10.4000000000
   50      C       5.2340000000    -5.2070000000    -8.3790000000
   51      H       4.6080000000    -6.0960000000    -8.2750000000
   52      H       5.7250000000    -5.0220000000    -7.4200000000
   53      C       4.3910000000    -4.0180000000    -8.7490000000
   54      C       3.2290000000    -4.1520000000    -9.4970000000
   55      H       2.8930000000    -5.1360000000    -9.7900000000
   56      C       2.4880000000    -3.0450000000    -9.8650000000
   57      H       1.5830000000    -3.1520000000   -10.4430000000
   58      C       2.9090000000    -1.7740000000    -9.4890000000
   59      O       2.1850000000    -0.6900000000    -9.8790000000
   60      H       2.5040000000     0.1090000000    -9.3740000000
   61      C       4.0670000000    -1.6300000000    -8.7350000000
   62      H       4.3880000000    -0.6440000000    -8.4310000000
   63      C       4.7950000000    -2.7440000000    -8.3750000000
   64      H       5.6960000000    -2.6250000000    -7.7940000000
   65      C       7.1460000000    -4.2200000000    -9.7280000000
   66      O       7.0040000000    -3.5460000000   -10.7310000000
   67      N       8.0640000000    -3.9140000000    -8.7830000000
   68      H       8.1690000000    -4.5220000000    -7.9870000000
   69      C       8.9990000000    -2.7880000000    -8.8560000000
   70      H       8.5150000000    -1.9940000000    -9.4240000000
   71      C       9.4060000000    -2.3290000000    -7.4560000000
   72      H       9.7330000000    -3.2180000000    -6.8980000000
   73      C      10.5970000000    -1.3790000000    -7.5430000000
   74      H      10.8700000000    -1.0290000000    -6.5510000000
   75      H      10.3530000000    -0.5200000000    -8.1570000000
   76      H      11.4580000000    -1.8800000000    -7.9810000000
   77      C       8.2420000000    -1.7080000000    -6.6740000000
   78      H       7.4850000000    -2.4750000000    -6.4980000000
   79      H       8.6080000000    -1.4060000000    -5.6920000000
   80      C       7.5880000000    -0.5050000000    -7.3410000000
   81      H       6.8040000000    -0.1200000000    -6.6940000000
   82      H       7.1440000000    -0.7700000000    -8.2960000000
   83      H       8.3050000000     0.2950000000    -7.4970000000
   84      H       9.8910000000    -3.1060000000    -9.4110000000
   85      H       7.9240000000    -1.8510000000   -13.1380000000
   86      C       8.0010000000    -0.8100000000   -13.4420000000
   87      H       7.1490000000    -0.5770000000   -14.0770000000
   88      C       8.0070000000     0.0930000000   -12.2100000000
   89      H       8.8730000000    -0.1730000000   -11.5930000000
   90      C       8.1230000000     1.5590000000   -12.6190000000
   91      H       9.0440000000     1.7410000000   -13.1700000000
   92      H       7.2870000000     1.8280000000   -13.2570000000
   93      H       8.1040000000     2.2080000000   -11.7470000000
   94      C       6.7440000000    -0.1280000000   -11.3830000000
   95      H       6.7520000000     0.5050000000   -10.4970000000
   96      H       6.6700000000    -1.1680000000   -11.0740000000
   97      H       5.8630000000     0.1110000000   -11.9730000000
   98      H       8.9120000000    -0.6790000000   -14.0240000000
   99      H       3.3610000000    -5.6100000000   -15.3850000000
  100      C       2.4660000000    -5.2300000000   -14.8960000000
  101      H       2.1730000000    -5.9370000000   -14.1220000000
  102      C       2.7230000000    -3.8540000000   -14.2850000000
  103      H       3.0400000000    -3.1740000000   -15.0840000000
  104      C       1.4370000000    -3.3080000000   -13.6700000000
  105      H       1.0860000000    -3.9710000000   -12.8820000000
  106      H       0.6570000000    -3.2270000000   -14.4250000000
  107      H       1.6000000000    -2.3200000000   -13.2510000000
  108      C       3.8520000000    -3.9470000000   -13.2530000000
  109      H       3.4930000000    -4.4910000000   -12.3760000000
  110      H       4.6730000000    -4.5230000000   -13.6850000000
  111      C       4.3960000000    -2.5960000000   -12.8110000000
  112      H       5.2320000000    -2.7450000000   -12.1340000000
  113      H       4.7400000000    -2.0250000000   -13.6710000000
  114      H       3.6370000000    -2.0180000000   -12.2920000000
  115      H       1.6680000000    -5.1810000000   -15.6340000000
  116      H      -2.2050000000    -6.9590000000   -11.9490000000
  117      C      -3.2480000000    -7.1290000000   -11.6930000000
  118      H      -3.3260000000    -7.2030000000   -10.6110000000
  119      C      -4.1160000000    -5.9800000000   -12.2080000000
  120      H      -4.0340000000    -5.9290000000   -13.2960000000
  121      H      -5.1600000000    -6.1720000000   -11.9540000000
  122      C      -3.6720000000    -4.6790000000   -11.6020000000
  123      C      -2.5490000000    -4.0260000000   -12.0920000000
  124      H      -2.0170000000    -4.4390000000   -12.9380000000
  125      C      -2.1000000000    -2.8530000000   -11.5200000000
  126      H      -1.2240000000    -2.3610000000   -11.9150000000
  127      C      -2.7760000000    -2.2970000000   -10.4370000000
  128      O      -2.3830000000    -1.1400000000    -9.8560000000
  129      H      -1.6120000000    -0.7810000000   -10.3350000000
  130      C      -3.8990000000    -2.9500000000    -9.9350000000
  131      H      -4.4190000000    -2.5180000000    -9.0940000000
  132      C      -4.3330000000    -4.1270000000   -10.5130000000
  133      H      -5.2070000000    -4.6220000000   -10.1130000000
  134      H      -3.5630000000    -8.0750000000   -12.1300000000
  135      H      -3.9360000000     6.3190000000    -7.5230000000
  136      C      -2.8970000000     6.6510000000    -7.5960000000
  137      H      -2.4420000000     6.6180000000    -6.6090000000
  138      C      -2.1300000000     5.7320000000    -8.5460000000
  139      H      -2.6110000000     5.7070000000    -9.5250000000
  140      H      -2.0940000000     4.7160000000    -8.1440000000
  141      C      -0.6930000000     6.2420000000    -8.7310000000
  142      O      -0.1910000000     6.9290000000    -7.8270000000
  143      O      -0.1020000000     5.9500000000    -9.8010000000
  144      C      -2.8960000000     8.0610000000    -8.1650000000
  145      O      -3.2310000000     8.2810000000    -9.3180000000
  146      N      -2.5320000000     9.0740000000    -7.3520000000
  147      C      -2.5480000000    10.4390000000    -7.8510000000
  148      H      -1.6500000000    10.6310000000    -8.4480000000
  149      H      -3.4180000000    10.5830000000    -8.4940000000
  150      C      -2.5580000000    11.2920000000    -6.5890000000
  151      H      -2.1450000000    12.2840000000    -6.7570000000
  152      H      -3.5760000000    11.3920000000    -6.2090000000
  153      C      -1.7120000000    10.4590000000    -5.6280000000
  154      H      -1.8960000000    10.6990000000    -4.5820000000
  155      H      -0.6550000000    10.6150000000    -5.8390000000
  156      C      -2.1110000000     9.0210000000    -5.9630000000
  157      H      -1.2760000000     8.3290000000    -5.8380000000
  158      H      -2.9450000000     8.6890000000    -5.3310000000
  159      H      -3.2360000000     3.8880000000   -17.8300000000
  160      C      -2.7440000000     4.4680000000   -17.0430000000
  161      H      -2.9090000000     5.5220000000   -17.2690000000
  162      C      -3.3550000000     4.1110000000   -15.6890000000
  163      H      -3.2310000000     3.0460000000   -15.4750000000
  164      H      -4.4310000000     4.2990000000   -15.7570000000
  165      C      -2.7990000000     4.9320000000   -14.5570000000
  166      C      -2.9190000000     6.3190000000   -14.5730000000
  167      H      -3.3870000000     6.8080000000   -15.4150000000
  168      C      -2.4650000000     7.0790000000   -13.5100000000
  169      H      -2.5680000000     8.1520000000   -13.5260000000
  170      C      -1.8930000000     6.4610000000   -12.4110000000
  171      H      -1.5720000000     7.0500000000   -11.5680000000
  172      C      -1.7560000000     5.0830000000   -12.3900000000
  173      H      -1.3120000000     4.6040000000   -11.5310000000
  174      C      -2.1990000000     4.3230000000   -13.4610000000
  175      H      -2.0980000000     3.2460000000   -13.4300000000
  176      C      -1.2400000000     4.2170000000   -17.2240000000
  177      O      -0.5870000000     4.9150000000   -17.9850000000
  178      N      -0.6810000000     3.1680000000   -16.5900000000
  179      H      -1.1830000000     2.6890000000   -15.8590000000
  180      C       0.7020000000     2.7410000000   -16.7890000000
  181      H       1.3490000000     3.2370000000   -16.0560000000
  182      C       0.8070000000     1.2210000000   -16.6370000000
  183      H       0.0820000000     0.7450000000   -17.3000000000
  184      H       1.8070000000     0.9140000000   -16.9440000000
  185      C       0.5630000000     0.8060000000   -15.2120000000
  186      C      -0.7110000000     0.4850000000   -14.7580000000
  187      H      -1.5420000000     0.4710000000   -15.4500000000
  188      C      -0.9370000000     0.1490000000   -13.4370000000
  189      H      -1.9290000000    -0.0970000000   -13.0910000000
  190      C       0.1270000000     0.1080000000   -12.5390000000
  191      O      -0.1180000000    -0.2560000000   -11.2540000000
  192      H       0.7230000000    -0.3890000000   -10.7650000000
  193      C       1.4060000000     0.4190000000   -12.9850000000
  194      H       2.2340000000     0.3710000000   -12.2920000000
  195      C       1.6130000000     0.7740000000   -14.3030000000
  196      H       2.6110000000     1.0170000000   -14.6350000000
  197      H       0.9920000000     3.0630000000   -17.7920000000
  198      H       0.3360000000     6.2660000000   -19.6030000000
  199      C       0.8670000000     7.2060000000   -19.7480000000
  200      H       1.1880000000     7.2950000000   -20.7860000000
  201      C      -0.0550000000     8.3730000000   -19.3810000000
  202      H      -0.8710000000     8.4140000000   -20.1040000000
  203      H       0.4930000000     9.3150000000   -19.4430000000
  204      C      -0.6570000000     8.2150000000   -17.9890000000
  205      H      -0.9720000000     7.1760000000   -17.8590000000
  206      H       0.0700000000     8.4580000000   -17.2190000000
  207      C      -1.8920000000     9.0740000000   -17.7720000000
  208      O      -2.6590000000     9.4000000000   -18.6590000000
  209      N      -2.0870000000     9.3740000000   -16.4750000000
  210      H      -1.3630000000     9.1780000000   -15.7900000000
  211      H      -2.8460000000     9.9850000000   -16.2220000000
  212      C       2.1450000000     7.1920000000   -18.8820000000
  213      O       3.2340000000     7.5230000000   -19.3330000000
  214      N       2.0250000000     6.7560000000   -17.6020000000
  215      H       1.1180000000     6.4180000000   -17.3120000000
  216      C       2.9580000000     7.0540000000   -16.5060000000
  217      H       2.5560000000     6.5780000000   -15.6110000000
  218      H       3.0040000000     8.1350000000   -16.3400000000
  219      C       4.4000000000     6.5880000000   -16.6840000000
  220      O       5.3170000000     7.2010000000   -16.1400000000
  221      N       4.6190000000     5.4750000000   -17.3940000000
  222      H       3.8250000000     5.0300000000   -17.8300000000
  223      C       5.9220000000     4.8510000000   -17.6060000000
  224      H       6.6640000000     5.4170000000   -17.0420000000
  225      C       5.8840000000     3.3850000000   -17.1690000000
  226      H       5.2640000000     2.8290000000   -17.8780000000
  227      H       6.8990000000     2.9940000000   -17.2480000000
  228      C       5.3440000000     3.1620000000   -15.7530000000
  229      H       4.2990000000     3.4910000000   -15.7140000000
  230      C       5.3910000000     1.6680000000   -15.4380000000
  231      H       5.0040000000     1.4720000000   -14.4400000000
  232      H       4.7980000000     1.1030000000   -16.1550000000
  233      H       6.4150000000     1.3050000000   -15.4890000000
  234      C       6.1350000000     3.9580000000   -14.7200000000
  235      H       7.1990000000     3.7570000000   -14.8120000000
  236      H       5.9690000000     5.0240000000   -14.8430000000
  237      H       5.8150000000     3.6870000000   -13.7170000000
  238      C       6.3230000000     4.8780000000   -19.1140000000
  239      O       7.2210000000     4.1550000000   -19.5070000000
  240      N       5.5940000000     5.6600000000   -19.9300000000
  241      H       4.9240000000     6.3270000000   -19.5610000000
  242      C       5.8210000000     5.7280000000   -21.3690000000
  243      H       6.5350000000     4.9490000000   -21.6310000000
  244      H       4.8780000000     5.5680000000   -21.8910000000
  245      H       6.2260000000     6.7020000000   -21.6420000000
  246      H      11.2570000000     6.1880000000   -16.4150000000
  247      C      11.1990000000     6.1080000000   -15.3300000000
  248      H      11.5240000000     7.0360000000   -14.8640000000
  249      C       9.7450000000     5.8090000000   -14.9200000000
  250      H       9.4850000000     4.8100000000   -15.2900000000
  251      C       9.5660000000     5.8510000000   -13.4060000000
  252      H      10.1420000000     5.0760000000   -12.9070000000
  253      H       9.8780000000     6.8170000000   -13.0150000000
  254      H       8.5190000000     5.7080000000   -13.1520000000
  255      C       8.8230000000     6.8310000000   -15.5790000000
  256      H       9.0760000000     7.8330000000   -15.2440000000
  257      H       8.9060000000     6.7970000000   -16.6630000000
  258      H       7.7920000000     6.6310000000   -15.3030000000
  259      C      12.1500000000     4.9960000000   -14.9030000000
  260      O      12.4520000000     4.0880000000   -15.7000000000
  261      N      12.6570000000     5.0470000000   -13.6700000000
  262      H      12.4320000000     5.8580000000   -13.0910000000
  263      C      13.4240000000     3.9990000000   -12.9840000000
  264      H      13.3380000000     3.0820000000   -13.5750000000
  265      C      14.8900000000     4.3940000000   -12.7430000000
  266      H      15.5120000000     3.4990000000   -12.8150000000
  267      H      15.0330000000     4.7950000000   -11.7310000000
  268      C      15.4290000000     5.4890000000   -13.6600000000
  269      H      16.4010000000     5.7690000000   -13.2530000000
  270      H      14.7860000000     6.3670000000   -13.5970000000
  271      C      15.5530000000     5.1080000000   -15.1370000000
  272      H      14.5790000000     5.0060000000   -15.6070000000
  273      H      16.1020000000     5.8910000000   -15.6670000000
  274      N      16.2890000000     3.8690000000   -15.3140000000
  275      H      17.2420000000     3.9080000000   -14.9810000000
  276      C      15.7650000000     2.6660000000   -15.5150000000
  277      N      14.4870000000     2.4640000000   -15.7620000000
  278      H      13.7040000000     3.1920000000   -15.7160000000
  279      H      14.1860000000     1.5320000000   -15.9930000000
  280      N      16.6070000000     1.6050000000   -15.4790000000
  281      H      17.5980000000     1.7410000000   -15.3870000000
  282      H      16.2890000000     0.6970000000   -15.7640000000
  283      C      12.7080000000     3.8150000000   -11.6270000000
  284      O      12.0850000000     4.7320000000   -11.1330000000
  285      N      12.8020000000     2.6050000000   -11.0460000000
  286      H      13.3180000000     1.8670000000   -11.4970000000
  287      C      12.0910000000     2.2730000000    -9.8150000000
  288      H      11.8190000000     3.2210000000    -9.3500000000
  289      C      10.8420000000     1.4560000000   -10.1120000000
  290      H      10.2360000000     1.3680000000    -9.2150000000
  291      H      11.0990000000     0.4610000000   -10.4670000000
  292      H      10.2480000000     1.9560000000   -10.8720000000
  293      H      12.7690000000     1.7320000000    -9.1520000000
  294      H       5.4760000000    -2.0160000000     0.4590000000
  295      C       6.3740000000    -1.5000000000     0.1260000000
  296      H       7.1820000000    -1.7360000000     0.8140000000
  297      C       6.7400000000    -1.9260000000    -1.2910000000
  298      H       6.9360000000    -3.0000000000    -1.3180000000
  299      H       7.6530000000    -1.4170000000    -1.6080000000
  300      C       5.6250000000    -1.6020000000    -2.2710000000
  301      H       5.4380000000    -0.5270000000    -2.3030000000
  302      H       4.7040000000    -2.1230000000    -2.0010000000
  303      S       6.0760000000    -2.1260000000    -3.9610000000
  304      C       4.5680000000    -1.5820000000    -4.8030000000
  305      H       3.7160000000    -2.0890000000    -4.3600000000
  306      H       4.4770000000    -0.5040000000    -4.7180000000
  307      H       4.6570000000    -1.8610000000    -5.8460000000
  308      H       6.1880000000    -0.4290000000     0.1670000000
  309      H       9.3820000000     2.5940000000    -2.1310000000
  310      C      10.1520000000     2.6240000000    -2.8990000000
  311      H      11.1140000000     2.4110000000    -2.4370000000
  312      C       9.8460000000     1.6070000000    -4.0020000000
  313      H      10.6350000000     1.6460000000    -4.7560000000
  314      H       9.8360000000     0.6030000000    -3.5710000000
  315      C       8.5150000000     1.8980000000    -4.6350000000
  316      C       8.4260000000     2.5610000000    -5.8510000000
  317      H       9.3330000000     2.8560000000    -6.3630000000
  318      C       7.1920000000     2.8420000000    -6.4140000000
  319      H       7.1350000000     3.3510000000    -7.3660000000
  320      C       6.0310000000     2.4780000000    -5.7570000000
  321      H       5.0640000000     2.6930000000    -6.1820000000
  322      C       6.1110000000     1.8420000000    -4.5310000000
  323      H       5.2000000000     1.5990000000    -4.0040000000
  324      C       7.3420000000     1.5450000000    -3.9790000000
  325      H       7.4030000000     1.0370000000    -3.0260000000
  326      H      10.1800000000     3.6290000000    -3.3130000000
  327      H      10.5950000000     6.3630000000    -7.6330000000
  328      C      10.7790000000     6.3560000000    -8.7070000000
  329      H      11.3990000000     5.5020000000    -8.9720000000
  330      C       9.4510000000     6.3030000000    -9.4750000000
  331      H       9.6340000000     6.6320000000   -10.5030000000
  332      C       8.9110000000     4.8770000000    -9.5180000000
  333      H       8.7920000000     4.4850000000    -8.5100000000
  334      H       9.5980000000     4.2380000000   -10.0650000000
  335      H       7.9460000000     4.8530000000   -10.0190000000
  336      C       8.4490000000     7.2520000000    -8.8310000000
  337      H       8.1970000000     6.9180000000    -7.8250000000
  338      H       7.5370000000     7.3030000000    -9.4190000000
  339      H       8.8760000000     8.2480000000    -8.7740000000
  340      C      11.5300000000     7.6460000000    -9.0820000000
  341      O      11.3800000000     8.6920000000    -8.4670000000
  342      N      12.3350000000     7.5410000000   -10.1580000000
  343      H      12.3820000000     6.6500000000   -10.6350000000
  344      C      13.1750000000     8.5960000000   -10.7140000000
  345      H      13.0600000000     9.4800000000   -10.0850000000
  346      C      14.6420000000     8.1240000000   -10.7960000000
  347      H      15.2490000000     8.9370000000   -11.2040000000
  348      H      14.6790000000     7.2890000000   -11.5020000000
  349      C      15.2460000000     7.6270000000    -9.4960000000
  350      H      14.5270000000     7.0070000000    -8.9560000000
  351      H      15.5630000000     8.4440000000    -8.8480000000
  352      C      16.5000000000     6.7030000000    -9.8140000000
  353      O      16.3120000000     5.8380000000   -10.6910000000
  354      O      17.5200000000     6.9270000000    -9.1660000000
  355      C      12.7570000000     8.8460000000   -12.1690000000
  356      O      12.5270000000     7.9080000000   -12.9240000000
  357      N      12.7320000000    10.1270000000   -12.5850000000
  358      H      13.0520000000    10.8720000000   -11.9790000000
  359      C      12.3400000000    10.5570000000   -13.9180000000
  360      H      13.0330000000    10.1260000000   -14.6580000000
  361      C      10.9150000000    10.0880000000   -14.2550000000
  362      H      10.9120000000     9.0000000000   -14.1930000000
  363      H      10.6680000000    10.3550000000   -15.2850000000
  364      C       9.8380000000    10.6190000000   -13.3120000000
  365      H      10.0210000000    11.6490000000   -13.0140000000
  366      H       8.8620000000    10.5620000000   -13.7920000000
  367      S       9.7130000000     9.6080000000   -11.7790000000
  368      C      10.1240000000    10.8350000000   -10.5130000000
  369      H      10.9480000000    11.4450000000   -10.8680000000
  370      H       9.2520000000    11.4510000000   -10.3090000000
  371      H      10.4190000000    10.2870000000    -9.6220000000
  372      C      12.5290000000    12.1040000000   -13.9900000000
  373      O      13.2880000000    12.6530000000   -13.2090000000
  374      N      11.8780000000    12.7670000000   -14.9700000000
  375      H      11.1560000000    12.3030000000   -15.5010000000
  376      C      12.0520000000    14.1840000000   -15.2980000000
  377      H      12.8890000000    14.5440000000   -14.6930000000
  378      C      12.3520000000    14.3420000000   -16.7980000000
  379      H      11.4890000000    13.9530000000   -17.3490000000
  380      C      12.5360000000    15.8160000000   -17.1490000000
  381      H      13.3570000000    16.2450000000   -16.5770000000
  382      H      12.7660000000    15.9200000000   -18.2060000000
  383      H      11.6320000000    16.3820000000   -16.9390000000
  384      C      13.5950000000    13.5440000000   -17.1800000000
  385      H      14.4600000000    13.9030000000   -16.6260000000
  386      H      13.4630000000    12.4880000000   -16.9620000000
  387      H      13.7970000000    13.6520000000   -18.2430000000
  388      C      10.7490000000    14.9640000000   -14.9580000000
  389      O       9.6740000000    14.5570000000   -15.3430000000
  390      N      10.9110000000    16.1380000000   -14.3000000000
  391      H      11.7930000000    16.3120000000   -13.8450000000
  392      C       9.8020000000    17.0290000000   -13.9420000000
  393      H       9.0610000000    16.9360000000   -14.7390000000
  394      C       9.1550000000    16.6380000000   -12.6050000000
  395      H       9.1230000000    15.5460000000   -12.5590000000
  396      H       9.7610000000    16.9940000000   -11.7720000000
  397      C       7.7650000000    17.1670000000   -12.5060000000
  398      C       7.2840000000    18.1330000000   -11.6750000000
  399      H       7.7970000000    18.6980000000   -10.9200000000
  400      N       5.9470000000    18.3320000000   -11.9050000000
  401      H       5.3590000000    18.9790000000   -11.4080000000
  402      C       5.5380000000    17.4910000000   -12.9000000000
  403      C       4.2900000000    17.3230000000   -13.4870000000
  404      H       3.4380000000    17.9040000000   -13.1640000000
  405      C       4.1820000000    16.3900000000   -14.4970000000
  406      H       3.2280000000    16.2330000000   -14.9760000000
  407      C       5.2850000000    15.6360000000   -14.9130000000
  408      H       5.1590000000    14.9220000000   -15.7110000000
  409      C       6.5240000000    15.7900000000   -14.3280000000
  410      H       7.3650000000    15.1970000000   -14.6530000000
  411      C       6.6620000000    16.7350000000   -13.3090000000
  412      H      10.1830000000    18.0500000000   -13.9160000000
  413      H      13.8330000000    15.4260000000   -10.4220000000
  414      C      13.7730000000    14.3550000000   -10.2360000000
  415      H      14.5980000000    14.0630000000    -9.5900000000
  416      C      12.4530000000    14.0050000000    -9.5790000000
  417      H      12.3960000000    12.9420000000    -9.3420000000
  418      H      12.2920000000    14.5890000000    -8.6720000000
  419      S      11.0780000000    14.3930000000   -10.7330000000
  420      H      10.0980000000    14.0920000000    -9.8820000000
  421      H      13.8680000000    13.8330000000   -11.1870000000
  422      H      10.4860000000    10.6130000000    -6.6130000000
  423      C       9.6940000000    10.7060000000    -5.8740000000
  424      H       9.7430000000    11.7000000000    -5.4340000000
  425      C       8.3450000000    10.4410000000    -6.5280000000
  426      H       8.4360000000     9.5380000000    -7.1320000000
  427      H       8.0890000000    11.2610000000    -7.2030000000
  428      C       7.1980000000    10.2330000000    -5.5360000000
  429      H       7.4690000000     9.4110000000    -4.8630000000
  430      C       6.9320000000    11.4790000000    -4.6950000000
  431      H       7.7990000000    11.7390000000    -4.0930000000
  432      H       6.6840000000    12.3210000000    -5.3390000000
  433      H       6.0940000000    11.3080000000    -4.0230000000
  434      C       5.9380000000     9.8410000000    -6.3020000000
  435      H       6.1400000000     9.0010000000    -6.9600000000
  436      H       5.5940000000    10.6780000000    -6.9060000000
  437      H       5.1360000000     9.5610000000    -5.6270000000
  438      H       9.8830000000     9.9750000000    -5.0910000000
  439      H       7.1900000000     6.6890000000    -3.1080000000
  440      C       6.1920000000     6.3770000000    -2.8080000000
  441      H       5.5640000000     7.2630000000    -2.7400000000
  442      C       5.6140000000     5.3900000000    -3.8180000000
  443      H       6.2800000000     4.5210000000    -3.8700000000
  444      C       4.2330000000     4.9120000000    -3.3770000000
  445      H       3.8580000000     4.1510000000    -4.0560000000
  446      H       4.2780000000     4.4850000000    -2.3770000000
  447      H       3.5310000000     5.7430000000    -3.3630000000
  448      C       5.5400000000     6.0270000000    -5.2020000000
  449      H       5.1650000000     5.3090000000    -5.9260000000
  450      H       6.5250000000     6.3570000000    -5.5230000000
  451      H       4.8760000000     6.8900000000    -5.1880000000
  452      H       6.2580000000     5.9250000000    -1.8200000000
  453      H       3.2510000000     0.7110000000    -2.4400000000
  454      C       2.2560000000     1.1400000000    -2.5390000000
  455      H       2.3520000000     2.2220000000    -2.5780000000
  456      C       1.5790000000     0.6360000000    -3.8070000000
  457      H       1.5900000000    -0.4540000000    -3.8580000000
  458      H       0.5360000000     0.9650000000    -3.8410000000
  459      C       2.2220000000     1.1840000000    -5.0630000000
  460      O       2.8990000000     2.1800000000    -5.1060000000
  461      O       1.9470000000     0.4480000000    -6.1280000000
  462      H       2.3150000000     0.8690000000    -6.9550000000
  463      H       1.6750000000     0.8660000000    -1.6620000000
  464      H      -1.7980000000    -2.9460000000    -1.9990000000
  465      C      -1.7300000000    -3.9900000000    -2.2970000000
  466      H      -2.4830000000    -4.1790000000    -3.0600000000
  467      C      -0.3380000000    -4.3040000000    -2.8310000000
  468      H      -0.2750000000    -5.3580000000    -3.1110000000
  469      H       0.4080000000    -4.1240000000    -2.0540000000
  470      C      -0.0110000000    -3.4490000000    -4.0440000000
  471      H      -0.0210000000    -2.3890000000    -3.7820000000
  472      H      -0.7240000000    -3.6290000000    -4.8490000000
  473      S       1.6500000000    -3.8560000000    -4.6920000000
  474      C       1.5640000000    -2.9950000000    -6.2870000000
  475      H       1.5230000000    -1.9210000000    -6.1330000000
  476      H       2.4650000000    -3.2560000000    -6.8320000000
  477      H       0.6910000000    -3.3430000000    -6.8320000000
  478      H      -1.9540000000    -4.6100000000    -1.4330000000
  479      H      -4.5780000000    -1.3750000000    -5.2300000000
  480      C      -3.5610000000    -1.0080000000    -5.1080000000
  481      H      -3.0980000000    -1.5380000000    -4.2780000000
  482      C      -2.7560000000    -1.2110000000    -6.3860000000
  483      H      -2.6760000000    -2.2790000000    -6.6100000000
  484      H      -3.2640000000    -0.7370000000    -7.2280000000
  485      C      -1.3540000000    -0.6360000000    -6.2630000000
  486      H      -0.8880000000    -0.9600000000    -5.3340000000
  487      H      -0.7260000000    -0.9310000000    -7.1020000000
  488      S      -1.3320000000     1.1890000000    -6.2160000000
  489      C      -1.0710000000     1.5220000000    -7.9790000000
  490      H      -1.8610000000     1.0510000000    -8.5560000000
  491      H      -0.0970000000     1.1390000000    -8.2700000000
  492      H      -1.0970000000     2.5990000000    -8.1110000000
  493      H      -3.6000000000     0.0510000000    -4.8620000000
  494      H      -1.1830000000     4.6150000000    -4.1530000000
  495      C      -0.0980000000     4.5910000000    -4.0690000000
  496      H       0.1760000000     3.7390000000    -3.4510000000
  497      C       0.5420000000     4.4770000000    -5.4430000000
  498      H       1.6230000000     4.4150000000    -5.3430000000
  499      H       0.2920000000     5.3320000000    -6.0670000000
  500      H       0.1930000000     3.5750000000    -5.9390000000
  501      H       0.2260000000     5.4980000000    -3.5620000000
  502      H       1.4890000000     9.5670000000    -2.1850000000
  503      C       2.4570000000    10.0510000000    -2.2980000000
  504      H       2.9610000000    10.0490000000    -1.3330000000
  505      C       3.2920000000     9.3200000000    -3.3480000000
  506      H       4.2710000000     9.8020000000    -3.4230000000
  507      H       3.4440000000     8.2860000000    -3.0320000000
  508      C       2.6100000000     9.3330000000    -4.6770000000
  509      C       1.9150000000     8.3060000000    -5.2510000000
  510      H       1.7630000000     7.3080000000    -4.8880000000
  511      N       1.3850000000     8.6900000000    -6.4460000000
  512      H       0.8200000000     8.0870000000    -7.0430000000
  513      C       1.7220000000     9.9870000000    -6.6730000000
  514      C       1.4220000000    10.8290000000    -7.7400000000
  515      H       0.8070000000    10.4920000000    -8.5620000000
  516      C       1.9160000000    12.1130000000    -7.7080000000
  517      H       1.7030000000    12.7860000000    -8.5260000000
  518      C       2.6940000000    12.5640000000    -6.6370000000
  519      H       3.0650000000    13.5790000000    -6.6520000000
  520      C       2.9870000000    11.7450000000    -5.5710000000
  521      H       3.5880000000    12.1050000000    -4.7480000000
  522      C       2.5020000000    10.4370000000    -5.5750000000
  523      H       2.2880000000    11.0820000000    -2.6000000000
  524      H       9.0720000000    15.5930000000    -3.8990000000
  525      C       9.1690000000    15.1590000000    -4.8920000000
  526      H       8.6290000000    14.2160000000    -4.9020000000
  527      C       8.6160000000    16.1170000000    -5.9420000000
  528      H       9.1000000000    17.0900000000    -5.8190000000
  529      H       7.5460000000    16.2590000000    -5.7720000000
  530      C       8.8310000000    15.6470000000    -7.3850000000
  531      H       9.9050000000    15.4800000000    -7.5350000000
  532      C       8.0910000000    14.3420000000    -7.6680000000
  533      H       7.0440000000    14.4310000000    -7.3870000000
  534      H       8.1320000000    14.1030000000    -8.7300000000
  535      H       8.5320000000    13.5170000000    -7.1160000000
  536      C       8.3720000000    16.7290000000    -8.3620000000
  537      H       7.3070000000    16.9150000000    -8.2420000000
  538      H       8.9060000000    17.6600000000    -8.1830000000
  539      H       8.5500000000    16.4210000000    -9.3900000000
  540      H      10.2220000000    14.9560000000    -5.0760000000
  541      O       1.0320000000     8.2400000000   -10.4880000000
  542      H       1.1560000000     8.7660000000    -9.6960000000
  543      H       0.5740000000     7.4140000000   -10.1860000000
  544      O       6.4820000000     9.6280000000   -15.2430000000
  545      H       6.3370000000     8.6750000000   -15.2430000000
  546      H       6.4090000000     9.9530000000   -14.3170000000
  547      O       1.4180000000     5.9420000000   -12.1020000000
  548      H       1.5280000000     6.8890000000   -11.9430000000
  549      H       0.7890000000     5.6800000000   -11.4080000000
  550      O       5.4180000000    12.3530000000   -16.0230000000
  551      H       6.1550000000    11.9050000000   -15.5930000000
  552      H       4.8120000000    11.6310000000   -16.3080000000
  553      O       4.1690000000    10.0750000000   -16.6850000000
  554      H       4.9120000000     9.6960000000   -16.1820000000
  555      H       4.4070000000     9.9360000000   -17.6230000000
  556      O       1.9010000000    11.6670000000   -13.1700000000
  557      H       1.7420000000    11.4740000000   -14.1160000000
  558      H       2.7050000000    12.1990000000   -13.1650000000
  559      O       4.4040000000    12.9310000000   -13.5740000000
  560      H       4.6230000000    12.8160000000   -14.5240000000
  561      H       4.6720000000    13.8260000000   -13.3530000000
  562      O       7.1150000000     8.0810000000   -18.2150000000
  563      H       6.6200000000     7.7520000000   -17.4530000000
  564      H       6.4830000000     8.6460000000   -18.6910000000
  565      O       8.4560000000    10.1830000000   -17.0690000000
  566      H       8.2280000000     9.4060000000   -17.6150000000
  567      H       7.8680000000    10.0800000000   -16.3020000000
  568      O      -0.0250000000     9.7560000000   -12.5210000000
  569      H       0.3040000000     9.2100000000   -11.7850000000
  570      H       0.5960000000    10.4950000000   -12.6120000000
  571      O       0.5950000000     5.9100000000   -14.6530000000
  572      H       0.9090000000     5.8560000000   -13.7210000000
  573      H      -0.3260000000     5.6420000000   -14.6250000000
  574      O       1.6150000000    10.8790000000   -15.7630000000
  575      H       2.4720000000    10.5840000000   -16.1000000000
  576      H       1.1070000000    10.0760000000   -15.5550000000
  577      O       5.3270000000     9.9640000000   -19.1150000000
  578      H       5.8990000000    10.7670000000   -18.9730000000
  579      H       4.8370000000    10.0760000000   -19.9280000000
  580      O       6.8930000000    11.9550000000   -18.4190000000
  581      H       7.5910000000    11.4150000000   -17.9860000000
  582      H       6.4130000000    12.3820000000   -17.6920000000
  583      O       0.1970000000     8.6650000000   -14.9110000000
  584      H       0.3720000000     7.7150000000   -14.8130000000
  585      H       0.0640000000     9.0290000000   -14.0000000000
 ----------------------------------------------------------------
 Nuclear Repulsion Energy =      106401.80045859 hartrees
 There are      976 alpha and      976 beta electrons
 Requested basis set is 6-31G(d)
 There are 1663 shells and 4362 basis functions

 Total QAlloc Memory Limit  64000 MB
 Mega-Array Size      3911 MB
 MEM_STATIC part      4000 MB

 A cutoff of  1.0D-14 yielded 218955 shell pairs
 There are   1410185 function pairs
 Smallest overlap matrix eigenvalue = 3.27E-04

 Scale SEOQF with 1.000000e-03/1.000000e-03/1.000000e-03

 Standard Electronic Orientation quadrupole field applied
 Nucleus-field energy     =    -0.0000001644 hartrees
 Guess from superposition of atomic densities
 Warning:  Energy on first SCF cycle will be non-variational
 SAD guess density has 1951.000005 electrons

 -----------------------------------------------------------------------
  General SCF calculation program by
  Eric Jon Sundstrom, Paul Horn, Yuezhi Mao, Dmitri Zuev, Alec White,
  David Stuck, Shaama M.S., Shane Yost, Joonho Lee, David Small,
  Daniel Levine, Susi Lehtola, Hugh Burton, Evgeny Epifanovsky,
  Bang C. Huynh
 -----------------------------------------------------------------------
=================================================
        Doing projection-based embedding         
      F. Manby et al. JCTC, 8, 2564 (2012)       
=================================================

****************************************************
   Low-level SCF calculation for the whole system   
****************************************************
----------------------------------------------
 Summary of the low-level theory: 
 Exchange:     0.1670 Hartree-Fock + 1.0000 wB97X-V + LR-HF
 Correlation:  1.0000 wB97X-V
 Using Euler-Maclaurin-Lebedev (75,302) quadrature formula
 Nonlocal Correlation:  VV10 with C = 0.0100 and b = 6.00 and scale = 1.00000
 Grid used for NLC:  SG-1 standard quadrature
----------------------------------------------
 using 32 threads for integral computing
 -------------------------------------------------------
 OpenMP Integral computing Module                
 Release: version 1.0, May 2013, Q-Chem Inc. Pittsburgh 
 -------------------------------------------------------
 A restricted SCF calculation will be
 performed using DIIS
 SCF converges when DIIS error is below 1.0e-08
 ---------------------------------------
  Cycle       Energy         DIIS error
 ---------------------------------------
    1  -13117.1315213934      1.19e-02  
    2  -13045.1720701584      1.22e-03  
    3  -13045.5568582411      1.28e-03  
    4  -13048.2727173637      1.95e-04  
    5  -13048.3362229236      8.54e-05  
    6  -13048.3497360527      1.80e-05  
    7  -13048.3504344758      6.03e-06  
    8  -13048.3505290602      2.32e-06  
    9  -13048.3505452134      1.00e-06  
   10  -13048.3505488828      3.95e-07  
   11  -13048.3505494188      1.49e-07  
   12  -13048.3505495299      5.20e-08  
   13  -13048.3505495430      2.39e-08  
   14  -13048.3505495465      1.14e-08  
   15  -13048.3505495472      4.44e-09  Convergence criterion met
 ---------------------------------------
 SCF time:   CPU 234454.85s  wall 8044.00s 
 SCF   energy in the final basis set =   -13048.3505495472
 Total energy in the final basis set =   -13048.3505495472

****************************************************
             Start embedding calculation            
****************************************************
----------------------------------------------
 Summary of the high-level theory: 
 Exchange:     0.1670 Hartree-Fock + 1.0000 wB97X-V + LR-HF
 Correlation:  1.0000 wB97X-V
 Using Euler-Maclaurin-Lebedev (75,302) quadrature formula
 Nonlocal Correlation:  VV10 with C = 0.0100 and b = 6.00 and scale = 1.00000
 Grid used for NLC:  SG-1 standard quadrature
----------------------------------------------
Doing R-in-R Embedding Calculation
Number of fragments: 2
Embedded fragment(s): 1 
NOcc for each fragment
           75
          901
NBasis for each fragment
          352
         4010
Variational space of the embedded problem: 
NOcc (active)  = 75
NOcc (fixed)   = 901
NVir (total)   = 3386
Read converged orbitals from disk
=========================================================
       Doing SPADE partition for the orbital space       
     D. Claudino and N. Mayhall JCTC 15, 1053 (2019)     
=========================================================
SPADE singular values:
 1.0000 1.0000 1.0000 1.0000 1.0000 1.0000 1.0000 1.0000 1.0000 1.0000
 1.0000 1.0000 1.0000 1.0000 1.0000 1.0000 1.0000 1.0000 1.0000 1.0000
 1.0000 1.0000 1.0000 1.0000 1.0000 1.0000 1.0000 1.0000 1.0000 1.0000
 1.0000 1.0000 1.0000 1.0000 1.0000 1.0000 1.0000 1.0000 1.0000 0.9999
 0.9999 0.9999 0.9999 0.9998 0.9998 0.9997 0.9997 0.9997 0.9997 0.9997
 0.9996 0.9995 0.9994 0.9994 0.9993 0.9992 0.9991 0.9991 0.9989 0.9988
 0.9986 0.9986 0.9985 0.9984 0.9982 0.9980 0.9979 0.9979 0.9977 0.9972
 0.9969 0.9941 0.9750 0.9720 0.9693 0.2032 0.1546 0.1292 0.1185 0.1110
 0.1097 0.0924 0.0859 0.0829 0.0734 0.0711 0.0686 0.0649 0.0636 0.0595
 0.0580 0.0539 0.0513 0.0505 0.0455 0.0424 0.0414 0.0373 0.0360 0.0347
 0.0345 0.0323 0.0306 0.0277 0.0264 0.0255 0.0236 0.0223 0.0217 0.0207
 0.0198 0.0189 0.0182 0.0173 0.0164 0.0156 0.0144 0.0138 0.0135 0.0113
 0.0112 0.0106 0.0105 0.0099 0.0098 0.0093 0.0088 0.0086 0.0083 0.0081
 0.0078 0.0072 0.0066 0.0065 0.0062 0.0059 0.0057 0.0055 0.0051 0.0050
 0.0045 0.0044 0.0043 0.0041 0.0040 0.0038 0.0036 0.0034 0.0032 0.0031
 0.0030 0.0030 0.0028 0.0027 0.0025 0.0024 0.0023 0.0023 0.0022 0.0021
 0.0021 0.0019 0.0018 0.0017 0.0017 0.0016 0.0016 0.0015 0.0015 0.0014
 0.0014 0.0013 0.0013 0.0013 0.0012 0.0012 0.0011 0.0011 0.0010 0.0010
 0.0010 0.0010 0.0009 0.0009 0.0009 0.0009 0.0008 0.0008 0.0008 0.0008
 0.0007 0.0007 0.0007 0.0007 0.0007 0.0006 0.0006 0.0006 0.0006 0.0006
 0.0006 0.0005 0.0005 0.0005 0.0005 0.0005 0.0005 0.0005 0.0005 0.0005
 0.0004 0.0004 0.0004 0.0004 0.0004 0.0004 0.0004 0.0004 0.0004 0.0004
 0.0003 0.0003 0.0003 0.0003 0.0003 0.0003 0.0003 0.0003 0.0003 0.0003
 0.0003 0.0003 0.0003 0.0003 0.0002 0.0002 0.0002 0.0002 0.0002 0.0002
 0.0002 0.0002 0.0002 0.0002 0.0002 0.0002 0.0002 0.0002 0.0002 0.0002
 0.0002 0.0001 0.0001 0.0001 0.0001 0.0001 0.0001 0.0001 0.0001 0.0001
 0.0001 0.0001 0.0001 0.0001 0.0001 0.0001 0.0001 0.0001 0.0001 0.0001
 0.0001 0.0001 0.0001 0.0001 0.0001 0.0001 0.0001 0.0001 0.0001 0.0001
 0.0001 0.0001 0.0001 0.0001 0.0001 0.0001 0.0001 0.0001 0.0001 0.0001
 0.0001 0.0001 0.0000 0.0000 0.0000 0.0000 0.0000 0.0000 0.0000 0.0000
 0.0000 0.0000 0.0000 0.0000 0.0000 0.0000 0.0000 0.0000 0.0000 0.0000
 0.0000 0.0000 0.0000 0.0000 0.0000 0.0000 0.0000 0.0000 0.0000 0.0000
 0.0000 0.0000 0.0000 0.0000 0.0000 0.0000 0.0000 0.0000 0.0000 0.0000
 0.0000 0.0000 0.0000 0.0000 0.0000 0.0000 0.0000 0.0000 0.0000 0.0000
 0.0000 0.0000 0.0000 0.0000 0.0000 0.0000 0.0000 0.0000 0.0000 0.0000
 0.0000 0.0000
Early stop requested; no embedded SCF will be performed

 901 environment occs will be part of frozen-core in future post-HF calculations
 
 --------------------------------------------------------------
 
                    Orbital Energies (a.u.)
 --------------------------------------------------------------
 
 Alpha MOs
 -- Occupied --
-88.8212 -88.8151 -88.8130 -88.8041 -88.8007 -19.2241 -19.2208 -19.2087
-19.1953 -19.1950 -19.1915 -19.1834 -19.1834 -19.1805 -19.1799 -19.1785
-19.1766 -19.1742 -19.1705 -19.1682 -19.1648 -19.1623 -19.1621 -19.1560
-19.1544 -19.1542 -19.1539 -19.1536 -19.1494 -19.1480 -19.1358 -19.1308
-19.1271 -19.1235 -19.1229 -19.1203 -19.1202 -19.1125 -19.1104 -19.1048
-19.0281 -19.0153 -14.4951 -14.4868 -14.4667 -14.4305 -14.4272 -14.4195
-14.4190 -14.4178 -14.4142 -14.4133 -14.4084 -14.4012 -14.3958 -14.3852
-14.3838 -14.3724 -14.3692 -14.3448 -10.4571 -10.3615 -10.3608 -10.3564
-10.3556 -10.3550 -10.3454 -10.3428 -10.3419 -10.3327 -10.3304 -10.3212
-10.3107 -10.3096 -10.3092 -10.3073 -10.3047 -10.3033 -10.2976 -10.2944
-10.2926 -10.2926 -10.2882 -10.2863 -10.2813 -10.2766 -10.2761 -10.2759
-10.2693 -10.2681 -10.2665 -10.2662 -10.2633 -10.2615 -10.2561 -10.2557
-10.2544 -10.2542 -10.2529 -10.2515 -10.2510 -10.2506 -10.2503 -10.2501
-10.2495 -10.2482 -10.2475 -10.2473 -10.2454 -10.2450 -10.2448 -10.2448
-10.2437 -10.2434 -10.2434 -10.2433 -10.2432 -10.2428 -10.2418 -10.2417
-10.2414 -10.2413 -10.2407 -10.2397 -10.2390 -10.2388 -10.2387 -10.2380
-10.2378 -10.2377 -10.2369 -10.2368 -10.2365 -10.2360 -10.2355 -10.2352
-10.2347 -10.2347 -10.2343 -10.2340 -10.2337 -10.2335 -10.2335 -10.2331
-10.2326 -10.2322 -10.2322 -10.2322 -10.2309 -10.2296 -10.2292 -10.2285
-10.2282 -10.2280 -10.2279 -10.2275 -10.2274 -10.2272 -10.2271 -10.2270
-10.2270 -10.2270 -10.2266 -10.2262 -10.2251 -10.2250 -10.2244 -10.2241
-10.2233 -10.2232 -10.2226 -10.2213 -10.2210 -10.2207 -10.2200 -10.2199
-10.2198 -10.2197 -10.2193 -10.2192 -10.2191 -10.2185 -10.2180 -10.2180
-10.2173 -10.2168 -10.2167 -10.2165 -10.2151 -10.2149 -10.2148 -10.2147
-10.2142 -10.2139 -10.2137 -10.2122 -10.2117 -10.2107 -10.2106 -10.2106
-10.2098 -10.2095 -10.2090 -10.2090 -10.2085 -10.2083 -10.2082 -10.2078
-10.2065 -10.2025 -10.2015 -10.2005 -10.1986 -10.1982 -10.1981 -10.1970
-10.1956 -10.1936 -10.1925 -10.1919 -10.1918 -10.1886 -10.1872 -10.1538
 -7.9896  -7.9817  -7.9793  -7.9703  -7.9658  -5.9472  -5.9433  -5.9396
 -5.9372  -5.9360  -5.9355  -5.9332  -5.9284  -5.9283  -5.9257  -5.9242
 -5.9240  -5.9198  -5.9168  -5.9124  -1.1833  -1.1762  -1.1561  -1.1560
 -1.1445  -1.1433  -1.1426  -1.1413  -1.1328  -1.1270  -1.1260  -1.1255
 -1.1214  -1.1138  -1.1123  -1.1095  -1.1044  -1.0950  -1.0916  -1.0888
 -1.0886  -1.0868  -1.0821  -1.0803  -1.0758  -1.0747  -1.0745  -1.0727
 -1.0713  -1.0632  -1.0624  -1.0577  -1.0515  -1.0468  -1.0468  -1.0426
 -1.0334  -1.0303  -1.0268  -1.0262  -1.0259  -1.0234  -1.0154  -1.0151
 -1.0130  -1.0118  -1.0109  -1.0101  -1.0079  -1.0016  -0.9943  -0.9815
 -0.9774  -0.9602  -0.9569  -0.9441  -0.9435  -0.9424  -0.9407  -0.9312
 -0.9194  -0.9133  -0.9129  -0.9121  -0.9116  -0.9074  -0.9071  -0.9061
 -0.9020  -0.8968  -0.8958  -0.8954  -0.8941  -0.8921  -0.8907  -0.8905
 -0.8900  -0.8878  -0.8841  -0.8783  -0.8755  -0.8750  -0.8750  -0.8728
 -0.8708  -0.8691  -0.8687  -0.8655  -0.8627  -0.8533  -0.8531  -0.8508
 -0.8499  -0.8483  -0.8454  -0.8419  -0.8411  -0.8389  -0.8365  -0.8318
 -0.8288  -0.8278  -0.8231  -0.8223  -0.8203  -0.8201  -0.8193  -0.8189
 -0.8175  -0.8172  -0.8106  -0.8089  -0.8088  -0.8050  -0.8043  -0.8008
 -0.8006  -0.7989  -0.7969  -0.7963  -0.7941  -0.7862  -0.7854  -0.7828
 -0.7821  -0.7786  -0.7783  -0.7770  -0.7766  -0.7745  -0.7730  -0.7727
 -0.7709  -0.7685  -0.7659  -0.7638  -0.7638  -0.7637  -0.7593  -0.7582
 -0.7522  -0.7449  -0.7444  -0.7429  -0.7426  -0.7408  -0.7384  -0.7376
 -0.7348  -0.7319  -0.7303  -0.7271  -0.7228  -0.7221  -0.7205  -0.7129
 -0.7122  -0.7092  -0.7082  -0.7079  -0.7042  -0.7039  -0.6998  -0.6963
 -0.6922  -0.6919  -0.6910  -0.6904  -0.6901  -0.6871  -0.6826  -0.6816
 -0.6804  -0.6785  -0.6778  -0.6772  -0.6768  -0.6747  -0.6745  -0.6718
 -0.6703  -0.6690  -0.6690  -0.6685  -0.6662  -0.6629  -0.6622  -0.6618
 -0.6609  -0.6598  -0.6578  -0.6575  -0.6510  -0.6507  -0.6500  -0.6482
 -0.6466  -0.6451  -0.6440  -0.6438  -0.6433  -0.6427  -0.6407  -0.6348
 -0.6337  -0.6329  -0.6321  -0.6319  -0.6311  -0.6301  -0.6297  -0.6276
 -0.6264  -0.6250  -0.6224  -0.6167  -0.6167  -0.6141  -0.6129  -0.6128
 -0.6093  -0.6080  -0.6080  -0.6067  -0.6059  -0.6039  -0.6006  -0.6002
 -0.5997  -0.5972  -0.5935  -0.5933  -0.5931  -0.5897  -0.5882  -0.5880
 -0.5839  -0.5823  -0.5790  -0.5776  -0.5774  -0.5766  -0.5729  -0.5713
 -0.5704  -0.5691  -0.5678  -0.5674  -0.5650  -0.5642  -0.5632  -0.5615
 -0.5612  -0.5600  -0.5592  -0.5588  -0.5574  -0.5570  -0.5557  -0.5531
 -0.5528  -0.5519  -0.5515  -0.5513  -0.5507  -0.5493  -0.5479  -0.5465
 -0.5464  -0.5454  -0.5443  -0.5442  -0.5410  -0.5394  -0.5387  -0.5377
 -0.5369  -0.5361  -0.5356  -0.5348  -0.5343  -0.5336  -0.5335  -0.5309
 -0.5304  -0.5299  -0.5296  -0.5295  -0.5291  -0.5279  -0.5267  -0.5252
 -0.5248  -0.5245  -0.5239  -0.5233  -0.5218  -0.5215  -0.5198  -0.5190
 -0.5189  -0.5179  -0.5178  -0.5169  -0.5160  -0.5151  -0.5141  -0.5127
 -0.5114  -0.5112  -0.5111  -0.5105  -0.5096  -0.5095  -0.5089  -0.5089
 -0.5080  -0.5070  -0.5062  -0.5055  -0.5038  -0.5034  -0.5029  -0.5017
 -0.5014  -0.5005  -0.4986  -0.4983  -0.4980  -0.4977  -0.4974  -0.4960
 -0.4954  -0.4948  -0.4945  -0.4941  -0.4937  -0.4934  -0.4925  -0.4925
[...]
    1  -0.0081147   0.0253847   0.0035852  -0.0699566   0.0016415   0.0383704
    2  -0.0360124   0.0065052  -0.0026995   0.0300525  -0.0128137  -0.0111466
    3   0.0059735   0.0296939  -0.0097124  -0.0824419   0.0049669   0.0335264
          211         212         213         214         215         216
    1  -0.0349250  -0.0052709   0.0906254   0.0009863  -0.0423694   0.0049564
    2   0.0289785   0.0032216   0.0321358  -0.0121096  -0.0189440   0.0119913
    3   0.0090180  -0.0119435  -0.0456471  -0.0045559   0.0145995   0.0160596
          217         218         219         220         221         222
    1  -0.0195069   0.0012233  -0.0093312   0.0713405   0.0036367  -0.0416359
    2  -0.0141204   0.0348998   0.0057572   0.0515508   0.0014010  -0.0165075
    3   0.0336344   0.0063312   0.0032300   0.0495465   0.0029498  -0.0198809
          223         224         225         226         227         228
    1   0.0165966   0.0237722   0.0004582  -0.0166383   0.0329073   0.0003598
    2  -0.0088646   0.0189539  -0.0017933  -0.0219759  -0.0137232   0.0010387
    3  -0.0027478   0.0188533   0.0047848  -0.0251597  -0.0085372   0.0009078
          229         230         231         232         233         234
    1  -0.0347960   0.0005471  -0.0124237  -0.0198568   0.0358536  -0.0031674
    2   0.0132106   0.0054770  -0.0077389  -0.0217471  -0.0145748   0.0002231
    3   0.0034365  -0.0006095   0.0362225  -0.0245442  -0.0005810  -0.0002197
          235         236         237         238         239         240
    1   0.0398015  -0.0055982  -0.0110368   0.0051927   0.0844261  -0.0066260
    2  -0.0054783   0.0398594  -0.0055230  -0.0059774  -0.0674521  -0.0029150
    3   0.0004714  -0.0002828   0.0406547   0.0054855  -0.0345052   0.0029510
          241         242         243         244         245         246
    1  -0.0311348   0.0050281   0.0248188  -0.0323728   0.0154458   0.0040066
    2   0.0294775  -0.0010979  -0.0256297  -0.0056284   0.0334781   0.0028101
    3   0.0185423  -0.0148446  -0.0065721  -0.0178622  -0.0078441  -0.0365058
          247         248         249         250         251         252
    1  -0.0041026   0.0118737  -0.0042805  -0.0096284   0.0010847   0.0192316
    2   0.0041224   0.0353598  -0.0002573  -0.0327242   0.0003732  -0.0247072
    3   0.0002771   0.0161236   0.0021831  -0.0127031   0.0005783   0.0243895
          253         254         255         256         257         258
    1   0.0117872  -0.0393358   0.0017676   0.0081383  -0.0000918  -0.0396211
    2   0.0336067  -0.0053328  -0.0025863   0.0374889   0.0021014  -0.0078181
    3   0.0206609   0.0139312  -0.0000319   0.0088318  -0.0399294   0.0086596
          259         260         261         262         263         264
    1  -0.0076347   0.0079971   0.0009014  -0.0100698   0.0113003  -0.0047658
    2   0.0086986  -0.0651427   0.0083909   0.0384154  -0.0091855  -0.0270381
    3  -0.0063495  -0.0769629   0.0011908   0.0237924   0.0070645  -0.0208199
          265         266         267         268         269         270
    1   0.0050495   0.0242396   0.0158782   0.0002290   0.0285799  -0.0193053
    2   0.0078427  -0.0282757   0.0154564   0.0028916   0.0147158   0.0320848
    3   0.0115248   0.0052404   0.0330380   0.0058507   0.0245490   0.0065657
          271         272         273         274         275         276
    1  -0.0147675  -0.0340156   0.0132225   0.0005017   0.0430226  -0.0038859
    2   0.0223760   0.0035937   0.0273046   0.0149268   0.0035563   0.0048296
    3   0.0084633  -0.0177555  -0.0181945  -0.0162580   0.0164216   0.0011148
          277         278         279         280         281         282
    1  -0.0242206  -0.0253410  -0.0192677   0.0000490   0.0479389  -0.0117521
    2   0.0197732   0.0214862  -0.0417601  -0.0051522   0.0027423  -0.0455364
    3  -0.0013716   0.0000161  -0.0118649   0.0158695   0.0040953  -0.0122574
          283         284         285         286         287         288
    1   0.0010200  -0.0594053  -0.0013219   0.0250103  -0.0107169  -0.0069662
    2   0.0077748   0.0826541   0.0064120  -0.0316391   0.0003204   0.0318154
    3  -0.0084116   0.0451903   0.0057490  -0.0213742   0.0170768   0.0162181
          289         290         291         292         293         294
    1  -0.0007955  -0.0245056   0.0046886  -0.0233051   0.0227065  -0.0310498
    2   0.0034937  -0.0034936  -0.0368763   0.0168720  -0.0134671  -0.0169386
    3  -0.0013013   0.0302681  -0.0129357  -0.0265674   0.0254323   0.0147784
          295         296         297         298         299         300
    1   0.0004458   0.0270094   0.0018897   0.0088985   0.0322836  -0.0015017
    2  -0.0000395  -0.0069135  -0.0005936  -0.0356690   0.0152386   0.0024651
    3  -0.0005502   0.0264962   0.0016846  -0.0012308  -0.0107399   0.0114346
          301         302         303         304         305         306
    1  -0.0071641  -0.0314953   0.0383393  -0.0102951  -0.0324697  -0.0008750
    2   0.0369309  -0.0162371  -0.0181133   0.0015617  -0.0203558   0.0389202
    3   0.0012410   0.0105256  -0.0120969  -0.0005530   0.0151426   0.0037035
          307         308         309         310         311         312
    1   0.0007131  -0.0064940  -0.0259728  -0.0001233   0.0334720   0.0002955
    2  -0.0114043   0.0380182   0.0024320   0.0012577  -0.0045287   0.0013263
    3  -0.0358705   0.0048969   0.0274892  -0.0005636   0.0175509   0.0004855
          313         314         315         316         317         318
    1   0.0273533   0.0020416  -0.0036085  -0.0066987   0.0349562   0.0008350
    2  -0.0009920  -0.0345949   0.0029365  -0.0014807   0.0137452  -0.0008328
    3  -0.0245963   0.0120455  -0.0013603   0.0036673  -0.0198955   0.0071236
          319         320         321         322         323         324
    1  -0.0018309   0.0071855  -0.0374323   0.0070494  -0.0352983   0.0002034
    2   0.0240875   0.0038758   0.0155152   0.0048089  -0.0041320   0.0053324
    3  -0.0377961   0.0035723  -0.0114472  -0.0017959   0.0216344  -0.0071412
          325         326         327         328         329         330
    1   0.0023546   0.0007913  -0.0048124  -0.0015701   0.0200930  -0.0032939
    2  -0.0202648   0.0371429   0.0026628  -0.0001838  -0.0300912   0.0023829
    3   0.0369918  -0.0123951   0.0372032  -0.0014277  -0.0090273  -0.0017485
          331         332         333         334         335         336
    1   0.0042049   0.0014963  -0.0069310   0.0244172  -0.0386826   0.0000813
    2   0.0117364   0.0060735  -0.0131241  -0.0214378  -0.0001930   0.0010170
    3  -0.0342387  -0.0007214   0.0360232  -0.0210529  -0.0179987  -0.0025171
          337         338         339         340         341         342
    1  -0.0129762  -0.0381640   0.0119564  -0.0091149  -0.0149322  -0.0011797
    2  -0.0081824   0.0054684   0.0373099  -0.0016765   0.0907880  -0.0028715
    3   0.0366084  -0.0202736   0.0044239   0.0081024   0.0603013   0.0021509
          343         344         345         346         347         348
    1  -0.0000434   0.0143821  -0.0063346   0.0037227   0.0245366   0.0097658
    2  -0.0418388   0.0093800   0.0275397  -0.0073962   0.0238612  -0.0284840
    3  -0.0203814  -0.0019005   0.0260341   0.0038034  -0.0137524  -0.0187997
          349         350         351         352         353         354
    1   0.0117742  -0.0237782   0.0148497   0.0051589  -0.0062594   0.0865383
    2  -0.0051596  -0.0199744   0.0233901   0.0022736  -0.0693634   0.0195499
    3   0.0009308   0.0195197   0.0236859   0.0031807  -0.0659297   0.0554745
          355         356         357         358         359         360
    1   0.0014540  -0.0199325  -0.0019630   0.0162637  -0.0089046   0.0218456
    2  -0.0078926  -0.0793542  -0.0026101   0.0345177   0.0003592  -0.0158616
    3   0.0130897  -0.0653558   0.0050317   0.0258363  -0.0153795  -0.0209948
          361         362         363         364         365         366
    1  -0.0007359   0.0039911  -0.0115267   0.0025053   0.0042107  -0.0234754
    2  -0.0048684  -0.0357430   0.0008692   0.0058583   0.0399321   0.0007631
    3   0.0006816   0.0009318  -0.0368690  -0.0063483   0.0122143  -0.0140068
          367         368         369         370         371         372
    1  -0.0093653   0.0026841   0.0283994  -0.0322531   0.0117724   0.0046607
    2  -0.0455399   0.0061392   0.0254688   0.0222512  -0.0199058  -0.0060239
    3   0.0069428   0.0135224  -0.0089280   0.0103740   0.0343064   0.0100513
          373         374         375         376         377         378
    1   0.0697780   0.0044445  -0.0343886   0.0046385   0.0298723   0.0010645
    2   0.0496675   0.0005388  -0.0211289   0.0177435   0.0082035  -0.0000533
    3   0.0708739  -0.0011097  -0.0225991  -0.0055859   0.0205719  -0.0022836
          379         380         381         382         383         384
    1  -0.0295044  -0.0017109   0.0293292   0.0077928  -0.0301338  -0.0017316
    2  -0.0113517  -0.0011552   0.0181488   0.0061480   0.0227658   0.0003671
    3  -0.0182422   0.0001534   0.0185608  -0.0369789   0.0061412   0.0007899
          385         386         387         388         389         390
    1   0.0330521  -0.0024124   0.0087697   0.0018722  -0.0990456  -0.0026479
    2   0.0106121  -0.0370591   0.0022415  -0.0090904  -0.0405917   0.0053898
    3   0.0187809   0.0073546  -0.0369093  -0.0045900  -0.0371763  -0.0125658
          391         392         393         394         395         396
    1   0.0407775  -0.0174901  -0.0242693   0.0011903   0.0010139   0.0217943
    2   0.0061686   0.0075492  -0.0007630  -0.0024793  -0.0356366   0.0054597
    3   0.0207186   0.0033645  -0.0259146   0.0005531   0.0037803   0.0308370
          397         398         399         400         401         402
    1  -0.0032174   0.0174359   0.0224308   0.0017148  -0.0274568  -0.0032073
    2   0.0030604  -0.0136042   0.0212034  -0.0024420   0.0287225  -0.0166363
    3   0.0026159  -0.0066630   0.0317466  -0.0023105   0.0230183  -0.0171852
          403         404         405         406         407         408
    1   0.0019907  -0.0343962   0.0058149  -0.0371075   0.0013086  -0.0047203
    2  -0.0078775   0.0196069  -0.0000087  -0.0078006   0.0014539  -0.0301010
    3  -0.0061535   0.0110237   0.0039497  -0.0174148   0.0050011  -0.0299007
          409         410         411         412         413         414
    1  -0.0068789   0.0338311  -0.0014157   0.0080447   0.0044469   0.0023540
    2   0.0001886  -0.0229766  -0.0016587   0.0361430   0.0368576  -0.0012390
    3  -0.0013938  -0.0145470  -0.0007006  -0.0010283  -0.0065468  -0.0041044
          415         416         417         418         419         420
    1   0.0304330   0.0107605  -0.0012947  -0.0045829   0.0020641  -0.0457112
    2  -0.0094455  -0.0039689  -0.0352088   0.0170240   0.0130258  -0.0139559
    3   0.0202654   0.0101364   0.0107820   0.0311811  -0.0385675   0.0373045
          421         422         423         424         425         426
    1   0.0053620   0.0284697  -0.0013524   0.0027719  -0.0034346   0.0015088
    2  -0.0179726  -0.0068514  -0.0013330   0.0347321  -0.0031955  -0.0287777
    3  -0.0336248  -0.0248867  -0.0031286   0.0163538   0.0012431  -0.0234811
          427         428         429         430         431         432
    1  -0.0114721  -0.0004189   0.0081295  -0.0000710   0.0295290  -0.0104003
    2   0.0256769  -0.0001435  -0.0281116  -0.0047846   0.0103849   0.0303517
    3  -0.0273463  -0.0044918   0.0206909  -0.0038441   0.0209279  -0.0237406
          433         434         435         436         437         438
    1  -0.0302912  -0.0003235   0.0018448  -0.0194496  -0.0341031   0.0087271
    2  -0.0048132   0.0001076  -0.0322447   0.0275086  -0.0115431  -0.0258994
    3   0.0227957   0.0006080  -0.0279900  -0.0261480   0.0177619   0.0266141
          439         440         441         442         443         444
    1   0.0349255  -0.0027092  -0.0216573   0.0000132   0.0206368   0.0031023
    2   0.0133722  -0.0018645   0.0336984   0.0009657  -0.0265164   0.0014274
    3  -0.0103021  -0.0048389   0.0018639  -0.0011432  -0.0036818  -0.0051815
          445         446         447         448         449         450
    1  -0.0168927  -0.0007626  -0.0278150  -0.0021675  -0.0162512   0.0334965
    2  -0.0252545  -0.0142054   0.0311653   0.0009151  -0.0208105   0.0149888
    3  -0.0236367   0.0349373  -0.0012570   0.0017613  -0.0306982  -0.0163351
          451         452         453         454         455         456
    1  -0.0264032   0.0026359   0.0358736   0.0010868   0.0060291  -0.0017531
    2   0.0338755  -0.0134636  -0.0117976   0.0046314   0.0402374   0.0002669
    3  -0.0061559   0.0345378   0.0079091   0.0027604   0.0002380   0.0080687
          457         458         459         460         461         462
    1  -0.0022784  -0.0374954   0.0002413   0.0619252  -0.0592771  -0.0007962
    2  -0.0382372   0.0105723   0.0114344   0.1011918  -0.0910224   0.0099253
    3   0.0023668   0.0005819   0.0297307   0.0051855   0.0138672   0.0166064
          463         464         465         466         467         468
    1  -0.0191110  -0.0060329   0.0004580  -0.0289853  -0.0008349   0.0040421
    2  -0.0074010   0.0363506  -0.0004483  -0.0060216  -0.0022878  -0.0354717
    3   0.0336631   0.0122398   0.0001058  -0.0242620   0.0018670  -0.0078448
          469         470         471         472         473         474
    1   0.0253095  -0.0108352  -0.0031190  -0.0274477   0.0299628  -0.0011418
    2   0.0031520   0.0009052   0.0346280  -0.0054139  -0.0255005   0.0051368
    3   0.0271094   0.0060674   0.0090970  -0.0265800   0.0199459  -0.0091970
          475         476         477         478         479         480
    1  -0.0019269   0.0307604  -0.0310023  -0.0107656  -0.0364424  -0.0001250
    2   0.0355223  -0.0110759  -0.0144555  -0.0207118  -0.0114750   0.0018865
    3   0.0051040  -0.0227580  -0.0225350   0.0311947  -0.0017115  -0.0014011
          481         482         483         484         485         486
    1   0.0132796  -0.0036303  -0.0012987  -0.0172079  -0.0058471   0.0168984
    2  -0.0186899   0.0014030  -0.0358371   0.0130291  -0.0122775  -0.0140975
    3   0.0323333  -0.0008034  -0.0107082  -0.0306114   0.0000993   0.0315558
          487         488         489         490         491         492
    1   0.0182382  -0.0073797  -0.0053744  -0.0317851   0.0222772  -0.0032559
    2  -0.0149844   0.0281754   0.0045507  -0.0140285  -0.0080631   0.0434455
    3  -0.0249503   0.0369867  -0.0123289  -0.0237215  -0.0129952  -0.0094257
          493         494         495         496         497         498
    1  -0.0039348  -0.0375123   0.0006897   0.0089292   0.0022881   0.0415682
    2   0.0378333   0.0025381   0.0021917  -0.0271220   0.0061844  -0.0005119
    3   0.0087938  -0.0017722  -0.0024195   0.0232467  -0.0037954  -0.0030267
          499         500         501         502         503         504
    1  -0.0052875  -0.0090813   0.0109719  -0.0339028   0.0002561   0.0162218
    2   0.0342569  -0.0264556   0.0331216  -0.0152688  -0.0011323   0.0010273
    3  -0.0292801  -0.0181882   0.0182340   0.0025330  -0.0027311   0.0334258
          505         506         507         508         509         510
    1  -0.0000669   0.0344339   0.0091101  -0.0017283   0.0130478  -0.0048030
    2  -0.0001044   0.0116647  -0.0334118  -0.0038758   0.0064951  -0.0434801
    3  -0.0001618  -0.0041408   0.0082405  -0.0054266   0.0112552   0.0115673
          511         512         513         514         515         516
    1  -0.0034453  -0.0234731   0.0088928   0.0066554  -0.0238148   0.0027519
    2  -0.0095377  -0.0331282   0.0163028   0.0049281  -0.0111195  -0.0072001
    3  -0.0114841  -0.0328268  -0.0023024   0.0021429  -0.0330137   0.0036246
          517         518         519         520         521         522
    1  -0.0071055  -0.0012821   0.0145147  -0.0035806   0.0240728   0.0013792
    2   0.0226144  -0.0096202   0.0366548  -0.0012175   0.0133885  -0.0018044
    3  -0.0332202  -0.0000121  -0.0015261  -0.0103962   0.0295341  -0.0030618
          523         524         525         526         527         528
    1  -0.0080304  -0.0025587  -0.0017793  -0.0180856   0.0004078   0.0132228
    2   0.0360151   0.0120940  -0.0002498  -0.0349402  -0.0022307   0.0329250
    3  -0.0109194   0.0351804  -0.0017586   0.0014092  -0.0033355   0.0041551
          529         530         531         532         533         534
    1  -0.0368465  -0.0017980   0.0348745   0.0009986  -0.0395884  -0.0034747
    2   0.0066394   0.0003083  -0.0055158   0.0015340  -0.0010047  -0.0122272
    3   0.0053961   0.0016662  -0.0047249   0.0014857   0.0088589  -0.0361020
          535         536         537         538         539         540
    1   0.0118272   0.0008248  -0.0394040   0.0180611   0.0042310   0.0368673
    2  -0.0324284  -0.0045805   0.0067108   0.0332062  -0.0092258  -0.0095318
    3   0.0182714   0.0017849   0.0020485   0.0049583  -0.0373412  -0.0045133
          541         542         543         544         545         546
    1   0.0324319   0.0151943  -0.0130601   0.0158171  -0.0135102  -0.0058044
    2   0.0057079   0.0267522  -0.0404938   0.0481616  -0.0677214  -0.0065163
    3  -0.0886050   0.0453911   0.0220705  -0.0865676  -0.0040856   0.0120769
          547         548         549         550         551         552
    1   0.0554248   0.0163110  -0.0261208  -0.0232856   0.0351094  -0.0354445
    2  -0.0616182   0.0517558  -0.0116029   0.1013519  -0.0205607  -0.0380412
    3  -0.0570294   0.0192419   0.0436840  -0.0186986   0.0214598  -0.0153012
          553         554         555         556         557         558
    1  -0.0811728   0.0322686   0.0109555  -0.0517230  -0.0027250   0.0546697
    2   0.0346229  -0.0201306  -0.0077528  -0.0282654  -0.0107865   0.0270772
    3   0.0319232   0.0282461  -0.0559992   0.0767324  -0.0492687   0.0057898
          559         560         561         562         563         564
    1  -0.0361155   0.0108231   0.0152886   0.0961148  -0.0278776  -0.0382495
    2  -0.0881874  -0.0076264   0.0442865  -0.0275368  -0.0214446   0.0297794
    3   0.0634470  -0.0361147   0.0154419  -0.0337967   0.0403604  -0.0295265
          565         566         567         568         569         570
    1   0.0766814  -0.0133407  -0.0289763  -0.0853471   0.0208023   0.0422676
    2   0.0674427  -0.0461288  -0.0097336  -0.0097103  -0.0288102   0.0441273
    3  -0.0179053  -0.0276807   0.0356435  -0.0421386   0.0419059  -0.0004862
          571         572         573         574         575         576
    1   0.0623007   0.0162298  -0.0540520  -0.0379534   0.0466279  -0.0254358
    2   0.0225181  -0.0050428  -0.0157656   0.0972318  -0.0170656  -0.0464441
    3  -0.0733203   0.0507391   0.0033042   0.0039235  -0.0153475   0.0113563
          577         578         579         580         581         582
    1   0.0054594   0.0292639  -0.0330648  -0.0047028   0.0389654  -0.0280834
    2  -0.0672205   0.0442568   0.0026144   0.0186919  -0.0267584   0.0252559
    3   0.0634829   0.0056871  -0.0503119  -0.1002742   0.0220946   0.0378330
          583         584         585
    1  -0.0045946   0.0102793  -0.0055924
    2   0.0482436  -0.0572329   0.0187514
    3  -0.0680451   0.0041359   0.0511783
  --- DONE ESP SUMMARY ---
 Total job time:  38.27s(wall), 348.11s(cpu) 
 Fri Aug  9 16:15:26 2024

        *************************************************************
        *                                                           *
        *  Thank you very much for using Q-Chem.  Have a nice day.  *
        *                                                           *
        *************************************************************


