
Running Job 1 of 2 19nt_mm_min_distance_cutoff6_nowat_xtb_optimized_spade_wb97x-v_631gd.in
qchem 19nt_mm_min_distance_cutoff6_nowat_xtb_optimized_spade_wb97x-v_631gd.in_350372.0 ./qchem350372/ 1
srun -n 1 /cm/shared/apps/spack/0.17.3/cpu/b/opt/spack/linux-rocky8-zen2/gcc-10.2.0/qchem-6.0-rytxnwjazd34ekd2gqyi5ufsaimxsd3r/exe/qcprog.exe 19nt_mm_min_distance_cutoff6_nowat_xtb_optimized_spade_wb97x-v_631gd.in_350372.0 ./qchem350372/

                  Welcome to Q-Chem
     A Quantum Leap Into The Future Of Chemistry


 Q-Chem 6.0, Q-Chem, Inc., Pleasanton, CA (2022)

 License issued to: University of California, San Diego (site)

 E. Epifanovsky,  A. T. B. Gilbert,  Xintian Feng,  Joonho Lee,  Yuezhi Mao,  
 N. Mardirossian,  P. Pokhilko,  A. White,  M. Wormit,  M. P. Coons,  
 A. L. Dempwolff,  Zhengting Gan,  D. Hait,  P. R. Horn,  L. D. Jacobson,  
 I. Kaliman,  J. Kussmann,  A. W. Lange,  Ka Un Lao,  D. S. Levine,  Jie Liu,  
 S. C. McKenzie,  A. F. Morrison,  K. Nanda,  F. Plasser,  D. R. Rehn,  
 M. L. Vidal,  Zhi-Qiang You,  Ying Zhu,  B. Alam,  B. Albrecht,  
 A. Aldossary,  E. Alguire,  J. H. Andersen,  V. Athavale,  D. Barton,  
 K. Begam,  A. Behn,  N. Bellonzi,  Y. A. Bernard,  E. J. Berquist,  
 H. Burton,  A. Carreras,  K. Carter-Fenk,  Romit Chakraborty,  
 Chandrima Chakravarty,  Junhan Chen,  A. D. Chien,  K. D. Closser,  
 V. Cofer-Shabica,  L. Cunha,  S. Dasgupta,  Jia Deng,  M. de Wergifosse,  
 M. Diedenhofen,  Hainam Do,  S. Ehlert,  Po-Tung Fang,  S. Fatehi,  
 Qingguo Feng,  T. Friedhoff,  B. Ganoe,  J. Gayvert,  Qinghui Ge,  
 G. Gidofalvi,  M. Goldey,  J. Gomes,  C. Gonzalez-Espinoza,  S. Gulania,  
 A. Gunina,  J. A. Gyamfi,  M. W. D. Hanson-Heine,  P. H. P. Harbach,  
 A. W. Hauser,  M. F. Herbst,  M. Hernandez Vera,  M. Hodecker,  
 Z. C. Holden,  S. Houck,  Xunkun Huang,  Kerwin Hui,  B. C. Huynh,  
 K. Ikeda,  M. Ivanov,  Hyunjun Ji,  Zuxin Jin,  Hanjie Jiang,  B. Kaduk,  
 S. Kaehler,  R. Kang,  K. Khistyaev,  Jaehoon Kim,  Yongbin Kim,  
 P. Klunzinger,  Z. Koczor-Benda,  Joong Hoon Koh,  D. Kosenkov,  
 Saikiran Kotaru,  L. Koulias,  T. Kowalczyk,  C. M. Krauter,  K. Kue,  
 A. Kunitsa,  T. Kus,  A. Landau,  K. V. Lawler,  D. Lefrancois,  S. Lehtola,  
 Rain Li,  Shaozhi Li,  Yi-Pei Li,  Jiashu Liang,  M. Liebenthal,  
 Hung-Hsuan Lin,  You-Sheng Lin,  Fenglai Liu,  Kuan-Yu Liu,  
 M. Loipersberger,  A. Luenser,  C. Malbon,  A. Manjanath,  P. Manohar,  
 E. Mansoor,  S. F. Manzer,  Shan-Ping Mao,  A. V. Marenich,  T. Markovich,  
 S. Mason,  F. Matz,  S. A. Maurer,  P. F. McLaughlin,  M. F. S. J. Menger,  
 J.-M. Mewes,  S. A. Mewes,  P. Morgante,  Mohammad Mostafanejad,  
 J. W. Mullinax,  K. J. Oosterbaan,  G. Paran,  V. Parravicini,  
 Alexander C. Paul,  Suranjan K. Paul,  F. Pavosevic,  Zheng Pei,  S. Prager,  
 E. I. Proynov,  E. Ramos,  B. Rana,  A. E. Rask,  A. Rettig,  R. M. Richard,  
 F. Rob,  E. Rossomme,  T. Scheele,  M. Scheurer,  M. Schneider,  
 P. E. Schneider,  N. Sergueev,  S. M. Sharada,  Hengyuan Shen,  
 W. Skomorowski,  D. W. Small,  C. J. Stein,  Yingli Su,  Yu-Chuan Su,  
 E. J. Sundstrom,  Zhen Tao,  J. Thirman,  Hung-Yi Tsai,  T. Tsuchimochi,  
 N. M. Tubman,  C. Utku,  S. P. Veccham,  O. Vydrov,  J. Wenzel,  
 Jonathan Wong,  J. Witte,  A. Yamada,  Chou-Hsun Yang,  Kun Yao,  
 S. Yeganeh,  S. R. Yost,  A. Zech,  F. Zeller,  Igor Ying Zhang,  
 Xing Zhang,  Yu Zhang,  D. Zuev,  A. Aspuru-Guzik,  A. T. Bell,  
 N. A. Besley,  K. B. Bravaya,  B. R. Brooks,  D. Casanova,  Jeng-Da Chai,  
 Hsing-Ta Chen,  S. Coriani,  C. J. Cramer,  A. E. DePrince, III,  
 R. A. DiStasio Jr.,  A. Dreuw,  B. D. Dunietz,  T. R. Furlani,  
 W. A. Goddard III,  S. Grimme,  S. Hammes-Schiffer,  T. Head-Gordon,  
 W. J. Hehre,  Chao-Ping Hsu,  T.-C. Jagau,  Yousung Jung,  A. Klamt,  
 Jing Kong,  D. S. Lambrecht,  Xiangyuan Li,  WanZhen Liang,  N. J. Mayhall,  
 C. W. McCurdy,  J. B. Neaton,  T. Neudecker,  C. Ochsenfeld,  
 J. A. Parkhill,  R. Peverati,  V. A. Rassolov,  Haisheng Ren,  Yihan Shao,  
 L. V. Slipchenko,  R. P. Steele,  J. E. Subotnik,  A. J. W. Thom,  
 A. Tkatchenko,  D. G. Truhlar,  T. Van Voorhis,  Fan Wang,  
 T. A. Wesolowski,  K. B. Whaley,  H. L. Woodcock III,  P. M. Zimmerman,  
 S. Faraji,  P. M. W. Gill,  M. Head-Gordon,  J. M. Herbert,  A. I. Krylov

 Contributors to earlier versions of Q-Chem not listed above: 
 R. D. Adamson,  B. Austin,  R. Baer,  J. Baker,  G. J. O. Beran,  
 K. Brandhorst,  S. T. Brown,  E. F. C. Byrd,  Arup K. Chakraborty,  
 G. K. L. Chan,  Chun-Min Chang,  Yunqing Chen,  C.-L. Cheng,  
 Siu Hung Chien,  D. M. Chipman,  D. L. Crittenden,  H. Dachsel,  
 R. J. Doerksen,  A. D. Dutoi,  R. G. Edgar,  J. Fosso-Tande,  
 L. Fusti-Molnar,  D. Ghosh,  A. Ghysels,  A. Golubeva-Zadorozhnaya,  
 J. Gonthier,  M. S. Gordon,  S. R. Gwaltney,  G. Hawkins,  J. E. Herr,  
 A. Heyden,  S. Hirata,  E. G. Hohenstein,  G. Kedziora,  F. J. Keil,  
 C. Kelley,  Jihan Kim,  R. A. King,  R. Z. Khaliullin,  P. P. Korambath,  
 W. Kurlancheek,  A. Laurent,  A. M. Lee,  M. S. Lee,  S. V. Levchenko,  
 Ching Yeh Lin,  D. Liotard,  E. Livshits,  R. C. Lochan,  I. Lotan,  
 L. A. Martinez-Martinez,  P. E. Maslen,  N. Nair,  D. P. O'Neill,  
 D. Neuhauser,  E. Neuscamman,  C. M. Oana,  R. Olivares-Amaya,  R. Olson,  
 T. M. Perrine,  B. Peters,  P. A. Pieniazek,  A. Prociuk,  Y. M. Rhee,  
 J. Ritchie,  M. A. Rohrdanz,  E. Rosta,  N. J. Russ,  H. F. Schaefer III,  
 M. W. Schmidt,  N. E. Schultz,  S. Sharma,  N. Shenvi,  C. D. Sherrill,  
 A. C. Simmonett,  A. Sodt,  T. Stein,  D. Stuck,  K. S. Thanthiriwatte,  
 V. Vanovschi,  L. Vogt,  Tao Wang,  A. Warshel,  M. A. Watson,  
 C. F. Williams,  Q. Wu,  X. Xu,  Jun Yang,  W. Zhang,  Yan Zhao

   Please cite Q-Chem as follows:
  "Software for the frontiers of quantum chemistry:
   An overview of developments in the Q-Chem 5 package"
   J. Chem. Phys. 155, 084801 (2021)
   https://doi.org/10.1063/5.0055522 (open access)

 Q-Chem 6.0.2 for Intel X86 EM64T Linux

 Parts of Q-Chem use Armadillo 9.900.5 (Nocturnal Misbehaviour).
 http://arma.sourceforge.net/

 Q-Chem begins on Fri Aug  9 13:55:08 2024  

 Host: 
0

     Scratch files written to ./qchem350372//
 Dec722 |scratch|qcdevops|jenkins|workspace|build_RNUM    
 Processing $rem in /cm/shared/apps/spack/0.17.3/cpu/b/opt/spack/linux-rocky8-zen2/gcc-10.2.0/qchem-6.0-rytxnwjazd34ekd2gqyi5ufsaimxsd3r/config/preferences:
 Processing $rem in /home/hklem/.qchemrc:
 No nuclear gradient supported for projection-based embedding or EMFT. Set max ideriv = 0.

 Checking the input file for inconsistencies... 	...done.

--------------------------------------------------------------
User input:
--------------------------------------------------------------
$molecule
-1 1
--
0 1
C    3.12400    2.39500    -8.99700
O    2.75300    1.32000    -8.46900
C    3.00700    3.64900    -8.36700
C    3.26200    4.83600    -8.99600
C    3.84800    4.86000    -10.38100
C    4.59300    3.55000    -10.64500
C    3.66400    2.37100    -10.40400
C    2.81800    6.09100    -8.40300
C    3.64600    7.32100    -8.74700
C    3.92200    7.36100    -10.24500
C    4.72400    6.10500    -10.62200
C    4.71200    8.60100    -10.63200
C    5.08700    8.64400    -12.12100
C    5.97400    7.44100    -12.42300
C    5.24200    6.14500    -12.06600
C    4.08000    9.97100    -10.39900
C    4.98500    10.90700   -11.21800
C    5.80300    10.01000   -12.17600
C    3.88400    8.67000    -13.07100
O    5.86900    10.60100   -13.45600
H    2.60000    3.65600    -7.36500
H    2.99400    4.91900    -11.07300
H    5.45300    3.48100    -9.97500
H    4.95800    3.51300    -11.67100
H    2.80700    2.43700    -11.08600
H    4.17100    1.42000    -10.58700
H    2.66100    5.99600    -7.32900
H    1.79500    6.24400    -8.86000
H    4.59000    7.29800    -8.19600
H    3.10900    8.21700    -8.44400
H    2.96000    7.35000    -10.76400
H    5.58900    6.04700    -9.95100
H    5.65400    8.57900    -10.07100
H    6.90000    7.51500    -11.84800
H    6.24100    7.41400    -13.48200
H    4.40500    6.00800    -12.75300
H    5.94000    5.32000    -12.21900
H    4.05900    10.24800   -9.34700
H    3.05600    9.98100    -10.76900
H    5.65100    11.46600   -10.56300
H    4.41300    11.62100   -11.80900
H    6.82600    9.88400    -11.78900
H    3.45400    9.66600    -13.11600
H    4.20600    8.39300    -14.07300
H    3.11000    7.97600    -12.75900
H    6.09200    9.90900    -14.08800
--
-1 1
H    6.87200    -6.36500   -9.21600
C    6.23200    -5.53400   -9.52100
H    5.73900    -5.78500   -10.46000
C    5.17500    -5.25200   -8.44100
H    4.54100    -6.13500   -8.33400
H    5.66600    -5.06800   -7.48200
C    4.34400    -4.05800   -8.81800
C    3.20500    -4.18200   -9.60000
H    2.87600    -5.16400   -9.91200
C    2.47500    -3.07100   -9.97700
H    1.58500    -3.17200   -10.57800
C    2.88400    -1.80400   -9.57400
O    2.17200    -0.71600   -9.97200
H    2.44400    0.07200    -9.41100
C    4.01900    -1.66900   -8.78300
H    4.32600    -0.68900   -8.45100
C    4.73700    -2.78900   -8.41600
H    5.61900    -2.67700   -7.80500
C    7.09800    -4.29000   -9.79700
O    6.98100    -3.63900   -10.81800
N    8.00000    -3.97100   -8.84200
H    8.07900    -4.55900   -8.02800
C    8.93800    -2.84900   -8.91700
H    8.45500    -2.04600   -9.47400
C    9.35900    -2.40300   -7.51500
H    9.69800    -3.29700   -6.97300
C    10.54300   -1.44300   -7.60600
H    10.83000   -1.10800   -6.61300
H    10.28100   -0.57600   -8.20100
H    11.40000   -1.93200   -8.06700
C    8.20100    -1.79600   -6.71300
H    7.44600    -2.56700   -6.54200
H    8.57600    -1.50900   -5.72900
C    7.53900    -0.58400   -7.35300
H    6.75600    -0.21500   -6.69500
H    7.09100    -0.83200   -8.31100
H    8.25100    0.22300    -7.49500
H    9.82400    -3.16700   -9.48200
H    7.88000    -1.91600   -13.21100
C    7.94100    -0.87100   -13.50200
H    7.07800    -0.63800   -14.12000
C    7.95600    0.01600    -12.25900
H    8.83400    -0.24600   -11.65800
C    8.04500    1.48800    -12.65200
H    8.95500    1.69100    -13.21400
H    7.19600    1.75000    -13.27600
H    8.02700    2.12900    -11.77300
C    6.70900    -0.23100   -11.41500
H    6.72500    0.39000    -10.52100
H    6.65100    -1.27500   -11.11900
H    5.81500    0.00700    -11.98800
H    8.84200    -0.72200   -14.09500
H    3.28800    -5.68700   -15.45400
C    2.40400    -5.29100   -14.95800
H    2.11200    -5.98700   -14.17400
C    2.68800    -3.91400   -14.36100
H    3.00600    -3.24300   -15.16900
C    1.41600    -3.34700   -13.73600
H    1.06100    -4.00500   -12.94600
H    0.63000    -3.25100   -14.48400
H    1.59900    -2.36200   -13.31700
C    3.82600    -4.01500   -13.34000
H    3.46800    -4.54700   -12.45700
H    4.63500    -4.60600   -13.77700
C    4.39300    -2.66900   -12.91300
H    5.23600    -2.82600   -12.24600
H    4.73400    -2.10600   -13.78000
H    3.64900    -2.07900   -12.38600
H    1.59700    -5.23800   -15.68600
H    -2.26800   -7.01600   -12.01600
C    -3.30900   -7.19000   -11.75400
H    -3.37800   -7.26300   -10.67000
C    -4.18400   -6.04400   -12.26200
H    -4.10900   -5.99000   -13.35100
H    -5.22600   -6.23800   -12.00200
C    -3.73400   -4.74600   -11.65400
C    -2.58300   -4.12300   -12.11600
H    -2.03900   -4.55200   -12.94600
C    -2.11800   -2.96100   -11.53400
H    -1.21700   -2.49700   -11.90200
C    -2.80800   -2.38500   -10.47100
O    -2.39700   -1.24100   -9.87700
H    -1.62300   -0.88900   -10.35100
C    -3.96300   -3.00500   -10.00000
H    -4.49500   -2.55500   -9.17600
C    -4.41100   -4.17200   -10.58600
H    -5.30800   -4.64400   -10.20800
H    -3.62300   -8.13700   -12.18700
H    -3.86000   5.97600    -7.59600
C    -2.95800   6.59000    -7.65700
H    -2.42300   6.54000    -6.71100
C    -2.06400   6.06700    -8.78500
H    -2.40000   6.45700    -9.74700
H    -2.10600   4.97500    -8.83900
C    -0.58000   6.43900    -8.57400
O    -0.24100   6.81500    -7.43800
O    0.18300    6.29300    -9.55000
C    -3.41000   8.00000    -7.99700
O    -4.12500   8.21800    -8.96600
N    -3.01300   9.01200    -7.20400
C    -3.39500   10.37700   -7.52700
H    -2.84800   10.71000   -8.41800
H    -4.46300   10.42000   -7.75300
C    -2.99200   11.18300   -6.29800
H    -2.76700   12.22000   -6.54000
H    -3.79100   11.16100   -5.55400
C    -1.77500   10.41600   -5.78800
H    -1.54800   10.61600   -4.74300
H    -0.89800   10.66500   -6.38700
C    -2.17200   8.96000    -6.02400
H    -1.30500   8.31900    -6.19300
H    -2.74500   8.57200    -5.17100
H    -3.19700   3.82300    -17.93800
C    -2.80500   4.40700    -17.10400
H    -3.04400   5.45700    -17.26300
C    -3.41600   3.92200    -15.77500
H    -3.41600   2.83000    -15.73900
H    -4.45500   4.25600    -15.73000
C    -2.64900   4.46000    -14.59300
C    -2.81700   5.77500    -14.17800
H    -3.53500   6.40300    -14.68800
C    -2.09700   6.27500    -13.10600
H    -2.25200   7.29400    -12.78400
C    -1.19300   5.47000    -12.43100
H    -0.64400   5.84900    -11.58000
C    -1.02400   4.15800    -12.84000
H    -0.33400   3.51200    -12.31600
C    -1.74500   3.65700    -13.90900
H    -1.61200   2.62400    -14.19900
C    -1.27500   4.27900    -17.06600
O    -0.55300   5.26400    -17.17700
N    -0.78000   3.03500    -16.93600
H    -1.42700   2.28400    -16.75400
C    0.64100    2.68000    -16.85000
H    1.08900    3.21000    -16.00200
C    0.81700    1.17200    -16.68800
H    0.15400    0.65400    -17.38400
H    1.84500    0.92200    -16.95500
C    0.55600    0.72800    -15.27300
C    -0.69500   0.29100    -14.85900
H    -1.50700   0.21600    -15.57100
C    -0.92400   -0.08000   -13.54700
H    -1.90200   -0.41200   -13.23100
C    0.11400    -0.03900   -12.62000
O    -0.12900   -0.43500   -11.34900
H    0.71000    -0.50700   -10.83700
C    1.37400    0.38700    -13.03000
H    2.18500    0.39700    -12.31700
C    1.58200    0.77600    -14.33700
H    2.56200    1.11200    -14.64100
H    1.12700    3.03100    -17.76700
H    0.38200    6.14000    -19.78600
C    0.80600    7.14500    -19.80900
H    1.07600    7.39600    -20.83200
C    -0.18700   8.14600    -19.20800
H    -0.06500   9.12100    -19.67900
H    0.03800    8.27300    -18.14700
C    -1.64400   7.68700    -19.34100
H    -2.05300   7.95700    -20.31400
H    -1.69800   6.60400    -19.22200
C    -2.49100   8.32400    -18.24800
O    -3.32300   9.18100    -18.44800
N    -2.21300   7.83100    -17.02200
H    -1.53700   7.09200    -16.88900
H    -2.66800   8.22300    -16.21500
C    2.11000    7.11200    -18.96700
O    3.19500    7.39700    -19.44700
N    1.97200    6.71300    -17.67600
H    1.05900    6.36700    -17.40100
C    2.89700    6.99300    -16.56700
H    2.47100    6.54500    -15.66800
H    2.97200    8.07500    -16.40800
C    4.34500    6.48700    -16.68500
O    5.22300    7.02200    -16.03800
N    4.55700    5.40800    -17.46100
H    3.77800    5.01100    -17.96300
C    5.86100    4.79000    -17.66700
H    6.58300    5.35200    -17.07200
C    5.83400    3.31300    -17.26700
H    5.21600    2.77000    -17.98800
H    6.85100    2.93100    -17.35700
C    5.30100    3.05300    -15.85600
H    4.25400    3.37800    -15.80700
C    5.35600    1.55300    -15.57300
H    4.97600    1.33300    -14.57700
H    4.76400    0.99800    -16.29800
H    6.38300    1.19900    -15.63400
C    6.09400    3.82900    -14.81000
H    7.15700    3.61800    -14.90200
H    5.94000    4.89800    -14.91600
H    5.77100    3.54500    -13.81200
C    6.29300    4.85400    -19.16200
O    7.24800    4.20200    -19.54300
N    5.52600    5.58800    -19.99300
H    4.82000    6.22200    -19.63100
C    5.76000    5.66700    -21.43000
H    6.56500    4.97600    -21.67500
H    4.85100    5.38900    -21.96200
H    6.04600    6.68100    -21.71100
H    11.22800   6.14500    -16.47300
C    11.13800   6.04700    -15.39100
H    11.45400   6.96800    -14.90100
C    9.67200    5.75300    -15.02700
H    9.41300    4.76300    -15.42200
C    9.45700    5.77100    -13.51800
H    10.02700   4.99100    -13.02100
H    9.75500    6.73200    -13.10600
H    8.40500    5.61900    -13.29000
C    8.78100    6.79700    -15.69700
H    9.04300    7.79200    -15.34700
H    8.89300    6.76800    -16.77900
H    7.73600    6.62700    -15.45500
C    12.08100   4.92900    -14.96000
O    12.38000   4.01800    -15.75400
N    12.59100   4.98500    -13.72800
H    12.36300   5.79300    -13.14800
C    13.36300   3.93800    -13.04500
H    13.27900   3.02100    -13.63500
C    14.82800   4.33900    -12.80600
H    15.45000   3.44300    -12.85900
H    14.96800   4.75800    -11.80000
C    15.37000   5.41900    -13.73900
H    16.34100   5.70400    -13.33200
H    14.72900   6.29800    -13.69100
C    15.49700   5.01300    -15.20900
H    14.52400   4.90800    -15.68000
H    16.05200   5.78300    -15.75000
N    16.22600   3.76700    -15.36300
H    17.17000   3.80100    -15.00100
C    15.69100   2.56200    -15.54000
N    14.41400   2.36800    -15.81600
H    13.64400   3.10000    -15.77700
H    14.10600   1.43300    -16.01700
N    16.51900   1.49100    -15.45100
H    17.51100   1.62500    -15.36900
H    16.20200   0.58700    -15.75400
C    12.65200   3.75400    -11.68500
O    12.03900   4.67500    -11.18700
N    12.73900   2.54200    -11.10900
H    13.24500   1.80100    -11.56400
C    12.03000   2.21200    -9.87600
H    11.75500   3.16200    -9.41500
C    10.78500   1.38800    -10.16600
H    10.17900   1.30800    -9.26800
H    11.04700   0.38900    -10.50800
H    10.19100   1.87700    -10.93200
H    12.71200   1.67800    -9.21000
H    5.39800    -2.04100   0.40600
C    6.31300    -1.56100   0.06500
H    7.11800    -1.83100   0.74400
C    6.64900    -1.99700   -1.35700
H    6.79900    -3.07800   -1.38700
H    7.58000    -1.52600   -1.68000
C    5.54100    -1.62400   -2.32900
H    5.40900    -0.54200   -2.37200
H    4.59800    -2.09400   -2.04400
S    5.94500    -2.19300   -4.01700
C    4.44600    -1.61500   -4.85200
H    3.58100    -2.08000   -4.38800
H    4.39400    -0.53200   -4.79500
H    4.51100    -1.92700   -5.88800
H    6.17100    -0.48300   0.11100
H    9.30300    2.47700    -2.21600
C    10.09100   2.56300    -2.96000
H    11.04600   2.35700    -2.48000
C    9.84500    1.59100    -4.11500
H    10.65200   1.68500    -4.84500
H    9.85000    0.56700    -3.73000
C    8.52300    1.88000    -4.76900
C    8.44800    2.56500    -5.97300
H    9.36100    2.87700    -6.46500
C    7.22000    2.85300    -6.54600
H    7.17200    3.38300    -7.48600
C    6.05300    2.47200    -5.91200
H    5.08900    2.69400    -6.34200
C    6.11900    1.80600    -4.70000
H    5.20100    1.54800    -4.19600
C    7.34400    1.50300    -4.13800
H    7.39400    0.97200    -3.19800
H    10.10100   3.58700    -3.32700
H    10.49900   6.31200    -7.70100
C    10.71800   6.29500    -8.76800
H    11.34500   5.43900    -9.00700
C    9.41600    6.24300    -9.58300
H    9.63000    6.59700    -10.59600
C    8.89800    4.81100    -9.68100
H    8.76600    4.38600    -8.68800
H    9.60400    4.19900    -10.23400
H    7.94300    4.79100    -10.20000
C    8.37300    7.16100    -8.95800
H    8.07900    6.79800    -7.97500
H    7.48800    7.22100    -9.58700
H    8.78400    8.16000    -8.85200
C    11.48200   7.58100    -9.13100
O    11.34200   8.62300    -8.50900
N    12.28400   7.47700    -10.21100
H    12.32500   6.58800    -10.69200
C    13.11400   8.53500    -10.77500
H    13.00600   9.41700    -10.13900
C    14.58300   8.07100    -10.88300
H    15.17900   8.89100    -11.29200
H    14.61400   7.24300    -11.59700
C    15.21000   7.56800    -9.59600
H    14.50900   6.92300    -9.06000
H    15.51300   8.38200    -8.93800
C    16.48300   6.68100    -9.94300
O    16.29900   5.81100    -10.81600
O    17.51100   6.93400    -9.31900
C    12.67800   8.79300    -12.22200
O    12.42800   7.86100    -12.97800
N    12.65800   10.07700   -12.63600
H    13.00700   10.81300   -12.03800
C    12.27900   10.49600   -13.97900
H    12.95100   10.01300   -14.70600
C    10.83800   10.07300   -14.29900
H    10.80100   8.98500    -14.23600
H    10.60000   10.34600   -15.33000
C    9.78900    10.63900   -13.34200
H    10.04900   11.63600   -12.99000
H    8.81600    10.68400   -13.83000
S    9.58600    9.55900    -11.86600
C    9.99900    10.71000   -10.53200
H    10.86000   11.29400   -10.83800
H    9.14600    11.35100   -10.32500
H    10.25100   10.11700   -9.65700
C    12.55200   12.02800   -14.10100
O    13.44300   12.53200   -13.44400
N    11.83100   12.70900   -15.01900
H    10.97000   12.31600   -15.37100
C    11.99100   14.12300   -15.35900
H    12.84700   14.49500   -14.78800
C    12.23700   14.27000   -16.87100
H    11.36100   13.86100   -17.38800
C    12.39500   15.73800   -17.25900
H    13.23000   16.18500   -16.72300
H    12.59400   15.81800   -18.32500
H    11.49200   16.30000   -17.03800
C    13.47500   13.47700   -17.28100
H    14.35500   13.85800   -16.76700
H    13.36300   12.42600   -17.03000
H    13.63800   13.56100   -18.35300
C    10.68600   14.86000   -14.95000
O    9.61400    14.30600   -15.07800
N    10.83000   16.13000   -14.51300
H    11.76300   16.47900   -14.35700
C    9.74100    16.96800   -14.00300
H    8.82300    16.39900   -14.15400
C    9.94100    17.27900   -12.51200
H    10.53200   16.46400   -12.08400
H    10.49700   18.21000   -12.38500
C    8.64700    17.35300   -11.77300
C    8.10900    18.41900   -11.11800
H    8.48800    19.41900   -11.02100
N    6.93100    18.05800   -10.51800
H    6.34200    18.66600   -9.97500
C    6.68400    16.74000   -10.78200
C    5.63200    15.92000   -10.39200
H    4.83000    16.29900   -9.77500
C    5.64900    14.61300   -10.82600
H    4.84700    13.94800   -10.54100
C    6.68100    14.12700   -11.63500
H    6.64200    13.10500   -11.97900
C    7.73100    14.93100   -12.01600
H    8.51500    14.54500   -12.64900
C    7.74600    16.25800   -11.58200
H    9.69500    17.88600   -14.59500
H    13.75800   15.34300   -10.58500
C    13.71200   14.29400   -10.29700
H    14.39000   14.12900   -9.46200
C    12.30000   13.91600   -9.89900
H    12.25200   12.89300   -9.52400
H    11.90100   14.59700   -9.15000
S    11.20100   14.02100   -11.37000
H    10.05300   13.93100   -10.69800
H    14.04000   13.69200   -11.14300
H    10.52000   10.52300   -6.55200
C    9.63300    10.64500   -5.93500
H    9.69500    11.60300   -5.42000
C    8.38600    10.55400   -6.80500
H    8.48700    9.67400    -7.44100
H    8.32800    11.42700   -7.46100
C    7.07800    10.42700   -6.01900
H    7.18300    9.60400    -5.30200
C    6.75300    11.70100   -5.24400
H    7.53300    11.93200   -4.52100
H    6.64300    12.54200   -5.92600
H    5.81500    11.57900   -4.70700
C    5.93200    10.09300   -6.97000
H    6.15200    9.18600    -7.52800
H    5.78300    10.90500   -7.68000
H    5.00300    9.94400    -6.42500
H    9.63100    9.85300    -5.18900
H    7.04800    6.77800    -3.23100
C    6.13100    6.31600    -2.86900
H    5.41100    7.10600    -2.66000
C    5.57000    5.34500    -3.90300
H    6.31100    4.55600    -4.07500
C    4.28900    4.69800    -3.38300
H    3.92200    3.95500    -4.08600
H    4.47200    4.20500    -2.43000
H    3.51800    5.45200    -3.23400
C    5.31200    6.05900    -5.22800
H    4.92200    5.35900    -5.96200
H    6.23400    6.48700    -5.61700
H    4.59100    6.86400    -5.09900
H    6.35300    5.80100    -1.93600
H    3.17900    0.61700    -2.54800
C    2.19500    1.07900    -2.60000
H    2.32800    2.15800    -2.62400
C    1.45400    0.62100    -3.84700
H    1.39200    -0.46800   -3.89200
H    0.43500    1.01600    -3.85900
C    2.12000    1.11300    -5.11300
O    3.00200    1.93300    -5.14500
O    1.62400    0.53800    -6.19800
H    2.05700    0.90600    -7.02300
H    1.63800    0.81100    -1.70500
H    -2.00100   -3.00600   -2.13800
C    -1.79100   -4.05100   -2.35800
H    -2.54000   -4.41000   -3.06000
C    -0.39200   -4.20400   -2.94200
H    -0.19000   -5.25700   -3.14900
H    0.35200    -3.86100   -2.22000
C    -0.23400   -3.41100   -4.22900
H    -0.35400   -2.34100   -4.04800
H    -0.95800   -3.73400   -4.97900
S    1.43400    -3.68700   -4.92800
C    1.25400    -2.80800   -6.50400
H    1.19400    -1.73700   -6.33300
H    2.13700    -3.04100   -7.08800
H    0.36600    -3.16900   -7.01500
H    -1.88100   -4.62100   -1.43600
H    -4.62900   -1.46000   -5.29000
C    -3.62200   -1.06900   -5.16900
H    -3.02600   -1.80700   -4.63500
C    -2.99700   -0.75500   -6.52200
H    -2.89400   -1.66700   -7.11400
H    -3.64500   -0.07600   -7.07900
C    -1.62200   -0.12500   -6.36800
H    -0.99400   -0.72700   -5.71400
H    -1.12400   -0.01100   -7.32900
S    -1.68900   1.52800    -5.59800
C    -1.91700   2.54600    -7.07700
H    -2.82200   2.24100    -7.59600
H    -1.04900   2.44000    -7.72200
H    -2.00400   3.57600    -6.74500
H    -3.66800   -0.16500   -4.56500
H    -1.18600   4.27300    -4.37900
C    -0.15900   4.53000    -4.13000
H    0.19200    3.82200    -3.38100
C    0.72400    4.48600    -5.36500
H    1.76200    4.66900    -5.09700
H    0.41100    5.23600    -6.08800
H    0.66100    3.50500    -5.83100
H    -0.15300   5.52700    -3.69000
H    1.77600    9.10300    -2.26100
C    2.39600    9.99000    -2.35900
H    2.90900    10.16300   -1.41300
C    3.40000    9.81100    -3.49800
H    4.02500    10.70300   -3.57100
H    4.05100    8.96200    -3.27400
C    2.69500    9.58200    -4.79600
C    2.10200    8.41800    -5.20500
H    2.06200    7.46900    -4.70500
N    1.51500    8.57500    -6.42100
H    0.94500    7.86600    -6.90300
C    1.69900    9.85700    -6.82600
C    1.28900    10.49500   -7.99200
H    0.72500    9.95800    -8.74000
C    1.63200    11.81900   -8.15200
H    1.33300    12.34600   -9.04800
C    2.36500    12.50100   -7.17500
H    2.61400    13.54100   -7.34000
C    2.77300    11.87900   -6.01700
H    3.33800    12.42200   -5.27200
C    2.44600    10.53600   -5.82500
H    1.74700    10.84000   -2.56100
H    8.81900    15.50900   -3.98700
C    9.10800    15.09800   -4.95300
H    8.40700    14.31100   -5.21300
C    9.11400    16.19200   -6.01400
H    9.79900    16.98400   -5.69900
H    8.11600    16.63100   -6.08800
C    9.54100    15.69500   -7.39900
H    10.48000   15.13900   -7.28600
C    8.49600    14.76600   -8.01100
H    7.51800    15.24300   -8.02100
H    8.75300    14.52500   -9.04200
H    8.42500    13.83600   -7.45500
C    9.78800    16.88500   -8.32500
H    8.87500    17.46400   -8.44300
H    10.56000   17.53700   -7.92200
H    10.10000   16.55200   -9.31300
H    10.09900   14.65700   -4.85600
$end

$rem
JOBTYPE  SP
METHOD  WB97X-V
BASIS  6-31G(D)
SYMMETRY  FALSE
SYM_IGNORE  TRUE
MEM_TOTAL  64000
MEM_STATIC  4000
BASIS_LIN_DEP_THRESH  6
THRESH  14
SCF_CONVERGENCE  8
FD_MAT_VEC_PROD  FALSE
XC_GRID  000075000302
NL_GRID  1
MAX_SCF_CYCLES  200
ENV_METHOD  WB97X-V
GEN_SCFMAN_EMBED  TRUE
SPADE_PARTITION  TRUE
EMBEDDING_EARLY_STOP  TRUE
$end

--------------------------------------------------------------
 ----------------------------------------------------------------
             Standard Nuclear Orientation (Angstroms)
    I     Atom           X                Y                Z
 ----------------------------------------------------------------
    1      C       3.1240000000     2.3950000000    -8.9970000000
    2      O       2.7530000000     1.3200000000    -8.4690000000
    3      C       3.0070000000     3.6490000000    -8.3670000000
    4      C       3.2620000000     4.8360000000    -8.9960000000
    5      C       3.8480000000     4.8600000000   -10.3810000000
    6      C       4.5930000000     3.5500000000   -10.6450000000
    7      C       3.6640000000     2.3710000000   -10.4040000000
    8      C       2.8180000000     6.0910000000    -8.4030000000
    9      C       3.6460000000     7.3210000000    -8.7470000000
   10      C       3.9220000000     7.3610000000   -10.2450000000
   11      C       4.7240000000     6.1050000000   -10.6220000000
   12      C       4.7120000000     8.6010000000   -10.6320000000
   13      C       5.0870000000     8.6440000000   -12.1210000000
   14      C       5.9740000000     7.4410000000   -12.4230000000
   15      C       5.2420000000     6.1450000000   -12.0660000000
   16      C       4.0800000000     9.9710000000   -10.3990000000
   17      C       4.9850000000    10.9070000000   -11.2180000000
   18      C       5.8030000000    10.0100000000   -12.1760000000
   19      C       3.8840000000     8.6700000000   -13.0710000000
   20      O       5.8690000000    10.6010000000   -13.4560000000
   21      H       2.6000000000     3.6560000000    -7.3650000000
   22      H       2.9940000000     4.9190000000   -11.0730000000
   23      H       5.4530000000     3.4810000000    -9.9750000000
   24      H       4.9580000000     3.5130000000   -11.6710000000
   25      H       2.8070000000     2.4370000000   -11.0860000000
   26      H       4.1710000000     1.4200000000   -10.5870000000
   27      H       2.6610000000     5.9960000000    -7.3290000000
   28      H       1.7950000000     6.2440000000    -8.8600000000
   29      H       4.5900000000     7.2980000000    -8.1960000000
   30      H       3.1090000000     8.2170000000    -8.4440000000
   31      H       2.9600000000     7.3500000000   -10.7640000000
   32      H       5.5890000000     6.0470000000    -9.9510000000
   33      H       5.6540000000     8.5790000000   -10.0710000000
   34      H       6.9000000000     7.5150000000   -11.8480000000
   35      H       6.2410000000     7.4140000000   -13.4820000000
   36      H       4.4050000000     6.0080000000   -12.7530000000
   37      H       5.9400000000     5.3200000000   -12.2190000000
   38      H       4.0590000000    10.2480000000    -9.3470000000
   39      H       3.0560000000     9.9810000000   -10.7690000000
   40      H       5.6510000000    11.4660000000   -10.5630000000
   41      H       4.4130000000    11.6210000000   -11.8090000000
   42      H       6.8260000000     9.8840000000   -11.7890000000
   43      H       3.4540000000     9.6660000000   -13.1160000000
   44      H       4.2060000000     8.3930000000   -14.0730000000
   45      H       3.1100000000     7.9760000000   -12.7590000000
   46      H       6.0920000000     9.9090000000   -14.0880000000
   47      H       6.8720000000    -6.3650000000    -9.2160000000
   48      C       6.2320000000    -5.5340000000    -9.5210000000
   49      H       5.7390000000    -5.7850000000   -10.4600000000
   50      C       5.1750000000    -5.2520000000    -8.4410000000
   51      H       4.5410000000    -6.1350000000    -8.3340000000
   52      H       5.6660000000    -5.0680000000    -7.4820000000
   53      C       4.3440000000    -4.0580000000    -8.8180000000
   54      C       3.2050000000    -4.1820000000    -9.6000000000
   55      H       2.8760000000    -5.1640000000    -9.9120000000
   56      C       2.4750000000    -3.0710000000    -9.9770000000
   57      H       1.5850000000    -3.1720000000   -10.5780000000
   58      C       2.8840000000    -1.8040000000    -9.5740000000
   59      O       2.1720000000    -0.7160000000    -9.9720000000
   60      H       2.4440000000     0.0720000000    -9.4110000000
   61      C       4.0190000000    -1.6690000000    -8.7830000000
   62      H       4.3260000000    -0.6890000000    -8.4510000000
   63      C       4.7370000000    -2.7890000000    -8.4160000000
   64      H       5.6190000000    -2.6770000000    -7.8050000000
   65      C       7.0980000000    -4.2900000000    -9.7970000000
   66      O       6.9810000000    -3.6390000000   -10.8180000000
   67      N       8.0000000000    -3.9710000000    -8.8420000000
   68      H       8.0790000000    -4.5590000000    -8.0280000000
   69      C       8.9380000000    -2.8490000000    -8.9170000000
   70      H       8.4550000000    -2.0460000000    -9.4740000000
   71      C       9.3590000000    -2.4030000000    -7.5150000000
   72      H       9.6980000000    -3.2970000000    -6.9730000000
   73      C      10.5430000000    -1.4430000000    -7.6060000000
   74      H      10.8300000000    -1.1080000000    -6.6130000000
   75      H      10.2810000000    -0.5760000000    -8.2010000000
   76      H      11.4000000000    -1.9320000000    -8.0670000000
   77      C       8.2010000000    -1.7960000000    -6.7130000000
   78      H       7.4460000000    -2.5670000000    -6.5420000000
   79      H       8.5760000000    -1.5090000000    -5.7290000000
   80      C       7.5390000000    -0.5840000000    -7.3530000000
   81      H       6.7560000000    -0.2150000000    -6.6950000000
   82      H       7.0910000000    -0.8320000000    -8.3110000000
   83      H       8.2510000000     0.2230000000    -7.4950000000
   84      H       9.8240000000    -3.1670000000    -9.4820000000
   85      H       7.8800000000    -1.9160000000   -13.2110000000
   86      C       7.9410000000    -0.8710000000   -13.5020000000
   87      H       7.0780000000    -0.6380000000   -14.1200000000
   88      C       7.9560000000     0.0160000000   -12.2590000000
   89      H       8.8340000000    -0.2460000000   -11.6580000000
   90      C       8.0450000000     1.4880000000   -12.6520000000
   91      H       8.9550000000     1.6910000000   -13.2140000000
   92      H       7.1960000000     1.7500000000   -13.2760000000
   93      H       8.0270000000     2.1290000000   -11.7730000000
   94      C       6.7090000000    -0.2310000000   -11.4150000000
   95      H       6.7250000000     0.3900000000   -10.5210000000
   96      H       6.6510000000    -1.2750000000   -11.1190000000
   97      H       5.8150000000     0.0070000000   -11.9880000000
   98      H       8.8420000000    -0.7220000000   -14.0950000000
   99      H       3.2880000000    -5.6870000000   -15.4540000000
  100      C       2.4040000000    -5.2910000000   -14.9580000000
  101      H       2.1120000000    -5.9870000000   -14.1740000000
  102      C       2.6880000000    -3.9140000000   -14.3610000000
  103      H       3.0060000000    -3.2430000000   -15.1690000000
  104      C       1.4160000000    -3.3470000000   -13.7360000000
  105      H       1.0610000000    -4.0050000000   -12.9460000000
  106      H       0.6300000000    -3.2510000000   -14.4840000000
  107      H       1.5990000000    -2.3620000000   -13.3170000000
  108      C       3.8260000000    -4.0150000000   -13.3400000000
  109      H       3.4680000000    -4.5470000000   -12.4570000000
  110      H       4.6350000000    -4.6060000000   -13.7770000000
  111      C       4.3930000000    -2.6690000000   -12.9130000000
  112      H       5.2360000000    -2.8260000000   -12.2460000000
  113      H       4.7340000000    -2.1060000000   -13.7800000000
  114      H       3.6490000000    -2.0790000000   -12.3860000000
  115      H       1.5970000000    -5.2380000000   -15.6860000000
  116      H      -2.2680000000    -7.0160000000   -12.0160000000
  117      C      -3.3090000000    -7.1900000000   -11.7540000000
  118      H      -3.3780000000    -7.2630000000   -10.6700000000
  119      C      -4.1840000000    -6.0440000000   -12.2620000000
  120      H      -4.1090000000    -5.9900000000   -13.3510000000
  121      H      -5.2260000000    -6.2380000000   -12.0020000000
  122      C      -3.7340000000    -4.7460000000   -11.6540000000
  123      C      -2.5830000000    -4.1230000000   -12.1160000000
  124      H      -2.0390000000    -4.5520000000   -12.9460000000
  125      C      -2.1180000000    -2.9610000000   -11.5340000000
  126      H      -1.2170000000    -2.4970000000   -11.9020000000
  127      C      -2.8080000000    -2.3850000000   -10.4710000000
  128      O      -2.3970000000    -1.2410000000    -9.8770000000
  129      H      -1.6230000000    -0.8890000000   -10.3510000000
  130      C      -3.9630000000    -3.0050000000   -10.0000000000
  131      H      -4.4950000000    -2.5550000000    -9.1760000000
  132      C      -4.4110000000    -4.1720000000   -10.5860000000
  133      H      -5.3080000000    -4.6440000000   -10.2080000000
  134      H      -3.6230000000    -8.1370000000   -12.1870000000
  135      H      -3.8600000000     5.9760000000    -7.5960000000
  136      C      -2.9580000000     6.5900000000    -7.6570000000
  137      H      -2.4230000000     6.5400000000    -6.7110000000
  138      C      -2.0640000000     6.0670000000    -8.7850000000
  139      H      -2.4000000000     6.4570000000    -9.7470000000
  140      H      -2.1060000000     4.9750000000    -8.8390000000
  141      C      -0.5800000000     6.4390000000    -8.5740000000
  142      O      -0.2410000000     6.8150000000    -7.4380000000
  143      O       0.1830000000     6.2930000000    -9.5500000000
  144      C      -3.4100000000     8.0000000000    -7.9970000000
  145      O      -4.1250000000     8.2180000000    -8.9660000000
  146      N      -3.0130000000     9.0120000000    -7.2040000000
  147      C      -3.3950000000    10.3770000000    -7.5270000000
  148      H      -2.8480000000    10.7100000000    -8.4180000000
  149      H      -4.4630000000    10.4200000000    -7.7530000000
  150      C      -2.9920000000    11.1830000000    -6.2980000000
  151      H      -2.7670000000    12.2200000000    -6.5400000000
  152      H      -3.7910000000    11.1610000000    -5.5540000000
  153      C      -1.7750000000    10.4160000000    -5.7880000000
  154      H      -1.5480000000    10.6160000000    -4.7430000000
  155      H      -0.8980000000    10.6650000000    -6.3870000000
  156      C      -2.1720000000     8.9600000000    -6.0240000000
  157      H      -1.3050000000     8.3190000000    -6.1930000000
  158      H      -2.7450000000     8.5720000000    -5.1710000000
  159      H      -3.1970000000     3.8230000000   -17.9380000000
  160      C      -2.8050000000     4.4070000000   -17.1040000000
  161      H      -3.0440000000     5.4570000000   -17.2630000000
  162      C      -3.4160000000     3.9220000000   -15.7750000000
  163      H      -3.4160000000     2.8300000000   -15.7390000000
  164      H      -4.4550000000     4.2560000000   -15.7300000000
  165      C      -2.6490000000     4.4600000000   -14.5930000000
  166      C      -2.8170000000     5.7750000000   -14.1780000000
  167      H      -3.5350000000     6.4030000000   -14.6880000000
  168      C      -2.0970000000     6.2750000000   -13.1060000000
  169      H      -2.2520000000     7.2940000000   -12.7840000000
  170      C      -1.1930000000     5.4700000000   -12.4310000000
  171      H      -0.6440000000     5.8490000000   -11.5800000000
  172      C      -1.0240000000     4.1580000000   -12.8400000000
  173      H      -0.3340000000     3.5120000000   -12.3160000000
  174      C      -1.7450000000     3.6570000000   -13.9090000000
  175      H      -1.6120000000     2.6240000000   -14.1990000000
  176      C      -1.2750000000     4.2790000000   -17.0660000000
  177      O      -0.5530000000     5.2640000000   -17.1770000000
  178      N      -0.7800000000     3.0350000000   -16.9360000000
  179      H      -1.4270000000     2.2840000000   -16.7540000000
  180      C       0.6410000000     2.6800000000   -16.8500000000
  181      H       1.0890000000     3.2100000000   -16.0020000000
  182      C       0.8170000000     1.1720000000   -16.6880000000
  183      H       0.1540000000     0.6540000000   -17.3840000000
  184      H       1.8450000000     0.9220000000   -16.9550000000
  185      C       0.5560000000     0.7280000000   -15.2730000000
  186      C      -0.6950000000     0.2910000000   -14.8590000000
  187      H      -1.5070000000     0.2160000000   -15.5710000000
  188      C      -0.9240000000    -0.0800000000   -13.5470000000
  189      H      -1.9020000000    -0.4120000000   -13.2310000000
  190      C       0.1140000000    -0.0390000000   -12.6200000000
  191      O      -0.1290000000    -0.4350000000   -11.3490000000
  192      H       0.7100000000    -0.5070000000   -10.8370000000
  193      C       1.3740000000     0.3870000000   -13.0300000000
  194      H       2.1850000000     0.3970000000   -12.3170000000
  195      C       1.5820000000     0.7760000000   -14.3370000000
  196      H       2.5620000000     1.1120000000   -14.6410000000
  197      H       1.1270000000     3.0310000000   -17.7670000000
  198      H       0.3820000000     6.1400000000   -19.7860000000
  199      C       0.8060000000     7.1450000000   -19.8090000000
  200      H       1.0760000000     7.3960000000   -20.8320000000
  201      C      -0.1870000000     8.1460000000   -19.2080000000
  202      H      -0.0650000000     9.1210000000   -19.6790000000
  203      H       0.0380000000     8.2730000000   -18.1470000000
  204      C      -1.6440000000     7.6870000000   -19.3410000000
  205      H      -2.0530000000     7.9570000000   -20.3140000000
  206      H      -1.6980000000     6.6040000000   -19.2220000000
  207      C      -2.4910000000     8.3240000000   -18.2480000000
  208      O      -3.3230000000     9.1810000000   -18.4480000000
  209      N      -2.2130000000     7.8310000000   -17.0220000000
  210      H      -1.5370000000     7.0920000000   -16.8890000000
  211      H      -2.6680000000     8.2230000000   -16.2150000000
  212      C       2.1100000000     7.1120000000   -18.9670000000
  213      O       3.1950000000     7.3970000000   -19.4470000000
  214      N       1.9720000000     6.7130000000   -17.6760000000
  215      H       1.0590000000     6.3670000000   -17.4010000000
  216      C       2.8970000000     6.9930000000   -16.5670000000
  217      H       2.4710000000     6.5450000000   -15.6680000000
  218      H       2.9720000000     8.0750000000   -16.4080000000
  219      C       4.3450000000     6.4870000000   -16.6850000000
  220      O       5.2230000000     7.0220000000   -16.0380000000
  221      N       4.5570000000     5.4080000000   -17.4610000000
  222      H       3.7780000000     5.0110000000   -17.9630000000
  223      C       5.8610000000     4.7900000000   -17.6670000000
  224      H       6.5830000000     5.3520000000   -17.0720000000
  225      C       5.8340000000     3.3130000000   -17.2670000000
  226      H       5.2160000000     2.7700000000   -17.9880000000
  227      H       6.8510000000     2.9310000000   -17.3570000000
  228      C       5.3010000000     3.0530000000   -15.8560000000
  229      H       4.2540000000     3.3780000000   -15.8070000000
  230      C       5.3560000000     1.5530000000   -15.5730000000
  231      H       4.9760000000     1.3330000000   -14.5770000000
  232      H       4.7640000000     0.9980000000   -16.2980000000
  233      H       6.3830000000     1.1990000000   -15.6340000000
  234      C       6.0940000000     3.8290000000   -14.8100000000
  235      H       7.1570000000     3.6180000000   -14.9020000000
  236      H       5.9400000000     4.8980000000   -14.9160000000
  237      H       5.7710000000     3.5450000000   -13.8120000000
  238      C       6.2930000000     4.8540000000   -19.1620000000
  239      O       7.2480000000     4.2020000000   -19.5430000000
  240      N       5.5260000000     5.5880000000   -19.9930000000
  241      H       4.8200000000     6.2220000000   -19.6310000000
  242      C       5.7600000000     5.6670000000   -21.4300000000
  243      H       6.5650000000     4.9760000000   -21.6750000000
  244      H       4.8510000000     5.3890000000   -21.9620000000
  245      H       6.0460000000     6.6810000000   -21.7110000000
  246      H      11.2280000000     6.1450000000   -16.4730000000
  247      C      11.1380000000     6.0470000000   -15.3910000000
  248      H      11.4540000000     6.9680000000   -14.9010000000
  249      C       9.6720000000     5.7530000000   -15.0270000000
  250      H       9.4130000000     4.7630000000   -15.4220000000
  251      C       9.4570000000     5.7710000000   -13.5180000000
  252      H      10.0270000000     4.9910000000   -13.0210000000
  253      H       9.7550000000     6.7320000000   -13.1060000000
  254      H       8.4050000000     5.6190000000   -13.2900000000
  255      C       8.7810000000     6.7970000000   -15.6970000000
  256      H       9.0430000000     7.7920000000   -15.3470000000
  257      H       8.8930000000     6.7680000000   -16.7790000000
  258      H       7.7360000000     6.6270000000   -15.4550000000
  259      C      12.0810000000     4.9290000000   -14.9600000000
  260      O      12.3800000000     4.0180000000   -15.7540000000
  261      N      12.5910000000     4.9850000000   -13.7280000000
  262      H      12.3630000000     5.7930000000   -13.1480000000
  263      C      13.3630000000     3.9380000000   -13.0450000000
  264      H      13.2790000000     3.0210000000   -13.6350000000
  265      C      14.8280000000     4.3390000000   -12.8060000000
  266      H      15.4500000000     3.4430000000   -12.8590000000
  267      H      14.9680000000     4.7580000000   -11.8000000000
  268      C      15.3700000000     5.4190000000   -13.7390000000
  269      H      16.3410000000     5.7040000000   -13.3320000000
  270      H      14.7290000000     6.2980000000   -13.6910000000
  271      C      15.4970000000     5.0130000000   -15.2090000000
  272      H      14.5240000000     4.9080000000   -15.6800000000
  273      H      16.0520000000     5.7830000000   -15.7500000000
  274      N      16.2260000000     3.7670000000   -15.3630000000
  275      H      17.1700000000     3.8010000000   -15.0010000000
  276      C      15.6910000000     2.5620000000   -15.5400000000
  277      N      14.4140000000     2.3680000000   -15.8160000000
  278      H      13.6440000000     3.1000000000   -15.7770000000
  279      H      14.1060000000     1.4330000000   -16.0170000000
  280      N      16.5190000000     1.4910000000   -15.4510000000
  281      H      17.5110000000     1.6250000000   -15.3690000000
  282      H      16.2020000000     0.5870000000   -15.7540000000
  283      C      12.6520000000     3.7540000000   -11.6850000000
  284      O      12.0390000000     4.6750000000   -11.1870000000
  285      N      12.7390000000     2.5420000000   -11.1090000000
  286      H      13.2450000000     1.8010000000   -11.5640000000
  287      C      12.0300000000     2.2120000000    -9.8760000000
  288      H      11.7550000000     3.1620000000    -9.4150000000
  289      C      10.7850000000     1.3880000000   -10.1660000000
  290      H      10.1790000000     1.3080000000    -9.2680000000
  291      H      11.0470000000     0.3890000000   -10.5080000000
  292      H      10.1910000000     1.8770000000   -10.9320000000
  293      H      12.7120000000     1.6780000000    -9.2100000000
  294      H       5.3980000000    -2.0410000000     0.4060000000
  295      C       6.3130000000    -1.5610000000     0.0650000000
  296      H       7.1180000000    -1.8310000000     0.7440000000
  297      C       6.6490000000    -1.9970000000    -1.3570000000
  298      H       6.7990000000    -3.0780000000    -1.3870000000
  299      H       7.5800000000    -1.5260000000    -1.6800000000
  300      C       5.5410000000    -1.6240000000    -2.3290000000
  301      H       5.4090000000    -0.5420000000    -2.3720000000
  302      H       4.5980000000    -2.0940000000    -2.0440000000
  303      S       5.9450000000    -2.1930000000    -4.0170000000
  304      C       4.4460000000    -1.6150000000    -4.8520000000
  305      H       3.5810000000    -2.0800000000    -4.3880000000
  306      H       4.3940000000    -0.5320000000    -4.7950000000
  307      H       4.5110000000    -1.9270000000    -5.8880000000
  308      H       6.1710000000    -0.4830000000     0.1110000000
  309      H       9.3030000000     2.4770000000    -2.2160000000
  310      C      10.0910000000     2.5630000000    -2.9600000000
  311      H      11.0460000000     2.3570000000    -2.4800000000
  312      C       9.8450000000     1.5910000000    -4.1150000000
  313      H      10.6520000000     1.6850000000    -4.8450000000
  314      H       9.8500000000     0.5670000000    -3.7300000000
  315      C       8.5230000000     1.8800000000    -4.7690000000
  316      C       8.4480000000     2.5650000000    -5.9730000000
  317      H       9.3610000000     2.8770000000    -6.4650000000
  318      C       7.2200000000     2.8530000000    -6.5460000000
  319      H       7.1720000000     3.3830000000    -7.4860000000
  320      C       6.0530000000     2.4720000000    -5.9120000000
  321      H       5.0890000000     2.6940000000    -6.3420000000
  322      C       6.1190000000     1.8060000000    -4.7000000000
  323      H       5.2010000000     1.5480000000    -4.1960000000
  324      C       7.3440000000     1.5030000000    -4.1380000000
  325      H       7.3940000000     0.9720000000    -3.1980000000
  326      H      10.1010000000     3.5870000000    -3.3270000000
  327      H      10.4990000000     6.3120000000    -7.7010000000
  328      C      10.7180000000     6.2950000000    -8.7680000000
  329      H      11.3450000000     5.4390000000    -9.0070000000
  330      C       9.4160000000     6.2430000000    -9.5830000000
  331      H       9.6300000000     6.5970000000   -10.5960000000
  332      C       8.8980000000     4.8110000000    -9.6810000000
  333      H       8.7660000000     4.3860000000    -8.6880000000
  334      H       9.6040000000     4.1990000000   -10.2340000000
  335      H       7.9430000000     4.7910000000   -10.2000000000
  336      C       8.3730000000     7.1610000000    -8.9580000000
  337      H       8.0790000000     6.7980000000    -7.9750000000
  338      H       7.4880000000     7.2210000000    -9.5870000000
  339      H       8.7840000000     8.1600000000    -8.8520000000
  340      C      11.4820000000     7.5810000000    -9.1310000000
  341      O      11.3420000000     8.6230000000    -8.5090000000
  342      N      12.2840000000     7.4770000000   -10.2110000000
  343      H      12.3250000000     6.5880000000   -10.6920000000
  344      C      13.1140000000     8.5350000000   -10.7750000000
  345      H      13.0060000000     9.4170000000   -10.1390000000
  346      C      14.5830000000     8.0710000000   -10.8830000000
  347      H      15.1790000000     8.8910000000   -11.2920000000
  348      H      14.6140000000     7.2430000000   -11.5970000000
  349      C      15.2100000000     7.5680000000    -9.5960000000
  350      H      14.5090000000     6.9230000000    -9.0600000000
  351      H      15.5130000000     8.3820000000    -8.9380000000
  352      C      16.4830000000     6.6810000000    -9.9430000000
  353      O      16.2990000000     5.8110000000   -10.8160000000
  354      O      17.5110000000     6.9340000000    -9.3190000000
  355      C      12.6780000000     8.7930000000   -12.2220000000
  356      O      12.4280000000     7.8610000000   -12.9780000000
  357      N      12.6580000000    10.0770000000   -12.6360000000
  358      H      13.0070000000    10.8130000000   -12.0380000000
  359      C      12.2790000000    10.4960000000   -13.9790000000
  360      H      12.9510000000    10.0130000000   -14.7060000000
  361      C      10.8380000000    10.0730000000   -14.2990000000
  362      H      10.8010000000     8.9850000000   -14.2360000000
  363      H      10.6000000000    10.3460000000   -15.3300000000
  364      C       9.7890000000    10.6390000000   -13.3420000000
  365      H      10.0490000000    11.6360000000   -12.9900000000
  366      H       8.8160000000    10.6840000000   -13.8300000000
  367      S       9.5860000000     9.5590000000   -11.8660000000
  368      C       9.9990000000    10.7100000000   -10.5320000000
  369      H      10.8600000000    11.2940000000   -10.8380000000
  370      H       9.1460000000    11.3510000000   -10.3250000000
  371      H      10.2510000000    10.1170000000    -9.6570000000
  372      C      12.5520000000    12.0280000000   -14.1010000000
  373      O      13.4430000000    12.5320000000   -13.4440000000
  374      N      11.8310000000    12.7090000000   -15.0190000000
  375      H      10.9700000000    12.3160000000   -15.3710000000
  376      C      11.9910000000    14.1230000000   -15.3590000000
  377      H      12.8470000000    14.4950000000   -14.7880000000
  378      C      12.2370000000    14.2700000000   -16.8710000000
  379      H      11.3610000000    13.8610000000   -17.3880000000
  380      C      12.3950000000    15.7380000000   -17.2590000000
  381      H      13.2300000000    16.1850000000   -16.7230000000
  382      H      12.5940000000    15.8180000000   -18.3250000000
  383      H      11.4920000000    16.3000000000   -17.0380000000
  384      C      13.4750000000    13.4770000000   -17.2810000000
  385      H      14.3550000000    13.8580000000   -16.7670000000
  386      H      13.3630000000    12.4260000000   -17.0300000000
  387      H      13.6380000000    13.5610000000   -18.3530000000
  388      C      10.6860000000    14.8600000000   -14.9500000000
  389      O       9.6140000000    14.3060000000   -15.0780000000
  390      N      10.8300000000    16.1300000000   -14.5130000000
  391      H      11.7630000000    16.4790000000   -14.3570000000
  392      C       9.7410000000    16.9680000000   -14.0030000000
  393      H       8.8230000000    16.3990000000   -14.1540000000
  394      C       9.9410000000    17.2790000000   -12.5120000000
  395      H      10.5320000000    16.4640000000   -12.0840000000
  396      H      10.4970000000    18.2100000000   -12.3850000000
  397      C       8.6470000000    17.3530000000   -11.7730000000
  398      C       8.1090000000    18.4190000000   -11.1180000000
  399      H       8.4880000000    19.4190000000   -11.0210000000
  400      N       6.9310000000    18.0580000000   -10.5180000000
  401      H       6.3420000000    18.6660000000    -9.9750000000
  402      C       6.6840000000    16.7400000000   -10.7820000000
  403      C       5.6320000000    15.9200000000   -10.3920000000
  404      H       4.8300000000    16.2990000000    -9.7750000000
  405      C       5.6490000000    14.6130000000   -10.8260000000
  406      H       4.8470000000    13.9480000000   -10.5410000000
  407      C       6.6810000000    14.1270000000   -11.6350000000
  408      H       6.6420000000    13.1050000000   -11.9790000000
  409      C       7.7310000000    14.9310000000   -12.0160000000
  410      H       8.5150000000    14.5450000000   -12.6490000000
  411      C       7.7460000000    16.2580000000   -11.5820000000
  412      H       9.6950000000    17.8860000000   -14.5950000000
  413      H      13.7580000000    15.3430000000   -10.5850000000
  414      C      13.7120000000    14.2940000000   -10.2970000000
  415      H      14.3900000000    14.1290000000    -9.4620000000
  416      C      12.3000000000    13.9160000000    -9.8990000000
  417      H      12.2520000000    12.8930000000    -9.5240000000
  418      H      11.9010000000    14.5970000000    -9.1500000000
  419      S      11.2010000000    14.0210000000   -11.3700000000
  420      H      10.0530000000    13.9310000000   -10.6980000000
  421      H      14.0400000000    13.6920000000   -11.1430000000
  422      H      10.5200000000    10.5230000000    -6.5520000000
  423      C       9.6330000000    10.6450000000    -5.9350000000
  424      H       9.6950000000    11.6030000000    -5.4200000000
  425      C       8.3860000000    10.5540000000    -6.8050000000
  426      H       8.4870000000     9.6740000000    -7.4410000000
  427      H       8.3280000000    11.4270000000    -7.4610000000
  428      C       7.0780000000    10.4270000000    -6.0190000000
  429      H       7.1830000000     9.6040000000    -5.3020000000
  430      C       6.7530000000    11.7010000000    -5.2440000000
  431      H       7.5330000000    11.9320000000    -4.5210000000
  432      H       6.6430000000    12.5420000000    -5.9260000000
  433      H       5.8150000000    11.5790000000    -4.7070000000
  434      C       5.9320000000    10.0930000000    -6.9700000000
  435      H       6.1520000000     9.1860000000    -7.5280000000
  436      H       5.7830000000    10.9050000000    -7.6800000000
  437      H       5.0030000000     9.9440000000    -6.4250000000
  438      H       9.6310000000     9.8530000000    -5.1890000000
  439      H       7.0480000000     6.7780000000    -3.2310000000
  440      C       6.1310000000     6.3160000000    -2.8690000000
  441      H       5.4110000000     7.1060000000    -2.6600000000
  442      C       5.5700000000     5.3450000000    -3.9030000000
  443      H       6.3110000000     4.5560000000    -4.0750000000
  444      C       4.2890000000     4.6980000000    -3.3830000000
  445      H       3.9220000000     3.9550000000    -4.0860000000
  446      H       4.4720000000     4.2050000000    -2.4300000000
  447      H       3.5180000000     5.4520000000    -3.2340000000
  448      C       5.3120000000     6.0590000000    -5.2280000000
  449      H       4.9220000000     5.3590000000    -5.9620000000
  450      H       6.2340000000     6.4870000000    -5.6170000000
  451      H       4.5910000000     6.8640000000    -5.0990000000
  452      H       6.3530000000     5.8010000000    -1.9360000000
  453      H       3.1790000000     0.6170000000    -2.5480000000
  454      C       2.1950000000     1.0790000000    -2.6000000000
  455      H       2.3280000000     2.1580000000    -2.6240000000
  456      C       1.4540000000     0.6210000000    -3.8470000000
  457      H       1.3920000000    -0.4680000000    -3.8920000000
  458      H       0.4350000000     1.0160000000    -3.8590000000
  459      C       2.1200000000     1.1130000000    -5.1130000000
  460      O       3.0020000000     1.9330000000    -5.1450000000
  461      O       1.6240000000     0.5380000000    -6.1980000000
  462      H       2.0570000000     0.9060000000    -7.0230000000
  463      H       1.6380000000     0.8110000000    -1.7050000000
  464      H      -2.0010000000    -3.0060000000    -2.1380000000
  465      C      -1.7910000000    -4.0510000000    -2.3580000000
  466      H      -2.5400000000    -4.4100000000    -3.0600000000
  467      C      -0.3920000000    -4.2040000000    -2.9420000000
  468      H      -0.1900000000    -5.2570000000    -3.1490000000
  469      H       0.3520000000    -3.8610000000    -2.2200000000
  470      C      -0.2340000000    -3.4110000000    -4.2290000000
  471      H      -0.3540000000    -2.3410000000    -4.0480000000
  472      H      -0.9580000000    -3.7340000000    -4.9790000000
  473      S       1.4340000000    -3.6870000000    -4.9280000000
  474      C       1.2540000000    -2.8080000000    -6.5040000000
  475      H       1.1940000000    -1.7370000000    -6.3330000000
  476      H       2.1370000000    -3.0410000000    -7.0880000000
  477      H       0.3660000000    -3.1690000000    -7.0150000000
  478      H      -1.8810000000    -4.6210000000    -1.4360000000
  479      H      -4.6290000000    -1.4600000000    -5.2900000000
  480      C      -3.6220000000    -1.0690000000    -5.1690000000
  481      H      -3.0260000000    -1.8070000000    -4.6350000000
  482      C      -2.9970000000    -0.7550000000    -6.5220000000
  483      H      -2.8940000000    -1.6670000000    -7.1140000000
  484      H      -3.6450000000    -0.0760000000    -7.0790000000
  485      C      -1.6220000000    -0.1250000000    -6.3680000000
  486      H      -0.9940000000    -0.7270000000    -5.7140000000
  487      H      -1.1240000000    -0.0110000000    -7.3290000000
  488      S      -1.6890000000     1.5280000000    -5.5980000000
  489      C      -1.9170000000     2.5460000000    -7.0770000000
  490      H      -2.8220000000     2.2410000000    -7.5960000000
  491      H      -1.0490000000     2.4400000000    -7.7220000000
  492      H      -2.0040000000     3.5760000000    -6.7450000000
  493      H      -3.6680000000    -0.1650000000    -4.5650000000
  494      H      -1.1860000000     4.2730000000    -4.3790000000
  495      C      -0.1590000000     4.5300000000    -4.1300000000
  496      H       0.1920000000     3.8220000000    -3.3810000000
  497      C       0.7240000000     4.4860000000    -5.3650000000
  498      H       1.7620000000     4.6690000000    -5.0970000000
  499      H       0.4110000000     5.2360000000    -6.0880000000
  500      H       0.6610000000     3.5050000000    -5.8310000000
  501      H      -0.1530000000     5.5270000000    -3.6900000000
  502      H       1.7760000000     9.1030000000    -2.2610000000
  503      C       2.3960000000     9.9900000000    -2.3590000000
  504      H       2.9090000000    10.1630000000    -1.4130000000
  505      C       3.4000000000     9.8110000000    -3.4980000000
  506      H       4.0250000000    10.7030000000    -3.5710000000
  507      H       4.0510000000     8.9620000000    -3.2740000000
  508      C       2.6950000000     9.5820000000    -4.7960000000
  509      C       2.1020000000     8.4180000000    -5.2050000000
  510      H       2.0620000000     7.4690000000    -4.7050000000
  511      N       1.5150000000     8.5750000000    -6.4210000000
  512      H       0.9450000000     7.8660000000    -6.9030000000
  513      C       1.6990000000     9.8570000000    -6.8260000000
  514      C       1.2890000000    10.4950000000    -7.9920000000
  515      H       0.7250000000     9.9580000000    -8.7400000000
  516      C       1.6320000000    11.8190000000    -8.1520000000
  517      H       1.3330000000    12.3460000000    -9.0480000000
  518      C       2.3650000000    12.5010000000    -7.1750000000
  519      H       2.6140000000    13.5410000000    -7.3400000000
  520      C       2.7730000000    11.8790000000    -6.0170000000
  521      H       3.3380000000    12.4220000000    -5.2720000000
  522      C       2.4460000000    10.5360000000    -5.8250000000
  523      H       1.7470000000    10.8400000000    -2.5610000000
  524      H       8.8190000000    15.5090000000    -3.9870000000
  525      C       9.1080000000    15.0980000000    -4.9530000000
  526      H       8.4070000000    14.3110000000    -5.2130000000
  527      C       9.1140000000    16.1920000000    -6.0140000000
  528      H       9.7990000000    16.9840000000    -5.6990000000
  529      H       8.1160000000    16.6310000000    -6.0880000000
  530      C       9.5410000000    15.6950000000    -7.3990000000
  531      H      10.4800000000    15.1390000000    -7.2860000000
  532      C       8.4960000000    14.7660000000    -8.0110000000
  533      H       7.5180000000    15.2430000000    -8.0210000000
  534      H       8.7530000000    14.5250000000    -9.0420000000
  535      H       8.4250000000    13.8360000000    -7.4550000000
  536      C       9.7880000000    16.8850000000    -8.3250000000
  537      H       8.8750000000    17.4640000000    -8.4430000000
  538      H      10.5600000000    17.5370000000    -7.9220000000
  539      H      10.1000000000    16.5520000000    -9.3130000000
  540      H      10.0990000000    14.6570000000    -4.8560000000
 ----------------------------------------------------------------
 Nuclear Repulsion Energy =       90733.46897131 hartrees
 There are      901 alpha and      901 beta electrons
 Requested basis set is 6-31G(d)
 There are 1543 shells and 4077 basis functions

 Total QAlloc Memory Limit  64000 MB
 Mega-Array Size      3911 MB
 MEM_STATIC part      4000 MB

 A cutoff of  1.0D-14 yielded 190255 shell pairs
 There are   1260615 function pairs
 Smallest overlap matrix eigenvalue = 3.25E-04

 Scale SEOQF with 1.000000e-03/1.000000e-03/1.000000e-03

 Standard Electronic Orientation quadrupole field applied
 Nucleus-field energy     =    -0.0000001403 hartrees
 Guess from superposition of atomic densities
 Warning:  Energy on first SCF cycle will be non-variational
 SAD guess density has 1801.000005 electrons

 -----------------------------------------------------------------------
  General SCF calculation program by
  Eric Jon Sundstrom, Paul Horn, Yuezhi Mao, Dmitri Zuev, Alec White,
  David Stuck, Shaama M.S., Shane Yost, Joonho Lee, David Small,
  Daniel Levine, Susi Lehtola, Hugh Burton, Evgeny Epifanovsky,
  Bang C. Huynh
 -----------------------------------------------------------------------
=================================================
        Doing projection-based embedding         
      F. Manby et al. JCTC, 8, 2564 (2012)       
=================================================

****************************************************
   Low-level SCF calculation for the whole system   
****************************************************
----------------------------------------------
 Summary of the low-level theory: 
 Exchange:     0.1670 Hartree-Fock + 1.0000 wB97X-V + LR-HF
 Correlation:  1.0000 wB97X-V
 Using Euler-Maclaurin-Lebedev (75,302) quadrature formula
 Nonlocal Correlation:  VV10 with C = 0.0100 and b = 6.00 and scale = 1.00000
 Grid used for NLC:  SG-1 standard quadrature
----------------------------------------------
 using 32 threads for integral computing
 -------------------------------------------------------
 OpenMP Integral computing Module                
 Release: version 1.0, May 2013, Q-Chem Inc. Pittsburgh 
 -------------------------------------------------------
 A restricted SCF calculation will be
 performed using DIIS
 SCF converges when DIIS error is below 1.0e-08
 ---------------------------------------
  Cycle       Energy         DIIS error
 ---------------------------------------
    1  -11970.8952171479      1.24e-02  
    2  -11899.4661220200      1.19e-03  
    3  -11899.6228404353      1.31e-03  
    4  -11902.1206114408      1.88e-04  
    5  -11902.1745912904      8.31e-05  
    6  -11902.1860883068      2.09e-05  
    7  -11902.1868839832      6.17e-06  
    8  -11902.1869770145      2.64e-06  
    9  -11902.1869943912      1.07e-06  
   10  -11902.1869982439      4.03e-07  
   11  -11902.1869988041      1.54e-07  
   12  -11902.1869989131      5.92e-08  
   13  -11902.1869989287      2.68e-08  
   14  -11902.1869989328      1.31e-08  
   15  -11902.1869989338      5.17e-09  Convergence criterion met
 ---------------------------------------
 SCF time:   CPU 198444.91s  wall 6841.00s 
 SCF   energy in the final basis set =   -11902.1869989338
 Total energy in the final basis set =   -11902.1869989338

****************************************************
             Start embedding calculation            
****************************************************
----------------------------------------------
 Summary of the high-level theory: 
 Exchange:     0.1670 Hartree-Fock + 1.0000 wB97X-V + LR-HF
 Correlation:  1.0000 wB97X-V
 Using Euler-Maclaurin-Lebedev (75,302) quadrature formula
 Nonlocal Correlation:  VV10 with C = 0.0100 and b = 6.00 and scale = 1.00000
 Grid used for NLC:  SG-1 standard quadrature
----------------------------------------------
Doing R-in-R Embedding Calculation
Number of fragments: 2
Embedded fragment(s): 1 
NOcc for each fragment
           75
          826
NBasis for each fragment
          352
         3725
Variational space of the embedded problem: 
NOcc (active)  = 75
NOcc (fixed)   = 826
NVir (total)   = 3176
Read converged orbitals from disk
=========================================================
       Doing SPADE partition for the orbital space       
     D. Claudino and N. Mayhall JCTC 15, 1053 (2019)     
=========================================================
SPADE singular values:
 1.0000 1.0000 1.0000 1.0000 1.0000 1.0000 1.0000 1.0000 1.0000 1.0000
 1.0000 1.0000 1.0000 1.0000 1.0000 1.0000 1.0000 1.0000 1.0000 1.0000
 1.0000 1.0000 1.0000 1.0000 1.0000 1.0000 1.0000 1.0000 1.0000 1.0000
 1.0000 1.0000 1.0000 1.0000 1.0000 1.0000 1.0000 1.0000 1.0000 1.0000
 1.0000 1.0000 1.0000 0.9999 0.9999 0.9999 0.9999 0.9999 0.9998 0.9998
 0.9998 0.9997 0.9997 0.9996 0.9995 0.9995 0.9994 0.9993 0.9993 0.9992
 0.9990 0.9988 0.9988 0.9985 0.9985 0.9984 0.9982 0.9980 0.9979 0.9978
 0.9972 0.9969 0.9959 0.9733 0.9673 0.2232 0.1050 0.0946 0.0831 0.0790
 0.0783 0.0744 0.0695 0.0660 0.0624 0.0582 0.0564 0.0497 0.0494 0.0472
 0.0457 0.0410 0.0404 0.0352 0.0349 0.0324 0.0320 0.0298 0.0282 0.0270
 0.0264 0.0240 0.0239 0.0222 0.0208 0.0206 0.0179 0.0172 0.0148 0.0144
 0.0127 0.0122 0.0111 0.0107 0.0101 0.0099 0.0088 0.0082 0.0078 0.0075
 0.0070 0.0067 0.0062 0.0059 0.0055 0.0054 0.0049 0.0048 0.0047 0.0045
 0.0044 0.0042 0.0038 0.0036 0.0035 0.0033 0.0032 0.0031 0.0028 0.0027
 0.0027 0.0026 0.0025 0.0024 0.0022 0.0021 0.0019 0.0018 0.0017 0.0017
 0.0016 0.0015 0.0015 0.0014 0.0014 0.0013 0.0013 0.0012 0.0012 0.0012
 0.0011 0.0011 0.0010 0.0010 0.0010 0.0010 0.0009 0.0009 0.0009 0.0009
 0.0008 0.0008 0.0008 0.0008 0.0008 0.0007 0.0007 0.0007 0.0007 0.0007
 0.0006 0.0006 0.0006 0.0006 0.0006 0.0006 0.0005 0.0005 0.0005 0.0005
 0.0005 0.0005 0.0005 0.0004 0.0004 0.0004 0.0004 0.0004 0.0004 0.0004
 0.0004 0.0003 0.0003 0.0003 0.0003 0.0003 0.0003 0.0003 0.0003 0.0003
 0.0003 0.0003 0.0003 0.0003 0.0002 0.0002 0.0002 0.0002 0.0002 0.0002
 0.0002 0.0002 0.0002 0.0002 0.0002 0.0002 0.0002 0.0002 0.0002 0.0002
 0.0002 0.0002 0.0002 0.0002 0.0001 0.0001 0.0001 0.0001 0.0001 0.0001
 0.0001 0.0001 0.0001 0.0001 0.0001 0.0001 0.0001 0.0001 0.0001 0.0001
 0.0001 0.0001 0.0001 0.0001 0.0001 0.0001 0.0001 0.0001 0.0001 0.0001
 0.0001 0.0001 0.0001 0.0001 0.0001 0.0001 0.0001 0.0001 0.0001 0.0001
 0.0001 0.0001 0.0001 0.0001 0.0000 0.0000 0.0000 0.0000 0.0000 0.0000
 0.0000 0.0000 0.0000 0.0000 0.0000 0.0000 0.0000 0.0000 0.0000 0.0000
 0.0000 0.0000 0.0000 0.0000 0.0000 0.0000 0.0000 0.0000 0.0000 0.0000
 0.0000 0.0000 0.0000 0.0000 0.0000 0.0000 0.0000 0.0000 0.0000 0.0000
 0.0000 0.0000 0.0000 0.0000 0.0000 0.0000 0.0000 0.0000 0.0000 0.0000
 0.0000 0.0000 0.0000 0.0000 0.0000 0.0000 0.0000 0.0000 0.0000 0.0000
 0.0000 0.0000 0.0000 0.0000 0.0000 0.0000 0.0000 0.0000 0.0000 0.0000
 0.0000 0.0000 0.0000 0.0000 0.0000 0.0000 0.0000 0.0000 0.0000 0.0000
 0.0000 0.0000
Early stop requested; no embedded SCF will be performed

 826 environment occs will be part of frozen-core in future post-HF calculations
 
 --------------------------------------------------------------
 
                    Orbital Energies (a.u.)
 --------------------------------------------------------------
 
 Alpha MOs
 -- Occupied --
-88.8194 -88.8077 -88.8066 -88.7985 -88.7943 -19.2215 -19.2138 -19.1963
-19.1895 -19.1879 -19.1838 -19.1777 -19.1679 -19.1643 -19.1614 -19.1605
-19.1546 -19.1526 -19.1523 -19.1404 -19.1376 -19.1173 -19.0929 -19.0848
-19.0778 -19.0274 -19.0146 -14.4977 -14.4892 -14.4703 -14.4327 -14.4298
-14.4220 -14.4203 -14.4157 -14.4148 -14.4142 -14.4137 -14.4097 -14.4022
-14.3937 -14.3854 -14.3668 -14.3600 -14.3582 -10.4602 -10.3674 -10.3617
-10.3609 -10.3530 -10.3525 -10.3495 -10.3456 -10.3437 -10.3393 -10.3324
-10.3299 -10.3271 -10.3111 -10.3104 -10.3049 -10.3045 -10.2982 -10.2980
-10.2942 -10.2930 -10.2923 -10.2847 -10.2844 -10.2840 -10.2804 -10.2728
-10.2726 -10.2722 -10.2676 -10.2642 -10.2630 -10.2610 -10.2606 -10.2601
-10.2589 -10.2573 -10.2561 -10.2555 -10.2554 -10.2552 -10.2552 -10.2534
-10.2532 -10.2508 -10.2503 -10.2496 -10.2486 -10.2475 -10.2462 -10.2462
-10.2437 -10.2417 -10.2412 -10.2408 -10.2406 -10.2399 -10.2397 -10.2393
-10.2392 -10.2392 -10.2378 -10.2376 -10.2373 -10.2372 -10.2367 -10.2358
-10.2357 -10.2352 -10.2351 -10.2349 -10.2342 -10.2341 -10.2337 -10.2326
-10.2320 -10.2306 -10.2306 -10.2297 -10.2296 -10.2294 -10.2287 -10.2284
-10.2280 -10.2280 -10.2277 -10.2270 -10.2270 -10.2268 -10.2261 -10.2257
-10.2252 -10.2242 -10.2242 -10.2240 -10.2233 -10.2232 -10.2226 -10.2218
-10.2214 -10.2211 -10.2208 -10.2208 -10.2207 -10.2203 -10.2202 -10.2200
-10.2198 -10.2196 -10.2194 -10.2193 -10.2189 -10.2183 -10.2177 -10.2171
-10.2171 -10.2166 -10.2158 -10.2147 -10.2139 -10.2137 -10.2136 -10.2131
-10.2127 -10.2123 -10.2115 -10.2114 -10.2084 -10.2083 -10.2077 -10.2076
-10.2067 -10.2062 -10.2061 -10.2053 -10.2052 -10.2048 -10.2046 -10.2023
-10.1996 -10.1992 -10.1991 -10.1987 -10.1978 -10.1974 -10.1970 -10.1961
-10.1941 -10.1917 -10.1913 -10.1901 -10.1900 -10.1897 -10.1895 -10.1880
-10.1848 -10.1838 -10.1836 -10.1830 -10.1821 -10.1820 -10.1765 -10.1700
-10.1527  -7.9871  -7.9743  -7.9730  -7.9637  -7.9606  -5.9447  -5.9409
 -5.9338  -5.9322  -5.9309  -5.9281  -5.9269  -5.9218  -5.9208  -5.9194
 -5.9186  -5.9176  -5.9144  -5.9102  -5.9072  -1.1848  -1.1637  -1.1557
 -1.1542  -1.1522  -1.1447  -1.1398  -1.1387  -1.1371  -1.1314  -1.1314
 -1.1237  -1.1212  -1.1211  -1.1138  -1.1099  -1.0863  -1.0745  -1.0717
 -1.0701  -1.0698  -1.0684  -1.0543  -1.0374  -1.0330  -1.0266  -1.0263
 -1.0245  -1.0218  -1.0167  -1.0132  -1.0122  -1.0111  -1.0077  -0.9906
 -0.9866  -0.9803  -0.9752  -0.9727  -0.9649  -0.9522  -0.9431  -0.9395
 -0.9363  -0.9232  -0.9189  -0.9155  -0.9128  -0.9102  -0.9074  -0.9032
 -0.9000  -0.8998  -0.8995  -0.8981  -0.8952  -0.8935  -0.8920  -0.8915
 -0.8908  -0.8887  -0.8864  -0.8856  -0.8851  -0.8833  -0.8804  -0.8747
 -0.8685  -0.8673  -0.8657  -0.8596  -0.8573  -0.8529  -0.8525  -0.8517
 -0.8509  -0.8496  -0.8476  -0.8461  -0.8439  -0.8386  -0.8370  -0.8304
 -0.8292  -0.8269  -0.8264  -0.8257  -0.8229  -0.8181  -0.8153  -0.8150
 -0.8128  -0.8124  -0.8114  -0.8099  -0.8091  -0.8081  -0.8062  -0.8037
 -0.8006  -0.7951  -0.7939  -0.7933  -0.7931  -0.7870  -0.7863  -0.7858
 -0.7848  -0.7842  -0.7842  -0.7793  -0.7782  -0.7777  -0.7735  -0.7706
 -0.7700  -0.7695  -0.7683  -0.7637  -0.7628  -0.7596  -0.7574  -0.7563
 -0.7543  -0.7531  -0.7516  -0.7480  -0.7387  -0.7365  -0.7349  -0.7326
 -0.7315  -0.7311  -0.7295  -0.7293  -0.7292  -0.7284  -0.7281  -0.7177
 -0.7160  -0.7130  -0.7078  -0.7073  -0.7071  -0.7046  -0.7010  -0.6994
 -0.6931  -0.6923  -0.6913  -0.6887  -0.6872  -0.6860  -0.6843  -0.6836
 -0.6822  -0.6809  -0.6808  -0.6783  -0.6773  -0.6762  -0.6739  -0.6697
 -0.6688  -0.6673  -0.6665  -0.6664  -0.6658  -0.6633  -0.6627  -0.6626
 -0.6597  -0.6592  -0.6577  -0.6565  -0.6527  -0.6523  -0.6517  -0.6506
 -0.6494  -0.6486  -0.6476  -0.6464  -0.6437  -0.6408  -0.6392  -0.6364
 -0.6359  -0.6336  -0.6318  -0.6309  -0.6305  -0.6299  -0.6297  -0.6263
 -0.6260  -0.6259  -0.6249  -0.6222  -0.6207  -0.6191  -0.6141  -0.6136
 -0.6109  -0.6091  -0.6055  -0.6027  -0.6019  -0.6016  -0.6014  -0.5983
 -0.5950  -0.5907  -0.5903  -0.5894  -0.5845  -0.5788  -0.5777  -0.5769
 -0.5765  -0.5697  -0.5693  -0.5688  -0.5674  -0.5669  -0.5640  -0.5613
 -0.5612  -0.5601  -0.5595  -0.5563  -0.5541  -0.5530  -0.5516  -0.5505
 -0.5487  -0.5469  -0.5467  -0.5446  -0.5440  -0.5432  -0.5421  -0.5420
 -0.5410  -0.5398  -0.5392  -0.5340  -0.5337  -0.5330  -0.5323  -0.5314
 -0.5313  -0.5305  -0.5293  -0.5291  -0.5285  -0.5283  -0.5269  -0.5267
 -0.5265  -0.5253  -0.5232  -0.5226  -0.5223  -0.5214  -0.5212  -0.5204
 -0.5195  -0.5186  -0.5184  -0.5179  -0.5169  -0.5159  -0.5152  -0.5141
 -0.5139  -0.5122  -0.5113  -0.5112  -0.5108  -0.5100  -0.5097  -0.5073
 -0.5072  -0.5072  -0.5062  -0.5056  -0.5037  -0.5034  -0.5022  -0.5018
 -0.5015  -0.5011  -0.5005  -0.5002  -0.4999  -0.4991  -0.4976  -0.4972
 -0.4966  -0.4955  -0.4949  -0.4947  -0.4928  -0.4922  -0.4920  -0.4916
 -0.4911  -0.4894  -0.4889  -0.4879  -0.4879  -0.4873  -0.4866  -0.4856
 -0.4854  -0.4852  -0.4845  -0.4836  -0.4825  -0.4818  -0.4815  -0.4803
 -0.4797  -0.4793  -0.4790  -0.4782  -0.4777  -0.4760  -0.4759  -0.4753
 -0.4746  -0.4739  -0.4733  -0.4731  -0.4720  -0.4717  -0.4712  -0.4699
 -0.4689  -0.4686  -0.4685  -0.4673  -0.4668  -0.4665  -0.4661  -0.4660
 -0.4654  -0.4652  -0.4651  -0.4649  -0.4644  -0.4637  -0.4633  -0.4626
 -0.4622  -0.4618  -0.4613  -0.4611  -0.4609  -0.4607  -0.4603  -0.4595
 -0.4593  -0.4590  -0.4584  -0.4583  -0.4578  -0.4571  -0.4558  -0.4546
 -0.4545  -0.4536  -0.4536  -0.4531  -0.4524  -0.4521  -0.4510  -0.4506
 -0.4503  -0.4492  -0.4488  -0.4480  -0.4462  -0.4457  -0.4448  -0.4445
 -0.4443  -0.4431  -0.4427  -0.4417  -0.4414  -0.4410  -0.4403  -0.4399
 -0.4391  -0.4390  -0.4386  -0.4368  -0.4365  -0.4363  -0.4362  -0.4348
 -0.4343  -0.4342  -0.4334  -0.4332  -0.4322  -0.4306  -0.4300  -0.4294
 -0.4284  -0.4276  -0.4275  -0.4267  -0.4259  -0.4257  -0.4249  -0.4232
 -0.4221  -0.4215  -0.4201  -0.4183  -0.4179  -0.4176  -0.4172  -0.4165
 -0.4163  -0.4159  -0.4155  -0.4148  -0.4145  -0.4139  -0.4139  -0.4137
 -0.4134  -0.4126  -0.4117  -0.4115  -0.4105  -0.4094  -0.4093  -0.4092
 -0.4090  -0.4087  -0.4079  -0.4074  -0.4054  -0.4049  -0.4046  -0.4043
 -0.4041  -0.4032  -0.4029  -0.4025  -0.4014  -0.4011  -0.4008  -0.4005
 -0.3996  -0.3989  -0.3980  -0.3970  -0.3969  -0.3961  -0.3954  -0.3949
 -0.3946  -0.3935  -0.3929  -0.3922  -0.3904  -0.3892  -0.3891  -0.3883
 -0.3877  -0.3876  -0.3852  -0.3844  -0.3842  -0.3835  -0.3833  -0.3826
 -0.3819  -0.3811  -0.3808  -0.3796  -0.3793  -0.3788  -0.3787  -0.3785
 -0.3782  -0.3768  -0.3766  -0.3759  -0.3755  -0.3750  -0.3749  -0.3744
 -0.3737  -0.3728  -0.3723  -0.3723  -0.3714  -0.3702  -0.3696  -0.3695
 -0.3694  -0.3693  -0.3689  -0.3683  -0.3668  -0.3665  -0.3656  -0.3644
 -0.3627  -0.3621  -0.3609  -0.3606  -0.3604  -0.3595  -0.3587  -0.3580
 -0.3560  -0.3547  -0.3541  -0.3540  -0.3523  -0.3486  -0.3475  -0.3459
 -0.3443  -0.3438  -0.3429  -0.3427  -0.3424  -0.3416  -0.3408  -0.3387
 -0.3380  -0.3372  -0.3364  -0.3357  -0.3344  -0.3337  -0.3319  -0.3294
 -0.3286  -0.3283  -0.3261  -0.3255  -0.3231  -0.3209  -0.3196  -0.3193
 -0.3128  -0.3110  -0.3098  -0.3089  -0.3085  -0.3078  -0.3076  -0.3075
 -0.3047  -0.3020  -0.2981  -0.2971  -0.2920  -0.2910  -0.2869  -0.2865
 -0.2831  -0.2820  -0.2801  -0.2743  -0.2720  -0.2699  -0.2684  -0.2670
 -0.2633  -0.2607  -0.2604  -0.2551  -0.2547  -0.2526  -0.2468  -0.2457
 -0.2447  -0.2437  -0.2428  -0.2379  -0.2341  -0.2220  -0.2012  -0.1971
 -0.1950  -0.1779 -11.1839 -10.6307 -11.6819 -11.0019 -11.3323 -10.2957
 -9.9928  -9.9703 -11.1231 -11.3328  -9.9316 -10.1865  -9.8078  -9.9695
 -9.2712 -10.0295  -9.8480  -9.3329  -8.6626  -1.5486  -2.3858  -2.6305
 -6.9951  -3.8293  -1.2340  -1.1114  -2.4753  -2.7335  -2.3040  -1.7441
 -2.4357  -0.7469  -1.0225  -0.7433  -0.8073  -0.7977  -0.8516  -0.7330
 -1.0109  -0.8242  -0.5608  -0.7026  -0.4819  -0.4961  -0.7500  -0.4827
 -0.4620  -0.5045  -0.4498  -0.4846  -0.4519  -0.4897  -1.7204  -0.4405
 -0.4772  -0.4314  -0.5229  -0.4584  -0.4618  -0.4584  -0.4966  -0.4429
 -0.4188  -0.4550  -0.4239  -0.4003  -0.4202  -0.4129  -0.4320  -0.4225
 -0.4088  -0.3660  -0.3841  -0.4672  -0.5779
 -- Virtual --
  0.0754   0.0993   0.1077   0.1176   0.1235   0.1243   0.1248   0.1353
  0.1364   0.1369   0.1381   0.1414   0.1437   0.1445   0.1449   0.1461
  0.1479   0.1522   0.1532   0.1547   0.1548   0.1558   0.1627   0.1640
  0.1641   0.1655   0.1676   0.1704   0.1712   0.1725   0.1741   0.1773
  0.1790   0.1806   0.1810   0.1826   0.1836   0.1851   0.1875   0.1876
  0.1878   0.1897   0.1921   0.1937   0.1947   0.1954   0.1976   0.1995
  0.2018   0.2032   0.2048   0.2062   0.2074   0.2088   0.2096   0.2122
  0.2127   0.2141   0.2155   0.2158   0.2168   0.2174   0.2178   0.2183
  0.2208   0.2213   0.2234   0.2243   0.2248   0.2258   0.2268   0.2283
  0.2285   0.2290   0.2306   0.2310   0.2316   0.2327   0.2343   0.2361
  0.2371   0.2375   0.2381   0.2389   0.2393   0.2404   0.2415   0.2418
  0.2424   0.2428   0.2449   0.2450   0.2453   0.2469   0.2473   0.2480
  0.2485   0.2493   0.2506   0.2512   0.2521   0.2535   0.2540   0.2551
  0.2552   0.2559   0.2562   0.2573   0.2580   0.2586   0.2587   0.2591
  0.2594   0.2602   0.2608   0.2614   0.2629   0.2634   0.2648   0.2653
  0.2655   0.2657   0.2666   0.2676   0.2682   0.2693   0.2695   0.2705
  0.2708   0.2710   0.2719   0.2722   0.2730   0.2737   0.2741   0.2755
  0.2759   0.2765   0.2770   0.2774   0.2782   0.2790   0.2793   0.2797
  0.2804   0.2808   0.2816   0.2818   0.2824   0.2843   0.2848   0.2857
  0.2861   0.2862   0.2871   0.2878   0.2889   0.2893   0.2896   0.2902
  0.2908   0.2913   0.2919   0.2924   0.2931   0.2937   0.2943   0.2947
  0.2950   0.2951   0.2953   0.2964   0.2966   0.2970   0.2977   0.2982
  0.2993   0.2995   0.3003   0.3006   0.3011   0.3019   0.3023   0.3029
  0.3032   0.3042   0.3044   0.3052   0.3053   0.3056   0.3066   0.3071
  0.3077   0.3084   0.3086   0.3094   0.3095   0.3098   0.3108   0.3114
[...]
    3  -0.0097615   0.0263304  -0.0301573   0.0023292  -0.0054495   0.0049933
          163         164         165         166         167         168
    1  -0.0053284  -0.0342434   0.0062097   0.0071096  -0.0283652   0.0034875
    2  -0.0353593   0.0082399   0.0037655  -0.0040458   0.0243206  -0.0066804
    3   0.0049742   0.0033020   0.0063690   0.0066926  -0.0172324   0.0010330
          169         170         171         172         173         174
    1  -0.0046080   0.0026344   0.0259856  -0.0034946   0.0281530   0.0004234
    2   0.0387693   0.0017939   0.0168731   0.0086801  -0.0206024   0.0081004
    3   0.0164248   0.0029542   0.0419075  -0.0014015   0.0221890   0.0031855
          175         176         177         178         179         180
    1   0.0063557  -0.0100803   0.0592857   0.0034030  -0.0307570   0.0199224
    2  -0.0378530   0.0083211   0.0840633   0.0040146  -0.0313479  -0.0008393
    3  -0.0086013   0.0009209  -0.0081810  -0.0078813   0.0091243   0.0024281
          181         182         183         184         185         186
    1   0.0140885   0.0003879  -0.0177425   0.0332146  -0.0004520   0.0075460
    2   0.0201623  -0.0006254  -0.0204529  -0.0101427   0.0003540   0.0031402
    3   0.0285070   0.0014088  -0.0262477  -0.0116626   0.0052573   0.0060828
          187         188         189         190         191         192
    1  -0.0312583   0.0028514  -0.0383356   0.0032054  -0.0854775   0.0348546
    2  -0.0054592   0.0024778  -0.0126639   0.0094614  -0.0205494  -0.0092011
    3  -0.0267988  -0.0036500   0.0118518  -0.0323859   0.0406328   0.0200754
          193         194         195         196         197         198
    1  -0.0023598   0.0330798  -0.0070801   0.0401873   0.0161528  -0.0163019
    2   0.0026625   0.0027812  -0.0005603   0.0144751   0.0137926  -0.0345466
    3  -0.0079928   0.0209337  -0.0002739  -0.0121009  -0.0285615  -0.0007223
          199         200         201         202         203         204
    1   0.0000107   0.0123530  -0.0002611   0.0043057   0.0072555  -0.0013052
    2   0.0014723   0.0070085   0.0023369   0.0337672   0.0081978   0.0009483
    3  -0.0002665  -0.0333901   0.0027706  -0.0126360   0.0339077  -0.0005903
          205         206         207         208         209         210
    1  -0.0173381  -0.0008955  -0.0013442  -0.0781173  -0.0002021   0.0309514
    2   0.0096399  -0.0378773   0.0040338   0.0806124  -0.0028023  -0.0380286
    3  -0.0297043   0.0029379  -0.0126375  -0.0216763  -0.0022513   0.0086807
          211         212         213         214         215         216
    1  -0.0211466  -0.0016793   0.0926264   0.0004976  -0.0390571   0.0116063
    2   0.0200373   0.0034372   0.0294738  -0.0110461  -0.0205702   0.0092470
    3   0.0376009  -0.0112006  -0.0482541  -0.0024583   0.0127755   0.0131177
          217         218         219         220         221         222
    1  -0.0128343   0.0054368  -0.0015092   0.0805234   0.0044541  -0.0391735
    2  -0.0116115   0.0324517   0.0082395   0.0564629   0.0020047  -0.0139677
    3   0.0346966   0.0081903   0.0079580   0.0638265   0.0052176  -0.0218261
          223         224         225         226         227         228
    1   0.0165834   0.0222853   0.0009239  -0.0167988   0.0337263   0.0013869
    2  -0.0067757   0.0209439  -0.0006798  -0.0211610  -0.0126494   0.0019303
    3  -0.0004815   0.0213895   0.0053156  -0.0252465  -0.0081739   0.0010649
          229         230         231         232         233         234
    1  -0.0335682   0.0010268  -0.0113373  -0.0195686   0.0359869  -0.0023279
    2   0.0141276   0.0058296  -0.0085854  -0.0216074  -0.0139400   0.0026920
    3   0.0030644  -0.0004948   0.0354896  -0.0250998  -0.0007965  -0.0004491
          235         236         237         238         239         240
    1   0.0394776  -0.0044815  -0.0097563   0.0052662   0.0898414  -0.0068652
    2  -0.0044833   0.0432857  -0.0051339  -0.0054245  -0.0607142  -0.0032840
    3   0.0005935  -0.0000202   0.0399286   0.0074004  -0.0326142   0.0039805
          241         242         243         244         245         246
    1  -0.0309433   0.0055478   0.0275595  -0.0310214   0.0104336   0.0041295
    2   0.0285282  -0.0007089  -0.0227681  -0.0096641   0.0344040   0.0034968
    3   0.0189680  -0.0143343  -0.0057787  -0.0182057  -0.0082888  -0.0356817
          247         248         249         250         251         252
    1  -0.0051333   0.0099466  -0.0055739  -0.0102590  -0.0006763   0.0184315
    2   0.0049082   0.0347110   0.0011166  -0.0309911   0.0021286  -0.0245854
    3   0.0010181   0.0168220   0.0023339  -0.0129981   0.0001305   0.0242852
          253         254         255         256         257         258
    1   0.0093475  -0.0399090  -0.0028882   0.0040946   0.0000680  -0.0421013
    2   0.0351866  -0.0032810  -0.0010064   0.0386020   0.0018494   0.0002374
    3   0.0208447   0.0119935   0.0030325   0.0128284  -0.0378366   0.0082516
          259         260         261         262         263         264
    1  -0.0078997   0.0079539   0.0006833  -0.0112165   0.0109962  -0.0053191
    2   0.0088998  -0.0654427   0.0086270   0.0394171  -0.0088225  -0.0270397
    3  -0.0063495  -0.0764116   0.0007775   0.0243592   0.0071853  -0.0211007
          265         266         267         268         269         270
    1   0.0045775   0.0242352   0.0158275   0.0004140   0.0280274  -0.0201021
    2   0.0082169  -0.0281132   0.0158761   0.0029856   0.0150726   0.0328439
    3   0.0112596   0.0061361   0.0320739   0.0060400   0.0246391   0.0060688
          271         272         273         274         275         276
    1  -0.0149384  -0.0347580   0.0135842   0.0013670   0.0416274  -0.0038474
    2   0.0228213   0.0037865   0.0273703   0.0147166   0.0035016   0.0052622
    3   0.0081490  -0.0178315  -0.0187478  -0.0182107   0.0173832   0.0010498
          277         278         279         280         281         282
    1  -0.0225632  -0.0282055  -0.0204324  -0.0011846   0.0483636  -0.0113855
    2   0.0198698   0.0240143  -0.0431223  -0.0057470   0.0026297  -0.0445337
    3  -0.0042656  -0.0001355  -0.0107297   0.0207175   0.0040269  -0.0124610
          283         284         285         286         287         288
    1   0.0006877  -0.0588904  -0.0015463   0.0248811  -0.0108486  -0.0072209
    2   0.0080432   0.0833413   0.0066134  -0.0323716   0.0005551   0.0314842
    3  -0.0085867   0.0454565   0.0059121  -0.0222058   0.0171511   0.0156475
          289         290         291         292         293         294
    1  -0.0009865  -0.0245326   0.0045692  -0.0239167   0.0222900  -0.0314817
    2   0.0035575  -0.0029738  -0.0365026   0.0170112  -0.0128965  -0.0155999
    3  -0.0013634   0.0299442  -0.0123740  -0.0271740   0.0250615   0.0148568
          295         296         297         298         299         300
    1   0.0004027   0.0269978   0.0018027   0.0073700   0.0328526  -0.0012439
    2   0.0001137  -0.0080842  -0.0006248  -0.0362423   0.0139786   0.0028820
    3  -0.0006336   0.0262319   0.0016378  -0.0015607  -0.0109328   0.0114728
          301         302         303         304         305         306
    1  -0.0054435  -0.0324722   0.0373899  -0.0103835  -0.0329631   0.0003598
    2   0.0376788  -0.0143976  -0.0198991   0.0022067  -0.0186334   0.0388898
    3   0.0009078   0.0113379  -0.0121915  -0.0003090   0.0153171   0.0029353
          307         308         309         310         311         312
    1   0.0000826  -0.0049631  -0.0271633  -0.0000694   0.0331074   0.0000659
    2  -0.0127395   0.0378773   0.0004540   0.0013689  -0.0044007   0.0013723
    3  -0.0350481   0.0049151   0.0269101  -0.0006690   0.0181061   0.0002423
          313         314         315         316         317         318
    1   0.0279422   0.0025027  -0.0037405  -0.0068170   0.0348678   0.0004850
    2   0.0010172  -0.0342285   0.0029698  -0.0014733   0.0144462  -0.0009366
    3  -0.0238784   0.0101910  -0.0014993   0.0035167  -0.0190966   0.0068276
          319         320         321         322         323         324
    1  -0.0018373   0.0072448  -0.0361704   0.0064758  -0.0365014   0.0000137
    2   0.0251552   0.0036929   0.0150831   0.0045091  -0.0050185   0.0057809
    3  -0.0379925   0.0036152  -0.0121827  -0.0013358   0.0204749  -0.0074010
          325         326         327         328         329         330
    1   0.0020391  -0.0000845  -0.0061345  -0.0018821   0.0202911  -0.0036523
    2  -0.0214031   0.0372836   0.0029583   0.0001810  -0.0304531   0.0023216
    3   0.0370552  -0.0107791   0.0366349  -0.0017715  -0.0085682  -0.0026045
          331         332         333         334         335         336
    1   0.0048510   0.0014886  -0.0073258   0.0252757  -0.0386324   0.0001761
    2   0.0129549   0.0062734  -0.0140592  -0.0198026   0.0001916   0.0010101
    3  -0.0351503  -0.0009548   0.0346068  -0.0217065  -0.0195083  -0.0030502
          337         338         339         340         341         342
    1  -0.0147423  -0.0368062   0.0106650  -0.0096133  -0.0140146  -0.0011620
    2  -0.0095837   0.0054281   0.0364123  -0.0017265   0.0907748  -0.0031034
    3   0.0357981  -0.0227232   0.0054406   0.0078190   0.0606170   0.0021179
          343         344         345         346         347         348
    1  -0.0007621   0.0138506  -0.0062643   0.0035637   0.0241400   0.0093417
    2  -0.0416236   0.0094429   0.0263190  -0.0072330   0.0242794  -0.0283728
    3  -0.0208783  -0.0020636   0.0252796   0.0036584  -0.0142124  -0.0196221
          349         350         351         352         353         354
    1   0.0116641  -0.0229631   0.0144083   0.0049228  -0.0062746   0.0871027
    2  -0.0049987  -0.0205198   0.0235458   0.0025212  -0.0696298   0.0220147
    3   0.0007395   0.0189036   0.0237733   0.0030886  -0.0658379   0.0534250
          355         356         357         358         359         360
    1   0.0011509  -0.0227399  -0.0048831   0.0175464  -0.0092589   0.0205643
    2  -0.0081262  -0.0789371  -0.0031527   0.0346637   0.0005135  -0.0174895
    3   0.0126416  -0.0654316   0.0047815   0.0259657  -0.0152888  -0.0204713
          361         362         363         364         365         366
    1  -0.0023533   0.0008047  -0.0105750  -0.0007946   0.0057534  -0.0319314
    2  -0.0056060  -0.0357077   0.0019278   0.0055789   0.0358357   0.0014688
    3   0.0029695   0.0015031  -0.0356321  -0.0061162   0.0131647  -0.0138194
          367         368         369         370         371         372
    1  -0.0126874   0.0027978   0.0297450  -0.0311484   0.0105336   0.0045105
    2  -0.0457784   0.0050512   0.0227514   0.0222007  -0.0207458  -0.0060025
    3   0.0016955   0.0131812  -0.0080944   0.0101334   0.0330240   0.0098316
          373         374         375         376         377         378
    1   0.0829243   0.0076738  -0.0408069   0.0041122   0.0298649   0.0014615
    2   0.0454711  -0.0037506  -0.0169695   0.0161975   0.0077380  -0.0006577
    3   0.0604784  -0.0076570  -0.0122844  -0.0049704   0.0207146  -0.0013724
          379         380         381         382         383         384
    1  -0.0289922  -0.0019649   0.0306604   0.0071625  -0.0303466  -0.0017695
    2  -0.0131170  -0.0017765   0.0185152   0.0051409   0.0222130  -0.0002436
    3  -0.0171133   0.0000169   0.0167723  -0.0368586   0.0070216   0.0012668
          385         386         387         388         389         390
    1   0.0332841  -0.0024047   0.0075366   0.0020158  -0.1004256  -0.0068231
    2   0.0109299  -0.0368889   0.0012348  -0.0108102  -0.0526733   0.0012567
    3   0.0176545   0.0092086  -0.0371351  -0.0026664  -0.0130929  -0.0082882
          391         392         393         394         395         396
    1   0.0431233  -0.0168317  -0.0300762   0.0036174   0.0210793   0.0212960
    2   0.0132786   0.0071833  -0.0176146  -0.0050275  -0.0252633   0.0296222
    3   0.0073351   0.0072920  -0.0068102   0.0021366   0.0154533   0.0064072
          397         398         399         400         401         402
    1  -0.0031846   0.0174097   0.0171354   0.0020297  -0.0273373  -0.0004352
    2   0.0031221  -0.0096697   0.0404038  -0.0028821   0.0272916  -0.0231967
    3   0.0036168  -0.0121535   0.0035657  -0.0013659   0.0251637  -0.0063733
          403         404         405         406         407         408
    1   0.0029760  -0.0324558   0.0044845  -0.0312083   0.0019491  -0.0011668
    2  -0.0086540   0.0114451   0.0041107  -0.0265905   0.0059977  -0.0376959
    3  -0.0033999   0.0244159  -0.0001371   0.0128456   0.0025353  -0.0099625
          409         410         411         412         413         414
    1  -0.0061861   0.0292555  -0.0003744  -0.0059563   0.0035999   0.0028056
    2  -0.0014977  -0.0154006  -0.0014949   0.0288798   0.0356036  -0.0006302
    3   0.0042581  -0.0291157   0.0008392  -0.0203668  -0.0102405  -0.0025915
          415         416         417         418         419         420
    1   0.0256046   0.0083708  -0.0021501  -0.0132533   0.0087566  -0.0526080
    2  -0.0054532  -0.0014897  -0.0336514   0.0213205   0.0031120  -0.0043262
    3   0.0269566   0.0129813   0.0158246   0.0277035  -0.0391993   0.0275626
          421         422         423         424         425         426
    1   0.0136317   0.0312215  -0.0012001   0.0030219  -0.0038154   0.0027146
    2  -0.0200578  -0.0078717  -0.0010259   0.0323895  -0.0033750  -0.0282964
    3  -0.0302423  -0.0208829  -0.0031707   0.0185156   0.0009255  -0.0242194
          427         428         429         430         431         432
    1  -0.0036668  -0.0000413   0.0023957  -0.0006524   0.0258782  -0.0055075
    2   0.0267913  -0.0006485  -0.0283825  -0.0054347   0.0090344   0.0298862
    3  -0.0260048  -0.0038384   0.0220937  -0.0030345   0.0248764  -0.0249821
          433         434         435         436         437         438
    1  -0.0333269  -0.0015671   0.0027114  -0.0111809  -0.0376163   0.0017558
    2  -0.0037536  -0.0011743  -0.0347184   0.0262142  -0.0073113  -0.0282193
    3   0.0176063   0.0019135  -0.0240731  -0.0287085   0.0132395   0.0254679
          439         440         441         442         443         444
    1   0.0313837  -0.0026448  -0.0245626  -0.0001358   0.0231050   0.0028290
    2   0.0182627  -0.0020589   0.0294583   0.0011236  -0.0243221   0.0021608
    3  -0.0124357  -0.0049314   0.0066887  -0.0014988  -0.0072137  -0.0052283
          445         446         447         448         449         450
    1  -0.0163635   0.0043390  -0.0301922  -0.0017151  -0.0174918   0.0301168
    2  -0.0244545  -0.0170204   0.0277586   0.0009038  -0.0198114   0.0183225
    3  -0.0237164   0.0335946   0.0039155   0.0014956  -0.0313833  -0.0185650
          451         452         453         454         455         456
    1  -0.0284968   0.0080779   0.0357026   0.0013466   0.0075205  -0.0029507
    2   0.0319085  -0.0158822  -0.0126410   0.0043669   0.0396155   0.0015843
    3  -0.0025975   0.0325221   0.0060984   0.0026233   0.0009294   0.0087120
          457         458         459         460         461         462
    1  -0.0049806  -0.0370590   0.0031084   0.0818770  -0.0817524  -0.0041603
    2  -0.0386944   0.0140535   0.0093335   0.0841479  -0.0725188   0.0094688
    3   0.0029390   0.0010980   0.0313711   0.0073294   0.0123239   0.0201821
          463         464         465         466         467         468
    1  -0.0182132  -0.0107556   0.0004416  -0.0292224  -0.0006612   0.0085808
    2  -0.0071801   0.0357340   0.0000025  -0.0123214  -0.0019805  -0.0356416
    3   0.0340004   0.0093745   0.0001351  -0.0225779   0.0022762  -0.0053470
          469         470         471         472         473         474
    1   0.0255762  -0.0108130  -0.0072483  -0.0273536   0.0318330  -0.0024954
    2   0.0088507   0.0001845   0.0349385  -0.0104418  -0.0237241   0.0051927
    3   0.0254194   0.0063120   0.0070722  -0.0243859   0.0194138  -0.0085229
          475         476         477         478         479         480
    1  -0.0037458   0.0299694  -0.0324722  -0.0061444  -0.0366390  -0.0004191
    2   0.0339908  -0.0116800  -0.0152519  -0.0190643  -0.0136336   0.0028214
    3   0.0068133  -0.0238977  -0.0216416   0.0327315  -0.0016610  -0.0005500
          481         482         483         484         485         486
    1   0.0181387  -0.0027543  -0.0005750  -0.0237243  -0.0057528   0.0221042
    2  -0.0269284  -0.0001192  -0.0288315   0.0210316  -0.0103169  -0.0219200
    3   0.0214674   0.0001314  -0.0240632  -0.0217787  -0.0043139   0.0208561
          487         488         489         490         491         492
    1   0.0133312   0.0022471  -0.0033091  -0.0333282   0.0266719  -0.0023899
    2  -0.0002198   0.0122543   0.0104534  -0.0049109   0.0063129   0.0423096
    3  -0.0311478   0.0441515  -0.0101463  -0.0205803  -0.0242944   0.0072314
          493         494         495         496         497         498
    1  -0.0036761  -0.0363821   0.0014250   0.0103603   0.0007214   0.0400480
    2   0.0321810  -0.0063163   0.0029586  -0.0220370   0.0088303   0.0090632
    3   0.0212014  -0.0068759  -0.0024515   0.0271987  -0.0072768   0.0026648
          499         500         501         502         503         504
    1  -0.0062687   0.0007195  -0.0007466  -0.0233372   0.0010326   0.0161093
    2   0.0321255  -0.0258538   0.0357671  -0.0303437  -0.0004591   0.0057593
    3  -0.0326776  -0.0179171   0.0142591   0.0021207  -0.0034442   0.0325527
          505         506         507         508         509         510
    1  -0.0001570   0.0237667   0.0243439  -0.0027498   0.0111361  -0.0013258
    2  -0.0010103   0.0265283  -0.0257149  -0.0049679   0.0095754  -0.0410854
    3  -0.0004600  -0.0035619   0.0042082  -0.0050404   0.0083721   0.0170888
          511         512         513         514         515         516
    1  -0.0035034  -0.0236581   0.0063911   0.0052187  -0.0192184   0.0032404
    2  -0.0155414  -0.0376715   0.0142197   0.0026545  -0.0260178  -0.0083747
    3  -0.0151614  -0.0298681  -0.0063521   0.0008460  -0.0309279   0.0061823
          517         518         519         520         521         522
    1  -0.0109043  -0.0005532   0.0097736  -0.0042270   0.0222160   0.0012611
    2   0.0161622  -0.0105931   0.0367208  -0.0035350   0.0198194  -0.0030066
    3  -0.0336353   0.0021885  -0.0059447  -0.0099679   0.0267379  -0.0032173
          523         524         525         526         527         528
    1  -0.0239085  -0.0100934  -0.0010279  -0.0250771   0.0009693   0.0207868
    2   0.0279695   0.0105586  -0.0000322  -0.0305430  -0.0026845   0.0276703
    3  -0.0082839   0.0340089  -0.0021042  -0.0064747  -0.0032711   0.0102616
          529         530         531         532         533         534
    1  -0.0334693  -0.0019860   0.0301585   0.0010468  -0.0366092   0.0024888
    2   0.0165828   0.0005709  -0.0190649   0.0007662   0.0136614  -0.0093790
    3  -0.0027005   0.0012812   0.0045394   0.0012704  -0.0037168  -0.0357600
          535         536         537         538         539         540
    1  -0.0056568  -0.0014632  -0.0328370   0.0271679   0.0084636   0.0329226
    2  -0.0355886  -0.0042703   0.0207274   0.0241536  -0.0092203  -0.0177996
    3   0.0177391   0.0016082  -0.0082651   0.0131087  -0.0368027   0.0047997
  --- DONE ESP SUMMARY ---
 Total job time:  34.16s(wall), 327.58s(cpu) 
 Fri Aug  9 15:53:08 2024

        *************************************************************
        *                                                           *
        *  Thank you very much for using Q-Chem.  Have a nice day.  *
        *                                                           *
        *************************************************************


