
Running Job 1 of 2 19nt_mm_min_distance_cutoff4_nowat_xtb_optimized_spade_wb97x-v_631gd.in
qchem 19nt_mm_min_distance_cutoff4_nowat_xtb_optimized_spade_wb97x-v_631gd.in_3226138.0 ./qchem3226138/ 1
srun -n 1 /cm/shared/apps/spack/0.17.3/cpu/b/opt/spack/linux-rocky8-zen2/gcc-10.2.0/qchem-6.0-rytxnwjazd34ekd2gqyi5ufsaimxsd3r/exe/qcprog.exe 19nt_mm_min_distance_cutoff4_nowat_xtb_optimized_spade_wb97x-v_631gd.in_3226138.0 ./qchem3226138/

                  Welcome to Q-Chem
     A Quantum Leap Into The Future Of Chemistry


 Q-Chem 6.0, Q-Chem, Inc., Pleasanton, CA (2022)

 License issued to: University of California, San Diego (site)

 E. Epifanovsky,  A. T. B. Gilbert,  Xintian Feng,  Joonho Lee,  Yuezhi Mao,  
 N. Mardirossian,  P. Pokhilko,  A. White,  M. Wormit,  M. P. Coons,  
 A. L. Dempwolff,  Zhengting Gan,  D. Hait,  P. R. Horn,  L. D. Jacobson,  
 I. Kaliman,  J. Kussmann,  A. W. Lange,  Ka Un Lao,  D. S. Levine,  Jie Liu,  
 S. C. McKenzie,  A. F. Morrison,  K. Nanda,  F. Plasser,  D. R. Rehn,  
 M. L. Vidal,  Zhi-Qiang You,  Ying Zhu,  B. Alam,  B. Albrecht,  
 A. Aldossary,  E. Alguire,  J. H. Andersen,  V. Athavale,  D. Barton,  
 K. Begam,  A. Behn,  N. Bellonzi,  Y. A. Bernard,  E. J. Berquist,  
 H. Burton,  A. Carreras,  K. Carter-Fenk,  Romit Chakraborty,  
 Chandrima Chakravarty,  Junhan Chen,  A. D. Chien,  K. D. Closser,  
 V. Cofer-Shabica,  L. Cunha,  S. Dasgupta,  Jia Deng,  M. de Wergifosse,  
 M. Diedenhofen,  Hainam Do,  S. Ehlert,  Po-Tung Fang,  S. Fatehi,  
 Qingguo Feng,  T. Friedhoff,  B. Ganoe,  J. Gayvert,  Qinghui Ge,  
 G. Gidofalvi,  M. Goldey,  J. Gomes,  C. Gonzalez-Espinoza,  S. Gulania,  
 A. Gunina,  J. A. Gyamfi,  M. W. D. Hanson-Heine,  P. H. P. Harbach,  
 A. W. Hauser,  M. F. Herbst,  M. Hernandez Vera,  M. Hodecker,  
 Z. C. Holden,  S. Houck,  Xunkun Huang,  Kerwin Hui,  B. C. Huynh,  
 K. Ikeda,  M. Ivanov,  Hyunjun Ji,  Zuxin Jin,  Hanjie Jiang,  B. Kaduk,  
 S. Kaehler,  R. Kang,  K. Khistyaev,  Jaehoon Kim,  Yongbin Kim,  
 P. Klunzinger,  Z. Koczor-Benda,  Joong Hoon Koh,  D. Kosenkov,  
 Saikiran Kotaru,  L. Koulias,  T. Kowalczyk,  C. M. Krauter,  K. Kue,  
 A. Kunitsa,  T. Kus,  A. Landau,  K. V. Lawler,  D. Lefrancois,  S. Lehtola,  
 Rain Li,  Shaozhi Li,  Yi-Pei Li,  Jiashu Liang,  M. Liebenthal,  
 Hung-Hsuan Lin,  You-Sheng Lin,  Fenglai Liu,  Kuan-Yu Liu,  
 M. Loipersberger,  A. Luenser,  C. Malbon,  A. Manjanath,  P. Manohar,  
 E. Mansoor,  S. F. Manzer,  Shan-Ping Mao,  A. V. Marenich,  T. Markovich,  
 S. Mason,  F. Matz,  S. A. Maurer,  P. F. McLaughlin,  M. F. S. J. Menger,  
 J.-M. Mewes,  S. A. Mewes,  P. Morgante,  Mohammad Mostafanejad,  
 J. W. Mullinax,  K. J. Oosterbaan,  G. Paran,  V. Parravicini,  
 Alexander C. Paul,  Suranjan K. Paul,  F. Pavosevic,  Zheng Pei,  S. Prager,  
 E. I. Proynov,  E. Ramos,  B. Rana,  A. E. Rask,  A. Rettig,  R. M. Richard,  
 F. Rob,  E. Rossomme,  T. Scheele,  M. Scheurer,  M. Schneider,  
 P. E. Schneider,  N. Sergueev,  S. M. Sharada,  Hengyuan Shen,  
 W. Skomorowski,  D. W. Small,  C. J. Stein,  Yingli Su,  Yu-Chuan Su,  
 E. J. Sundstrom,  Zhen Tao,  J. Thirman,  Hung-Yi Tsai,  T. Tsuchimochi,  
 N. M. Tubman,  C. Utku,  S. P. Veccham,  O. Vydrov,  J. Wenzel,  
 Jonathan Wong,  J. Witte,  A. Yamada,  Chou-Hsun Yang,  Kun Yao,  
 S. Yeganeh,  S. R. Yost,  A. Zech,  F. Zeller,  Igor Ying Zhang,  
 Xing Zhang,  Yu Zhang,  D. Zuev,  A. Aspuru-Guzik,  A. T. Bell,  
 N. A. Besley,  K. B. Bravaya,  B. R. Brooks,  D. Casanova,  Jeng-Da Chai,  
 Hsing-Ta Chen,  S. Coriani,  C. J. Cramer,  A. E. DePrince, III,  
 R. A. DiStasio Jr.,  A. Dreuw,  B. D. Dunietz,  T. R. Furlani,  
 W. A. Goddard III,  S. Grimme,  S. Hammes-Schiffer,  T. Head-Gordon,  
 W. J. Hehre,  Chao-Ping Hsu,  T.-C. Jagau,  Yousung Jung,  A. Klamt,  
 Jing Kong,  D. S. Lambrecht,  Xiangyuan Li,  WanZhen Liang,  N. J. Mayhall,  
 C. W. McCurdy,  J. B. Neaton,  T. Neudecker,  C. Ochsenfeld,  
 J. A. Parkhill,  R. Peverati,  V. A. Rassolov,  Haisheng Ren,  Yihan Shao,  
 L. V. Slipchenko,  R. P. Steele,  J. E. Subotnik,  A. J. W. Thom,  
 A. Tkatchenko,  D. G. Truhlar,  T. Van Voorhis,  Fan Wang,  
 T. A. Wesolowski,  K. B. Whaley,  H. L. Woodcock III,  P. M. Zimmerman,  
 S. Faraji,  P. M. W. Gill,  M. Head-Gordon,  J. M. Herbert,  A. I. Krylov

 Contributors to earlier versions of Q-Chem not listed above: 
 R. D. Adamson,  B. Austin,  R. Baer,  J. Baker,  G. J. O. Beran,  
 K. Brandhorst,  S. T. Brown,  E. F. C. Byrd,  Arup K. Chakraborty,  
 G. K. L. Chan,  Chun-Min Chang,  Yunqing Chen,  C.-L. Cheng,  
 Siu Hung Chien,  D. M. Chipman,  D. L. Crittenden,  H. Dachsel,  
 R. J. Doerksen,  A. D. Dutoi,  R. G. Edgar,  J. Fosso-Tande,  
 L. Fusti-Molnar,  D. Ghosh,  A. Ghysels,  A. Golubeva-Zadorozhnaya,  
 J. Gonthier,  M. S. Gordon,  S. R. Gwaltney,  G. Hawkins,  J. E. Herr,  
 A. Heyden,  S. Hirata,  E. G. Hohenstein,  G. Kedziora,  F. J. Keil,  
 C. Kelley,  Jihan Kim,  R. A. King,  R. Z. Khaliullin,  P. P. Korambath,  
 W. Kurlancheek,  A. Laurent,  A. M. Lee,  M. S. Lee,  S. V. Levchenko,  
 Ching Yeh Lin,  D. Liotard,  E. Livshits,  R. C. Lochan,  I. Lotan,  
 L. A. Martinez-Martinez,  P. E. Maslen,  N. Nair,  D. P. O'Neill,  
 D. Neuhauser,  E. Neuscamman,  C. M. Oana,  R. Olivares-Amaya,  R. Olson,  
 T. M. Perrine,  B. Peters,  P. A. Pieniazek,  A. Prociuk,  Y. M. Rhee,  
 J. Ritchie,  M. A. Rohrdanz,  E. Rosta,  N. J. Russ,  H. F. Schaefer III,  
 M. W. Schmidt,  N. E. Schultz,  S. Sharma,  N. Shenvi,  C. D. Sherrill,  
 A. C. Simmonett,  A. Sodt,  T. Stein,  D. Stuck,  K. S. Thanthiriwatte,  
 V. Vanovschi,  L. Vogt,  Tao Wang,  A. Warshel,  M. A. Watson,  
 C. F. Williams,  Q. Wu,  X. Xu,  Jun Yang,  W. Zhang,  Yan Zhao

   Please cite Q-Chem as follows:
  "Software for the frontiers of quantum chemistry:
   An overview of developments in the Q-Chem 5 package"
   J. Chem. Phys. 155, 084801 (2021)
   https://doi.org/10.1063/5.0055522 (open access)

 Q-Chem 6.0.2 for Intel X86 EM64T Linux

 Parts of Q-Chem use Armadillo 9.900.5 (Nocturnal Misbehaviour).
 http://arma.sourceforge.net/

 Q-Chem begins on Fri Aug  9 13:56:17 2024  

 Host: 
0

     Scratch files written to ./qchem3226138//
 Dec722 |scratch|qcdevops|jenkins|workspace|build_RNUM    
 Processing $rem in /cm/shared/apps/spack/0.17.3/cpu/b/opt/spack/linux-rocky8-zen2/gcc-10.2.0/qchem-6.0-rytxnwjazd34ekd2gqyi5ufsaimxsd3r/config/preferences:
 Processing $rem in /home/hklem/.qchemrc:
 No nuclear gradient supported for projection-based embedding or EMFT. Set max ideriv = 0.

 Checking the input file for inconsistencies... 	...done.

--------------------------------------------------------------
User input:
--------------------------------------------------------------
$molecule
-1 1
--
0 1
C    1.96800    1.97300    -8.59100
O    1.89700    0.82300    -8.08900
C    2.57100    3.07600    -7.94900
C    2.73400    4.27800    -8.57100
C    2.49400    4.46500    -10.02200
C    2.26700    3.13500    -10.74100
C    1.32900    2.26300    -9.91900
C    3.04400    5.49700    -7.80000
C    4.05400    6.43200    -8.46000
C    3.72900    6.65400    -9.93600
C    3.63800    5.29100    -10.64200
C    4.81200    7.48100    -10.61900
C    4.54700    7.68900    -12.11600
C    4.53200    6.32000    -12.78500
C    3.46000    5.43000    -12.15700
C    5.11400    8.89300    -10.11400
C    5.86000    9.55200    -11.29200
C    5.75500    8.57900    -12.48600
C    3.25800    8.45600    -12.41600
O    5.64500    9.29100    -13.69100
H    2.87000    2.96000    -6.91600
H    1.56100    5.07100    -10.08500
H    3.22400    2.61700    -10.87500
H    1.82400    3.30000    -11.72300
H    0.40700    2.82100    -9.73100
H    1.07000    1.34000    -10.44000
H    3.35500    5.25300    -6.78500
H    2.06300    6.00800    -7.73900
H    5.05400    5.99700    -8.37100
H    4.05700    7.38800    -7.93300
H    2.76200    7.15800    -10.00500
H    4.58200    4.75500    -10.46400
H    5.74600    6.90400    -10.54700
H    5.51000    5.84900    -12.64800
H    4.35700    6.41300    -13.85600
H    2.46800    5.83100    -12.36300
H    3.52300    4.44300    -12.62200
H    5.72200    8.88400    -9.21000
H    4.19000    9.42000    -9.87800
H    6.90500    9.74300    -11.04800
H    5.41200    10.50200   -11.58100
H    6.65800    7.94400    -12.51900
H    3.29600    9.45400    -11.99300
H    3.14400    8.55600    -13.49300
H    2.38500    7.94800    -12.02000
H    5.59400    8.65300    -14.42100
--
-1 1
H    7.06600    -6.19400   -9.11200
C    6.42000    -5.34600   -9.33300
H    6.37000    -5.22100   -10.41200
C    5.02200    -5.56500   -8.75700
H    4.58700    -6.46500   -9.19900
H    5.09300    -5.71600   -7.67700
C    4.14900    -4.37800   -9.04900
C    3.55800    -4.23100   -10.29800
H    3.69900    -4.99700   -11.04700
C    2.79000    -3.12500   -10.59900
H    2.33200    -3.02500   -11.57000
C    2.59500    -2.13400   -9.64000
O    1.82400    -1.06400   -9.95900
H    1.80000    -0.41300   -9.20500
C    3.18900    -2.26600   -8.39000
H    3.03900    -1.49900   -7.64600
C    3.95900    -3.37800   -8.10600
H    4.41500    -3.46900   -7.13000
H    6.86600    -4.45000   -8.90600
H    9.02300    -1.30200   -13.35200
C    8.12900    -0.68300   -13.31400
H    7.53800    -0.87400   -14.20800
C    7.30900    -0.99900   -12.06200
H    7.93200    -0.80300   -11.18200
C    6.07000    -0.11200   -11.98200
H    6.34700    0.94000    -12.00100
H    5.40500    -0.31500   -12.82000
H    5.52400    -0.30600   -11.06200
C    6.89500    -2.46800   -12.04600
H    6.30000    -2.68400   -11.16100
H    7.76800    -3.11800   -12.04300
H    6.29500    -2.70100   -12.92400
H    8.43300    0.36200    -13.31700
H    -3.84000   6.57400    -7.44800
C    -2.77000   6.77800    -7.46900
H    -2.33300   6.47300    -6.52000
C    -2.09700   6.02500    -8.60800
H    -2.46300   6.37000    -9.57800
H    -2.32300   4.95600    -8.52800
C    -0.54100   6.12200    -8.63200
O    0.05200    6.24600    -7.54200
O    -0.01500   6.01700    -9.75100
H    -2.62100   7.85100    -7.58100
H    -0.19700   2.52600    -16.77600
C    0.82900    2.86800    -16.66200
H    0.88800    3.46200    -15.75200
C    1.78100    1.67500    -16.57400
H    1.72800    1.10300    -17.50500
H    2.80300    2.03900    -16.45400
C    1.41300    0.79500    -15.41200
C    0.35300    -0.09700   -15.51800
H    -0.17400   -0.18900   -16.45800
C    -0.04300   -0.86500   -14.44300
H    -0.87100   -1.55200   -14.52100
C    0.62500    -0.76100   -13.22400
O    0.19800    -1.52000   -12.19100
H    0.74000    -1.34400   -11.39700
C    1.70300    0.11300    -13.11800
H    2.24200    0.18400    -12.18400
C    2.07900    0.88700    -14.19900
H    2.90600    1.57400    -14.09300
H    1.07800    3.50300    -17.51100
H    2.55500    6.55400    -15.66400
C    3.08500    7.18100    -16.37900
H    3.08400    8.20500    -16.01900
H    2.58400    7.12400    -17.34100
C    4.53700    6.70400    -16.48700
O    5.45000    7.28100    -15.92200
N    4.74500    5.59800    -17.23900
H    3.95200    5.14100    -17.66000
C    6.04900    4.97800    -17.47900
H    6.76700    5.52100    -16.86500
C    6.04800    3.48900    -17.15000
H    5.34300    2.98100    -17.81500
H    7.04500    3.10000    -17.37000
C    5.68900    3.15200    -15.69900
H    4.68100    3.53000    -15.49000
C    5.69400    1.63400    -15.52300
H    5.40000    1.36800    -14.51200
H    5.00900    1.15200    -16.21600
H    6.69300    1.24100    -15.70100
C    6.65500    3.79300    -14.70700
H    7.67600    3.48200    -14.91600
H    6.60100    4.87600    -14.75200
H    6.40400    3.48600    -13.69400
H    6.31500    5.12000    -18.53300
H    11.60300   6.11500    -16.24900
C    11.32600   6.23500    -15.20300
H    11.72600   7.18300    -14.84900
C    9.80600    6.20000    -15.03700
H    9.44800    5.22200    -15.38100
C    9.42700    6.36400    -13.56800
H    9.84200    5.55500    -12.97100
H    9.80800    7.30300    -13.17500
H    8.34600    6.35700    -13.45100
C    9.14000    7.27900    -15.88800
H    9.49100    8.26600    -15.59600
H    9.36900    7.13300    -16.94300
H    8.06000    7.26400    -15.76300
H    11.79100   5.43600    -14.62900
H    9.39500    3.32600    -2.50600
C    10.27900   2.75100    -2.77200
H    10.87800   2.59700    -1.87600
C    9.87200    1.41100    -3.38800
H    10.77100   0.84600    -3.64600
H    9.30700    0.83500    -2.65200
C    9.03300    1.62500    -4.61700
C    9.63000    1.78500    -5.86100
H    10.70700   1.72500    -5.94600
C    8.86200    2.01200    -6.98900
H    9.34300    2.12700    -7.95100
C    7.48400    2.08900    -6.88700
H    6.88200    2.26800    -7.76600
C    6.87600    1.93400    -5.65200
H    5.80300    1.99400    -5.56100
C    7.65000    1.70500    -4.52700
H    7.17100    1.58400    -3.56600
H    10.86100   3.33300    -3.48400
H    10.87300   5.80500    -7.72900
C    10.90600   6.48300    -8.58000
H    11.70200   6.16400    -9.24900
C    9.56400    6.48700    -9.30700
H    9.64000    7.16900    -10.16000
C    9.23300    5.09200    -9.83000
H    9.11400    4.39800    -9.00000
H    10.02600   4.72600    -10.47800
H    8.30500    5.10900    -10.39800
C    8.45500    6.97200    -8.37800
H    8.32000    6.27800    -7.55100
H    7.51300    7.05000    -8.91700
H    8.69700    7.95000    -7.96800
H    11.15000   7.47900    -8.21600
H    12.94700   10.10700   -13.00500
C    12.46700   10.68400   -13.79100
H    12.96900   10.47400   -14.73300
C    10.99200   10.31800   -13.88000
H    10.90100   9.25900    -14.12600
H    10.51200   10.89200   -14.67700
C    10.24700   10.58700   -12.58300
H    10.36100   11.62800   -12.27800
H    9.18600    10.35300   -12.69200
S    10.90200   9.55000    -11.22400
C    9.92500    10.24200   -9.86700
H    10.10700   11.31200   -9.79500
H    8.87000    10.04500   -10.03600
H    10.25500   9.74800    -8.96000
H    12.58700   11.74200   -13.56400
H    10.35500   11.45900   -6.46000
C    9.82100    10.83300   -5.74700
H    9.86000    11.32100   -4.77600
C    8.38200    10.62000   -6.20100
H    8.39000    10.19900   -7.20900
H    7.86900    11.58300   -6.25600
C    7.58600    9.68200    -5.28500
H    8.19200    8.78900    -5.09100
C    7.27100    10.35200   -3.95000
H    8.18000    10.66800   -3.44300
H    6.64200    11.22600   -4.10900
H    6.74600    9.66300    -3.29500
C    6.29600    9.25000    -5.97800
H    6.51600    8.66000    -6.86500
H    5.71100    10.11500   -6.28100
H    5.68000    8.64800    -5.31500
H    10.34100   9.88000    -5.67200
H    7.36300    6.70600    -2.44700
C    6.31900    6.50400    -2.68100
H    5.90400    7.37500    -3.18300
C    6.18900    5.27700    -3.58000
H    6.59200    4.40600    -3.04800
C    4.72100    5.01700    -3.90200
H    4.60900    4.11000    -4.49100
H    4.14400    4.90200    -2.98600
H    4.31100    5.85500    -4.46300
C    6.99000    5.47100    -4.86400
H    6.91400    4.59000    -5.49700
H    8.04200    5.64000    -4.64000
H    6.61000    6.32800    -5.41500
H    5.78100    6.35700    -1.74600
H    2.93300    2.20300    -2.47600
C    2.38300    1.26700    -2.41200
H    1.34700    1.45900    -2.68100
C    2.99800    0.24300    -3.36400
H    4.03000    0.03800    -3.06900
H    2.42900    -0.68700   -3.35600
C    3.01700    0.79300    -4.77700
O    3.63600    1.77800    -5.10000
O    2.29000    0.07500    -5.60600
H    2.24300    0.46400    -6.54000
H    2.41900    0.90300    -1.38800
H    -4.24900   -1.34700   -5.52900
C    -3.43400   -0.88100   -4.98100
H    -3.37700   -1.33300   -3.99200
C    -2.11600   -1.05600   -5.72300
H    -1.87600   -2.12000   -5.81300
H    -2.20600   -0.65500   -6.73400
C    -0.96500   -0.36800   -5.00400
H    -0.86900   -0.74600   -3.98500
H    -0.02200   -0.51600   -5.52900
S    -1.20400   1.42900    -4.80700
C    -1.09900   1.96000    -6.53600
H    -2.01000   1.69100    -7.06400
H    -0.23500   1.49000    -6.99600
H    -0.97700   3.03800    -6.53400
H    -3.65600   0.17700    -4.85800
H    -0.90000   4.18100    -4.12200
C    0.02900    4.71800    -3.94200
H    0.37000    4.46600    -2.93800
C    1.07200    4.34300    -4.98000
H    2.03500    4.78100    -4.73400
H    0.77000    4.70200    -5.96000
H    1.19400    3.26400    -5.01700
H    -0.18500   5.78400    -3.97800
H    1.65200    9.66600    -1.94300
C    2.58400    10.17800   -2.17100
H    3.11700    10.36300   -1.23900
C    3.43500    9.33400    -3.12100
H    4.37300    9.85900    -3.31100
H    3.66500    8.38100    -2.63800
C    2.74800    9.06900    -4.42400
C    1.98500    7.97900    -4.74300
H    1.74400    7.13300    -4.12800
N    1.52500    8.06400    -6.02100
H    0.94100    7.37900    -6.50300
C    1.99100    9.21600    -6.56900
C    1.82200    9.73100    -7.84900
H    1.24200    9.19200    -8.58300
C    2.41800    10.93900   -8.13700
H    2.30700    11.37200   -9.12200
C    3.16200    11.63000   -7.17400
H    3.60600    12.58000   -7.44000
C    3.33800    11.12500   -5.90600
H    3.91100    11.67100   -5.16800
C    2.76000    9.89500    -5.58600
H    2.34300    11.13500   -2.63000
$end

$rem
JOBTYPE  SP
METHOD  WB97X-V
BASIS  6-31G(D)
SYMMETRY  FALSE
SYM_IGNORE  TRUE
MEM_TOTAL  64000
MEM_STATIC  4000
BASIS_LIN_DEP_THRESH  6
THRESH  14
SCF_CONVERGENCE  8
FD_MAT_VEC_PROD  FALSE
XC_GRID  000075000302
NL_GRID  1
MAX_SCF_CYCLES  200
ENV_METHOD  WB97X-V
GEN_SCFMAN_EMBED  TRUE
SPADE_PARTITION  TRUE
EMBEDDING_EARLY_STOP  TRUE
$end

--------------------------------------------------------------
 ----------------------------------------------------------------
             Standard Nuclear Orientation (Angstroms)
    I     Atom           X                Y                Z
 ----------------------------------------------------------------
    1      C       1.9680000000     1.9730000000    -8.5910000000
    2      O       1.8970000000     0.8230000000    -8.0890000000
    3      C       2.5710000000     3.0760000000    -7.9490000000
    4      C       2.7340000000     4.2780000000    -8.5710000000
    5      C       2.4940000000     4.4650000000   -10.0220000000
    6      C       2.2670000000     3.1350000000   -10.7410000000
    7      C       1.3290000000     2.2630000000    -9.9190000000
    8      C       3.0440000000     5.4970000000    -7.8000000000
    9      C       4.0540000000     6.4320000000    -8.4600000000
   10      C       3.7290000000     6.6540000000    -9.9360000000
   11      C       3.6380000000     5.2910000000   -10.6420000000
   12      C       4.8120000000     7.4810000000   -10.6190000000
   13      C       4.5470000000     7.6890000000   -12.1160000000
   14      C       4.5320000000     6.3200000000   -12.7850000000
   15      C       3.4600000000     5.4300000000   -12.1570000000
   16      C       5.1140000000     8.8930000000   -10.1140000000
   17      C       5.8600000000     9.5520000000   -11.2920000000
   18      C       5.7550000000     8.5790000000   -12.4860000000
   19      C       3.2580000000     8.4560000000   -12.4160000000
   20      O       5.6450000000     9.2910000000   -13.6910000000
   21      H       2.8700000000     2.9600000000    -6.9160000000
   22      H       1.5610000000     5.0710000000   -10.0850000000
   23      H       3.2240000000     2.6170000000   -10.8750000000
   24      H       1.8240000000     3.3000000000   -11.7230000000
   25      H       0.4070000000     2.8210000000    -9.7310000000
   26      H       1.0700000000     1.3400000000   -10.4400000000
   27      H       3.3550000000     5.2530000000    -6.7850000000
   28      H       2.0630000000     6.0080000000    -7.7390000000
   29      H       5.0540000000     5.9970000000    -8.3710000000
   30      H       4.0570000000     7.3880000000    -7.9330000000
   31      H       2.7620000000     7.1580000000   -10.0050000000
   32      H       4.5820000000     4.7550000000   -10.4640000000
   33      H       5.7460000000     6.9040000000   -10.5470000000
   34      H       5.5100000000     5.8490000000   -12.6480000000
   35      H       4.3570000000     6.4130000000   -13.8560000000
   36      H       2.4680000000     5.8310000000   -12.3630000000
   37      H       3.5230000000     4.4430000000   -12.6220000000
   38      H       5.7220000000     8.8840000000    -9.2100000000
   39      H       4.1900000000     9.4200000000    -9.8780000000
   40      H       6.9050000000     9.7430000000   -11.0480000000
   41      H       5.4120000000    10.5020000000   -11.5810000000
   42      H       6.6580000000     7.9440000000   -12.5190000000
   43      H       3.2960000000     9.4540000000   -11.9930000000
   44      H       3.1440000000     8.5560000000   -13.4930000000
   45      H       2.3850000000     7.9480000000   -12.0200000000
   46      H       5.5940000000     8.6530000000   -14.4210000000
   47      H       7.0660000000    -6.1940000000    -9.1120000000
   48      C       6.4200000000    -5.3460000000    -9.3330000000
   49      H       6.3700000000    -5.2210000000   -10.4120000000
   50      C       5.0220000000    -5.5650000000    -8.7570000000
   51      H       4.5870000000    -6.4650000000    -9.1990000000
   52      H       5.0930000000    -5.7160000000    -7.6770000000
   53      C       4.1490000000    -4.3780000000    -9.0490000000
   54      C       3.5580000000    -4.2310000000   -10.2980000000
   55      H       3.6990000000    -4.9970000000   -11.0470000000
   56      C       2.7900000000    -3.1250000000   -10.5990000000
   57      H       2.3320000000    -3.0250000000   -11.5700000000
   58      C       2.5950000000    -2.1340000000    -9.6400000000
   59      O       1.8240000000    -1.0640000000    -9.9590000000
   60      H       1.8000000000    -0.4130000000    -9.2050000000
   61      C       3.1890000000    -2.2660000000    -8.3900000000
   62      H       3.0390000000    -1.4990000000    -7.6460000000
   63      C       3.9590000000    -3.3780000000    -8.1060000000
   64      H       4.4150000000    -3.4690000000    -7.1300000000
   65      H       6.8660000000    -4.4500000000    -8.9060000000
   66      H       9.0230000000    -1.3020000000   -13.3520000000
   67      C       8.1290000000    -0.6830000000   -13.3140000000
   68      H       7.5380000000    -0.8740000000   -14.2080000000
   69      C       7.3090000000    -0.9990000000   -12.0620000000
   70      H       7.9320000000    -0.8030000000   -11.1820000000
   71      C       6.0700000000    -0.1120000000   -11.9820000000
   72      H       6.3470000000     0.9400000000   -12.0010000000
   73      H       5.4050000000    -0.3150000000   -12.8200000000
   74      H       5.5240000000    -0.3060000000   -11.0620000000
   75      C       6.8950000000    -2.4680000000   -12.0460000000
   76      H       6.3000000000    -2.6840000000   -11.1610000000
   77      H       7.7680000000    -3.1180000000   -12.0430000000
   78      H       6.2950000000    -2.7010000000   -12.9240000000
   79      H       8.4330000000     0.3620000000   -13.3170000000
   80      H      -3.8400000000     6.5740000000    -7.4480000000
   81      C      -2.7700000000     6.7780000000    -7.4690000000
   82      H      -2.3330000000     6.4730000000    -6.5200000000
   83      C      -2.0970000000     6.0250000000    -8.6080000000
   84      H      -2.4630000000     6.3700000000    -9.5780000000
   85      H      -2.3230000000     4.9560000000    -8.5280000000
   86      C      -0.5410000000     6.1220000000    -8.6320000000
   87      O       0.0520000000     6.2460000000    -7.5420000000
   88      O      -0.0150000000     6.0170000000    -9.7510000000
   89      H      -2.6210000000     7.8510000000    -7.5810000000
   90      H      -0.1970000000     2.5260000000   -16.7760000000
   91      C       0.8290000000     2.8680000000   -16.6620000000
   92      H       0.8880000000     3.4620000000   -15.7520000000
   93      C       1.7810000000     1.6750000000   -16.5740000000
   94      H       1.7280000000     1.1030000000   -17.5050000000
   95      H       2.8030000000     2.0390000000   -16.4540000000
   96      C       1.4130000000     0.7950000000   -15.4120000000
   97      C       0.3530000000    -0.0970000000   -15.5180000000
   98      H      -0.1740000000    -0.1890000000   -16.4580000000
   99      C      -0.0430000000    -0.8650000000   -14.4430000000
  100      H      -0.8710000000    -1.5520000000   -14.5210000000
  101      C       0.6250000000    -0.7610000000   -13.2240000000
  102      O       0.1980000000    -1.5200000000   -12.1910000000
  103      H       0.7400000000    -1.3440000000   -11.3970000000
  104      C       1.7030000000     0.1130000000   -13.1180000000
  105      H       2.2420000000     0.1840000000   -12.1840000000
  106      C       2.0790000000     0.8870000000   -14.1990000000
  107      H       2.9060000000     1.5740000000   -14.0930000000
  108      H       1.0780000000     3.5030000000   -17.5110000000
  109      H       2.5550000000     6.5540000000   -15.6640000000
  110      C       3.0850000000     7.1810000000   -16.3790000000
  111      H       3.0840000000     8.2050000000   -16.0190000000
  112      H       2.5840000000     7.1240000000   -17.3410000000
  113      C       4.5370000000     6.7040000000   -16.4870000000
  114      O       5.4500000000     7.2810000000   -15.9220000000
  115      N       4.7450000000     5.5980000000   -17.2390000000
  116      H       3.9520000000     5.1410000000   -17.6600000000
  117      C       6.0490000000     4.9780000000   -17.4790000000
  118      H       6.7670000000     5.5210000000   -16.8650000000
  119      C       6.0480000000     3.4890000000   -17.1500000000
  120      H       5.3430000000     2.9810000000   -17.8150000000
  121      H       7.0450000000     3.1000000000   -17.3700000000
  122      C       5.6890000000     3.1520000000   -15.6990000000
  123      H       4.6810000000     3.5300000000   -15.4900000000
  124      C       5.6940000000     1.6340000000   -15.5230000000
  125      H       5.4000000000     1.3680000000   -14.5120000000
  126      H       5.0090000000     1.1520000000   -16.2160000000
  127      H       6.6930000000     1.2410000000   -15.7010000000
  128      C       6.6550000000     3.7930000000   -14.7070000000
  129      H       7.6760000000     3.4820000000   -14.9160000000
  130      H       6.6010000000     4.8760000000   -14.7520000000
  131      H       6.4040000000     3.4860000000   -13.6940000000
  132      H       6.3150000000     5.1200000000   -18.5330000000
  133      H      11.6030000000     6.1150000000   -16.2490000000
  134      C      11.3260000000     6.2350000000   -15.2030000000
  135      H      11.7260000000     7.1830000000   -14.8490000000
  136      C       9.8060000000     6.2000000000   -15.0370000000
  137      H       9.4480000000     5.2220000000   -15.3810000000
  138      C       9.4270000000     6.3640000000   -13.5680000000
  139      H       9.8420000000     5.5550000000   -12.9710000000
  140      H       9.8080000000     7.3030000000   -13.1750000000
  141      H       8.3460000000     6.3570000000   -13.4510000000
  142      C       9.1400000000     7.2790000000   -15.8880000000
  143      H       9.4910000000     8.2660000000   -15.5960000000
  144      H       9.3690000000     7.1330000000   -16.9430000000
  145      H       8.0600000000     7.2640000000   -15.7630000000
  146      H      11.7910000000     5.4360000000   -14.6290000000
  147      H       9.3950000000     3.3260000000    -2.5060000000
  148      C      10.2790000000     2.7510000000    -2.7720000000
  149      H      10.8780000000     2.5970000000    -1.8760000000
  150      C       9.8720000000     1.4110000000    -3.3880000000
  151      H      10.7710000000     0.8460000000    -3.6460000000
  152      H       9.3070000000     0.8350000000    -2.6520000000
  153      C       9.0330000000     1.6250000000    -4.6170000000
  154      C       9.6300000000     1.7850000000    -5.8610000000
  155      H      10.7070000000     1.7250000000    -5.9460000000
  156      C       8.8620000000     2.0120000000    -6.9890000000
  157      H       9.3430000000     2.1270000000    -7.9510000000
  158      C       7.4840000000     2.0890000000    -6.8870000000
  159      H       6.8820000000     2.2680000000    -7.7660000000
  160      C       6.8760000000     1.9340000000    -5.6520000000
  161      H       5.8030000000     1.9940000000    -5.5610000000
  162      C       7.6500000000     1.7050000000    -4.5270000000
  163      H       7.1710000000     1.5840000000    -3.5660000000
  164      H      10.8610000000     3.3330000000    -3.4840000000
  165      H      10.8730000000     5.8050000000    -7.7290000000
  166      C      10.9060000000     6.4830000000    -8.5800000000
  167      H      11.7020000000     6.1640000000    -9.2490000000
  168      C       9.5640000000     6.4870000000    -9.3070000000
  169      H       9.6400000000     7.1690000000   -10.1600000000
  170      C       9.2330000000     5.0920000000    -9.8300000000
  171      H       9.1140000000     4.3980000000    -9.0000000000
  172      H      10.0260000000     4.7260000000   -10.4780000000
  173      H       8.3050000000     5.1090000000   -10.3980000000
  174      C       8.4550000000     6.9720000000    -8.3780000000
  175      H       8.3200000000     6.2780000000    -7.5510000000
  176      H       7.5130000000     7.0500000000    -8.9170000000
  177      H       8.6970000000     7.9500000000    -7.9680000000
  178      H      11.1500000000     7.4790000000    -8.2160000000
  179      H      12.9470000000    10.1070000000   -13.0050000000
  180      C      12.4670000000    10.6840000000   -13.7910000000
  181      H      12.9690000000    10.4740000000   -14.7330000000
  182      C      10.9920000000    10.3180000000   -13.8800000000
  183      H      10.9010000000     9.2590000000   -14.1260000000
  184      H      10.5120000000    10.8920000000   -14.6770000000
  185      C      10.2470000000    10.5870000000   -12.5830000000
  186      H      10.3610000000    11.6280000000   -12.2780000000
  187      H       9.1860000000    10.3530000000   -12.6920000000
  188      S      10.9020000000     9.5500000000   -11.2240000000
  189      C       9.9250000000    10.2420000000    -9.8670000000
  190      H      10.1070000000    11.3120000000    -9.7950000000
  191      H       8.8700000000    10.0450000000   -10.0360000000
  192      H      10.2550000000     9.7480000000    -8.9600000000
  193      H      12.5870000000    11.7420000000   -13.5640000000
  194      H      10.3550000000    11.4590000000    -6.4600000000
  195      C       9.8210000000    10.8330000000    -5.7470000000
  196      H       9.8600000000    11.3210000000    -4.7760000000
  197      C       8.3820000000    10.6200000000    -6.2010000000
  198      H       8.3900000000    10.1990000000    -7.2090000000
  199      H       7.8690000000    11.5830000000    -6.2560000000
  200      C       7.5860000000     9.6820000000    -5.2850000000
  201      H       8.1920000000     8.7890000000    -5.0910000000
  202      C       7.2710000000    10.3520000000    -3.9500000000
  203      H       8.1800000000    10.6680000000    -3.4430000000
  204      H       6.6420000000    11.2260000000    -4.1090000000
  205      H       6.7460000000     9.6630000000    -3.2950000000
  206      C       6.2960000000     9.2500000000    -5.9780000000
  207      H       6.5160000000     8.6600000000    -6.8650000000
  208      H       5.7110000000    10.1150000000    -6.2810000000
  209      H       5.6800000000     8.6480000000    -5.3150000000
  210      H      10.3410000000     9.8800000000    -5.6720000000
  211      H       7.3630000000     6.7060000000    -2.4470000000
  212      C       6.3190000000     6.5040000000    -2.6810000000
  213      H       5.9040000000     7.3750000000    -3.1830000000
  214      C       6.1890000000     5.2770000000    -3.5800000000
  215      H       6.5920000000     4.4060000000    -3.0480000000
  216      C       4.7210000000     5.0170000000    -3.9020000000
  217      H       4.6090000000     4.1100000000    -4.4910000000
  218      H       4.1440000000     4.9020000000    -2.9860000000
  219      H       4.3110000000     5.8550000000    -4.4630000000
  220      C       6.9900000000     5.4710000000    -4.8640000000
  221      H       6.9140000000     4.5900000000    -5.4970000000
  222      H       8.0420000000     5.6400000000    -4.6400000000
  223      H       6.6100000000     6.3280000000    -5.4150000000
  224      H       5.7810000000     6.3570000000    -1.7460000000
  225      H       2.9330000000     2.2030000000    -2.4760000000
  226      C       2.3830000000     1.2670000000    -2.4120000000
  227      H       1.3470000000     1.4590000000    -2.6810000000
  228      C       2.9980000000     0.2430000000    -3.3640000000
  229      H       4.0300000000     0.0380000000    -3.0690000000
  230      H       2.4290000000    -0.6870000000    -3.3560000000
  231      C       3.0170000000     0.7930000000    -4.7770000000
  232      O       3.6360000000     1.7780000000    -5.1000000000
  233      O       2.2900000000     0.0750000000    -5.6060000000
  234      H       2.2430000000     0.4640000000    -6.5400000000
  235      H       2.4190000000     0.9030000000    -1.3880000000
  236      H      -4.2490000000    -1.3470000000    -5.5290000000
  237      C      -3.4340000000    -0.8810000000    -4.9810000000
  238      H      -3.3770000000    -1.3330000000    -3.9920000000
  239      C      -2.1160000000    -1.0560000000    -5.7230000000
  240      H      -1.8760000000    -2.1200000000    -5.8130000000
  241      H      -2.2060000000    -0.6550000000    -6.7340000000
  242      C      -0.9650000000    -0.3680000000    -5.0040000000
  243      H      -0.8690000000    -0.7460000000    -3.9850000000
  244      H      -0.0220000000    -0.5160000000    -5.5290000000
  245      S      -1.2040000000     1.4290000000    -4.8070000000
  246      C      -1.0990000000     1.9600000000    -6.5360000000
  247      H      -2.0100000000     1.6910000000    -7.0640000000
  248      H      -0.2350000000     1.4900000000    -6.9960000000
  249      H      -0.9770000000     3.0380000000    -6.5340000000
  250      H      -3.6560000000     0.1770000000    -4.8580000000
  251      H      -0.9000000000     4.1810000000    -4.1220000000
  252      C       0.0290000000     4.7180000000    -3.9420000000
  253      H       0.3700000000     4.4660000000    -2.9380000000
  254      C       1.0720000000     4.3430000000    -4.9800000000
  255      H       2.0350000000     4.7810000000    -4.7340000000
  256      H       0.7700000000     4.7020000000    -5.9600000000
  257      H       1.1940000000     3.2640000000    -5.0170000000
  258      H      -0.1850000000     5.7840000000    -3.9780000000
  259      H       1.6520000000     9.6660000000    -1.9430000000
  260      C       2.5840000000    10.1780000000    -2.1710000000
  261      H       3.1170000000    10.3630000000    -1.2390000000
  262      C       3.4350000000     9.3340000000    -3.1210000000
  263      H       4.3730000000     9.8590000000    -3.3110000000
  264      H       3.6650000000     8.3810000000    -2.6380000000
  265      C       2.7480000000     9.0690000000    -4.4240000000
  266      C       1.9850000000     7.9790000000    -4.7430000000
  267      H       1.7440000000     7.1330000000    -4.1280000000
  268      N       1.5250000000     8.0640000000    -6.0210000000
  269      H       0.9410000000     7.3790000000    -6.5030000000
  270      C       1.9910000000     9.2160000000    -6.5690000000
  271      C       1.8220000000     9.7310000000    -7.8490000000
  272      H       1.2420000000     9.1920000000    -8.5830000000
  273      C       2.4180000000    10.9390000000    -8.1370000000
  274      H       2.3070000000    11.3720000000    -9.1220000000
  275      C       3.1620000000    11.6300000000    -7.1740000000
  276      H       3.6060000000    12.5800000000    -7.4400000000
  277      C       3.3380000000    11.1250000000    -5.9060000000
  278      H       3.9110000000    11.6710000000    -5.1680000000
  279      C       2.7600000000     9.8950000000    -5.5860000000
  280      H       2.3430000000    11.1350000000    -2.6300000000
 ----------------------------------------------------------------
 Nuclear Repulsion Energy =       26728.80128540 hartrees
 There are      433 alpha and      433 beta electrons
 Requested basis set is 6-31G(d)
 There are 780 shells and 1985 basis functions

 Total QAlloc Memory Limit  64000 MB
 Mega-Array Size      3911 MB
 MEM_STATIC part      4000 MB

 A cutoff of  1.0D-14 yielded  83581 shell pairs
 There are    525630 function pairs
 Smallest overlap matrix eigenvalue = 3.39E-04

 Scale SEOQF with 1.000000e-02/1.000000e-02/1.000000e-03

 Standard Electronic Orientation quadrupole field applied
 Nucleus-field energy     =     0.0000002410 hartrees
 Guess from superposition of atomic densities
 Warning:  Energy on first SCF cycle will be non-variational
 SAD guess density has 865.000003 electrons

 -----------------------------------------------------------------------
  General SCF calculation program by
  Eric Jon Sundstrom, Paul Horn, Yuezhi Mao, Dmitri Zuev, Alec White,
  David Stuck, Shaama M.S., Shane Yost, Joonho Lee, David Small,
  Daniel Levine, Susi Lehtola, Hugh Burton, Evgeny Epifanovsky,
  Bang C. Huynh
 -----------------------------------------------------------------------
=================================================
        Doing projection-based embedding         
      F. Manby et al. JCTC, 8, 2564 (2012)       
=================================================

****************************************************
   Low-level SCF calculation for the whole system   
****************************************************
----------------------------------------------
 Summary of the low-level theory: 
 Exchange:     0.1670 Hartree-Fock + 1.0000 wB97X-V + LR-HF
 Correlation:  1.0000 wB97X-V
 Using Euler-Maclaurin-Lebedev (75,302) quadrature formula
 Nonlocal Correlation:  VV10 with C = 0.0100 and b = 6.00 and scale = 1.00000
 Grid used for NLC:  SG-1 standard quadrature
----------------------------------------------
 using 32 threads for integral computing
 -------------------------------------------------------
 OpenMP Integral computing Module                
 Release: version 1.0, May 2013, Q-Chem Inc. Pittsburgh 
 -------------------------------------------------------
 A restricted SCF calculation will be
 performed using DIIS
 SCF converges when DIIS error is below 1.0e-08
 ---------------------------------------
  Cycle       Energy         DIIS error
 ---------------------------------------
    1   -5374.7590013285      1.75e-02  
    2   -5342.0154287034      1.47e-03  
    3   -5342.3921361715      1.33e-03  
    4   -5343.0173948997      2.42e-04  
    5   -5343.0370461830      1.08e-04  
    6   -5343.0414893620      2.88e-05  
    7   -5343.0418189892      6.51e-06  
    8   -5343.0418459763      1.98e-06  
    9   -5343.0418497053      9.70e-07  
   10   -5343.0418506160      4.08e-07  
   11   -5343.0418508078      1.90e-07  
   12   -5343.0418508586      7.37e-08  
   13   -5343.0418508658      2.98e-08  
   14   -5343.0418508673      1.14e-08  
   15   -5343.0418508675      5.06e-09  Convergence criterion met
 ---------------------------------------
 SCF time:   CPU 54029.86s  wall 1794.00s 
 SCF   energy in the final basis set =    -5343.0418508675
 Total energy in the final basis set =    -5343.0418508675

****************************************************
             Start embedding calculation            
****************************************************
----------------------------------------------
 Summary of the high-level theory: 
 Exchange:     0.1670 Hartree-Fock + 1.0000 wB97X-V + LR-HF
 Correlation:  1.0000 wB97X-V
 Using Euler-Maclaurin-Lebedev (75,302) quadrature formula
 Nonlocal Correlation:  VV10 with C = 0.0100 and b = 6.00 and scale = 1.00000
 Grid used for NLC:  SG-1 standard quadrature
----------------------------------------------
Doing R-in-R Embedding Calculation
Number of fragments: 2
Embedded fragment(s): 1 
NOcc for each fragment
           75
          358
NBasis for each fragment
          352
         1633
Variational space of the embedded problem: 
NOcc (active)  = 75
NOcc (fixed)   = 358
NVir (total)   = 1552
Read converged orbitals from disk
=========================================================
       Doing SPADE partition for the orbital space       
     D. Claudino and N. Mayhall JCTC 15, 1053 (2019)     
=========================================================
SPADE singular values:
 1.0000 1.0000 1.0000 1.0000 1.0000 1.0000 1.0000 1.0000 1.0000 1.0000
 1.0000 1.0000 1.0000 1.0000 1.0000 1.0000 1.0000 1.0000 1.0000 1.0000
 1.0000 1.0000 1.0000 1.0000 1.0000 1.0000 1.0000 1.0000 1.0000 1.0000
 1.0000 1.0000 1.0000 1.0000 1.0000 1.0000 1.0000 1.0000 1.0000 1.0000
 1.0000 1.0000 1.0000 1.0000 1.0000 1.0000 0.9999 0.9999 0.9999 0.9999
 0.9999 0.9998 0.9998 0.9998 0.9997 0.9997 0.9996 0.9995 0.9995 0.9993
 0.9993 0.9992 0.9991 0.9990 0.9989 0.9985 0.9984 0.9983 0.9980 0.9977
 0.9977 0.9974 0.9964 0.9731 0.9684 0.2089 0.1606 0.1521 0.1149 0.0752
 0.0693 0.0677 0.0666 0.0631 0.0629 0.0578 0.0561 0.0500 0.0459 0.0455
 0.0441 0.0366 0.0348 0.0341 0.0331 0.0325 0.0318 0.0286 0.0269 0.0222
 0.0202 0.0187 0.0178 0.0163 0.0160 0.0148 0.0146 0.0141 0.0136 0.0133
 0.0106 0.0104 0.0094 0.0092 0.0088 0.0076 0.0075 0.0074 0.0069 0.0065
 0.0061 0.0055 0.0051 0.0047 0.0043 0.0041 0.0038 0.0037 0.0035 0.0035
 0.0033 0.0030 0.0029 0.0028 0.0027 0.0025 0.0024 0.0023 0.0022 0.0021
 0.0020 0.0019 0.0019 0.0017 0.0016 0.0015 0.0014 0.0014 0.0013 0.0012
 0.0012 0.0011 0.0011 0.0011 0.0010 0.0010 0.0010 0.0009 0.0009 0.0008
 0.0008 0.0008 0.0008 0.0007 0.0007 0.0007 0.0007 0.0006 0.0006 0.0006
 0.0006 0.0006 0.0006 0.0005 0.0005 0.0005 0.0005 0.0005 0.0005 0.0005
 0.0005 0.0004 0.0004 0.0004 0.0004 0.0004 0.0004 0.0004 0.0004 0.0004
 0.0003 0.0003 0.0003 0.0003 0.0003 0.0003 0.0003 0.0003 0.0003 0.0003
 0.0003 0.0003 0.0003 0.0002 0.0002 0.0002 0.0002 0.0002 0.0002 0.0002
 0.0002 0.0002 0.0002 0.0002 0.0002 0.0002 0.0002 0.0002 0.0002 0.0001
 0.0001 0.0001 0.0001 0.0001 0.0001 0.0001 0.0001 0.0001 0.0001 0.0001
 0.0001 0.0001 0.0001 0.0001 0.0001 0.0001 0.0001 0.0001 0.0001 0.0001
 0.0001 0.0001 0.0001 0.0001 0.0001 0.0001 0.0001 0.0001 0.0001 0.0001
 0.0000 0.0000 0.0000 0.0000 0.0000 0.0000 0.0000 0.0000 0.0000 0.0000
 0.0000 0.0000 0.0000 0.0000 0.0000 0.0000 0.0000 0.0000 0.0000 0.0000
 0.0000 0.0000 0.0000 0.0000 0.0000 0.0000 0.0000 0.0000 0.0000 0.0000
 0.0000 0.0000 0.0000 0.0000 0.0000 0.0000 0.0000 0.0000 0.0000 0.0000
 0.0000 0.0000 0.0000 0.0000 0.0000 0.0000 0.0000 0.0000 0.0000 0.0000
 0.0000 0.0000 0.0000 0.0000 0.0000 0.0000 0.0000 0.0000 0.0000 0.0000
 0.0000 0.0000 0.0000 0.0000 0.0000 0.0000 0.0000 0.0000 0.0000 0.0000
 0.0000 0.0000 0.0000 0.0000 0.0000 0.0000 0.0000 0.0000 0.0000 0.0000
 0.0000 0.0000 0.0000 0.0000 0.0000 0.0000 0.0000 0.0000 0.0000 0.0000
 0.0000 0.0000 0.0000 0.0000 0.0000 0.0000 0.0000 0.0000 0.0000 0.0000
 0.0000 0.0000
Early stop requested; no embedded SCF will be performed

 358 environment occs will be part of frozen-core in future post-HF calculations
 
 --------------------------------------------------------------
 
                    Orbital Energies (a.u.)
 --------------------------------------------------------------
 
 Alpha MOs
 -- Occupied --
-88.8073 -88.7881 -19.1924 -19.1910 -19.1762 -19.1610 -19.1443 -19.0608
-19.0501 -14.4129 -14.3570 -10.3486 -10.3389 -10.2785 -10.2733 -10.2732
-10.2514 -10.2498 -10.2463 -10.2426 -10.2382 -10.2359 -10.2319 -10.2313
-10.2284 -10.2252 -10.2250 -10.2236 -10.2230 -10.2228 -10.2225 -10.2220
-10.2212 -10.2206 -10.2202 -10.2202 -10.2193 -10.2191 -10.2174 -10.2173
-10.2170 -10.2159 -10.2155 -10.2155 -10.2153 -10.2145 -10.2139 -10.2139
-10.2137 -10.2135 -10.2127 -10.2121 -10.2117 -10.2111 -10.2099 -10.2099
-10.2097 -10.2097 -10.2084 -10.2075 -10.2074 -10.2066 -10.2063 -10.2043
-10.2031 -10.2026 -10.2014 -10.2007 -10.2002 -10.1995 -10.1986 -10.1969
-10.1968 -10.1931 -10.1931 -10.1925 -10.1910 -10.1903 -10.1897 -10.1880
-10.1829 -10.1813 -10.1803 -10.1787 -10.1775 -10.1741 -10.1673 -10.1654
-10.1605  -7.9737  -7.9542  -5.9317  -5.9276  -5.9202  -5.9123  -5.9080
 -5.9008  -1.1574  -1.1300  -1.1214  -1.1070  -1.0632  -1.0429  -1.0181
 -1.0145  -0.9473  -0.9316  -0.9312  -0.9294  -0.9038  -0.8981  -0.8869
 -0.8808  -0.8807  -0.8793  -0.8786  -0.8710  -0.8620  -0.8606  -0.8606
 -0.8601  -0.8511  -0.8491  -0.8456  -0.8425  -0.8194  -0.8180  -0.8153
 -0.8097  -0.8053  -0.8002  -0.7975  -0.7914  -0.7905  -0.7880  -0.7860
 -0.7852  -0.7727  -0.7662  -0.7634  -0.7553  -0.7542  -0.7518  -0.7511
 -0.7498  -0.7491  -0.7457  -0.7431  -0.7386  -0.7348  -0.7290  -0.7212
 -0.7192  -0.7012  -0.6997  -0.6982  -0.6931  -0.6830  -0.6803  -0.6801
 -0.6755  -0.6744  -0.6662  -0.6614  -0.6526  -0.6506  -0.6429  -0.6415
 -0.6387  -0.6382  -0.6377  -0.6354  -0.6323  -0.6223  -0.6209  -0.6196
 -0.6126  -0.6120  -0.6092  -0.6019  -0.5948  -0.5895  -0.5836  -0.5678
 -0.5636  -0.5595  -0.5485  -0.5449  -0.5402  -0.5394  -0.5370  -0.5332
 -0.5288  -0.5252  -0.5244  -0.5215  -0.5201  -0.5198  -0.5193  -0.5183
 -0.5167  -0.5139  -0.5111  -0.5099  -0.5081  -0.5079  -0.5030  -0.5020
 -0.5011  -0.5002  -0.4976  -0.4952  -0.4931  -0.4927  -0.4899  -0.4894
 -0.4859  -0.4845  -0.4840  -0.4834  -0.4829  -0.4809  -0.4799  -0.4795
 -0.4775  -0.4765  -0.4751  -0.4742  -0.4732  -0.4731  -0.4713  -0.4688
 -0.4679  -0.4675  -0.4649  -0.4648  -0.4641  -0.4637  -0.4623  -0.4604
 -0.4592  -0.4589  -0.4581  -0.4575  -0.4565  -0.4550  -0.4543  -0.4507
 -0.4500  -0.4488  -0.4484  -0.4443  -0.4425  -0.4419  -0.4412  -0.4410
 -0.4391  -0.4374  -0.4351  -0.4345  -0.4343  -0.4332  -0.4318  -0.4308
 -0.4286  -0.4278  -0.4266  -0.4262  -0.4249  -0.4224  -0.4219  -0.4200
 -0.4182  -0.4166  -0.4152  -0.4131  -0.4125  -0.4090  -0.4086  -0.4068
 -0.4049  -0.4043  -0.4024  -0.4007  -0.4004  -0.3988  -0.3985  -0.3975
 -0.3963  -0.3961  -0.3954  -0.3937  -0.3933  -0.3908  -0.3906  -0.3874
 -0.3853  -0.3848  -0.3816  -0.3811  -0.3804  -0.3799  -0.3785  -0.3782
 -0.3770  -0.3764  -0.3747  -0.3744  -0.3724  -0.3713  -0.3699  -0.3681
 -0.3662  -0.3657  -0.3654  -0.3650  -0.3649  -0.3645  -0.3637  -0.3623
 -0.3622  -0.3605  -0.3579  -0.3574  -0.3572  -0.3561  -0.3548  -0.3545
 -0.3529  -0.3473  -0.3467  -0.3455  -0.3451  -0.3442  -0.3410  -0.3403
 -0.3372  -0.3356  -0.3346  -0.3308  -0.3186  -0.3182  -0.3109  -0.3015
 -0.2820  -0.2808  -0.2803  -0.2743  -0.2649  -0.2575  -0.2398  -0.2396
 -0.2351  -0.2328  -0.2274  -0.2156  -0.2143  -0.1914 -10.2550 -11.0139
-10.6218 -11.7927 -10.0942 -13.1248 -12.1300 -10.0264  -9.9553  -9.8564
-10.0356  -9.9793  -9.7557  -9.6611  -9.7541  -9.8289  -9.4962  -2.9308
 -6.0417  -2.7617  -2.8714  -8.4259  -2.2429  -1.0057  -1.4907  -1.2313
 -0.7924  -0.9264  -1.0028  -1.5651  -3.6597 -12.4297  -0.6573  -0.8917
 -0.9404  -0.6093  -1.0191  -1.1233  -0.8442  -0.5249  -0.7636  -0.7819
 -0.6158  -0.4937  -0.5068  -0.5849  -0.5953  -0.4537  -0.5533  -0.4562
 -0.4197  -0.4542  -0.4114  -0.4102  -1.6162  -0.4773  -0.4934  -0.4388
 -0.4450  -0.4255  -0.4440  -0.4551  -0.4181  -0.4277  -0.4742  -0.3989
 -0.4108  -0.4363  -0.3841  -0.3922  -0.4023  -0.4013  -0.4032  -0.6255
 -0.4001
 -- Virtual --
  0.0971   0.1458   0.1486   0.1506   0.1523   0.1598   0.1607   0.1627
  0.1643   0.1731   0.1747   0.1821   0.1838   0.1952   0.2014   0.2060
  0.2067   0.2116   0.2153   0.2186   0.2210   0.2224   0.2251   0.2271
  0.2301   0.2324   0.2369   0.2382   0.2388   0.2408   0.2430   0.2443
  0.2459   0.2486   0.2506   0.2527   0.2540   0.2551   0.2562   0.2571
  0.2588   0.2605   0.2621   0.2630   0.2636   0.2669   0.2691   0.2697
  0.2702   0.2714   0.2725   0.2741   0.2748   0.2756   0.2764   0.2787
  0.2797   0.2802   0.2833   0.2834   0.2852   0.2862   0.2873   0.2882
  0.2902   0.2915   0.2916   0.2922   0.2944   0.2948   0.2955   0.2968
  0.2979   0.2988   0.2994   0.2998   0.3012   0.3014   0.3028   0.3033
  0.3043   0.3058   0.3081   0.3087   0.3091   0.3100   0.3106   0.3114
  0.3137   0.3145   0.3159   0.3169   0.3169   0.3177   0.3188   0.3200
  0.3209   0.3216   0.3225   0.3230   0.3236   0.3242   0.3258   0.3265
  0.3271   0.3288   0.3295   0.3298   0.3307   0.3315   0.3326   0.3333
  0.3338   0.3352   0.3361   0.3363   0.3368   0.3382   0.3401   0.3404
  0.3408   0.3411   0.3423   0.3432   0.3446   0.3447   0.3458   0.3462
  0.3468   0.3485   0.3496   0.3497   0.3502   0.3506   0.3526   0.3535
  0.3539   0.3555   0.3559   0.3563   0.3572   0.3580   0.3592   0.3599
  0.3612   0.3622   0.3632   0.3634   0.3653   0.3661   0.3678   0.3704
  0.3704   0.3717   0.3727   0.3742   0.3749   0.3756   0.3768   0.3774
  0.3780   0.3811   0.3812   0.3817   0.3837   0.3843   0.3855   0.3862
  0.3871   0.3884   0.3891   0.3895   0.3900   0.3914   0.3927   0.3938
  0.3943   0.3954   0.3958   0.3971   0.3985   0.3997   0.4003   0.4007
  0.4015   0.4029   0.4041   0.4056   0.4077   0.4083   0.4090   0.4091
  0.4101   0.4112   0.4115   0.4126   0.4137   0.4158   0.4165   0.4172
  0.4181   0.4192   0.4201   0.4209   0.4213   0.4220   0.4232   0.4243
  0.4251   0.4260   0.4281   0.4300   0.4305   0.4322   0.4335   0.4353
  0.4372   0.4382   0.4388   0.4401   0.4420   0.4444   0.4465   0.4490
  0.4494   0.4498   0.4510   0.4522   0.4534   0.4550   0.4567   0.4593
  0.4604   0.4623   0.4644   0.4659   0.4673   0.4685   0.4735   0.4749
  0.4762   0.4783   0.4810   0.4828   0.4832   0.4851   0.4887   0.4920
  0.4929   0.4950   0.4970   0.4980   0.5008   0.5034   0.5059   0.5075
  0.5102   0.5123   0.5146   0.5172   0.5192   0.5217   0.5242   0.5281
  0.5297   0.5345   0.5365   0.5386   0.5406   0.5441   0.5457   0.5477
  0.5538   0.5558   0.5611   0.5632   0.5643   0.5731   0.5812   0.5872
  0.5984   0.6039   0.6067   0.6097   0.6144   0.6267   0.6285   0.6335
  0.6355   0.6381   0.6396   0.6422   0.6447   0.6494   0.6519   0.6532
  0.6550   0.6564   0.6578   0.6584   0.6597   0.6626   0.6637   0.6643
  0.6688   0.6692   0.6712   0.6740   0.6765   0.6777   0.6786   0.6795
  0.6817   0.6828   0.6834   0.6848   0.6871   0.6883   0.6894   0.6908
  0.6915   0.6931   0.6954   0.6957   0.6967   0.6979   0.6984   0.7010
  0.7027   0.7035   0.7045   0.7057   0.7061   0.7068   0.7084   0.7103
  0.7109   0.7120   0.7144   0.7153   0.7165   0.7177   0.7204   0.7216
  0.7229   0.7238   0.7251   0.7262   0.7279   0.7289   0.7298   0.7320
  0.7329   0.7342   0.7354   0.7366   0.7389   0.7404   0.7412   0.7433
  0.7439   0.7453   0.7479   0.7487   0.7491   0.7514   0.7527   0.7534
  0.7546   0.7560   0.7571   0.7585   0.7594   0.7619   0.7624   0.7636
  0.7643   0.7657   0.7672   0.7690   0.7707   0.7711   0.7726   0.7741
  0.7752   0.7768   0.7773   0.7788   0.7805   0.7821   0.7856   0.7861
  0.7867   0.7888   0.7898   0.7902   0.7919   0.7931   0.7937   0.7945
  0.7960   0.7971   0.7982   0.7993   0.8003   0.8024   0.8041   0.8049
  0.8068   0.8086   0.8097   0.8111   0.8126   0.8146   0.8158   0.8166
  0.8184   0.8233   0.8238   0.8247   0.8279   0.8291   0.8292   0.8300
  0.8323   0.8329   0.8341   0.8362   0.8370   0.8381   0.8389   0.8391
  0.8408   0.8423   0.8429   0.8434   0.8453   0.8459   0.8472   0.8498
  0.8506   0.8528   0.8535   0.8551   0.8559   0.8568   0.8585   0.8603
  0.8620   0.8635   0.8659   0.8669   0.8680   0.8704   0.8712   0.8715
  0.8743   0.8762   0.8773   0.8789   0.8819   0.8831   0.8858   0.8867
  0.8896   0.8911   0.8918   0.8936   0.8951   0.8963   0.8978   0.8981
  0.8997   0.9006   0.9012   0.9022   0.9026   0.9033   0.9045   0.9047
  0.9065   0.9083   0.9102   0.9126   0.9129   0.9149   0.9160   0.9172
  0.9186   0.9197   0.9210   0.9227   0.9256   0.9265   0.9274   0.9290
  0.9316   0.9338   0.9356   0.9362   0.9373   0.9424   0.9433   0.9465
  0.9469   0.9484   0.9496   0.9506   0.9518   0.9532   0.9554   0.9576
  0.9591   0.9616   0.9623   0.9657   0.9682   0.9699   0.9704   0.9730
  0.9740   0.9756   0.9794   0.9801   0.9807   0.9889   0.9891   0.9926
  0.9955   0.9976   0.9982   0.9998   1.0022   1.0046   1.0057   1.0072
  1.0073   1.0086   1.0089   1.0099   1.0106   1.0128   1.0142   1.0157
  1.0162   1.0174   1.0205   1.0215   1.0239   1.0245   1.0263   1.0274
  1.0281   1.0293   1.0310   1.0318   1.0321   1.0334   1.0345   1.0360
  1.0365   1.0381   1.0397   1.0406   1.0411   1.0424   1.0438   1.0453
  1.0479   1.0484   1.0511   1.0537   1.0545   1.0571   1.0578   1.0585
  1.0591   1.0614   1.0623   1.0628   1.0647   1.0654   1.0663   1.0676
  1.0681   1.0687   1.0708   1.0717   1.0724   1.0729   1.0735   1.0738
  1.0754   1.0757   1.0769   1.0789   1.0806   1.0816   1.0828   1.0832
  1.0840   1.0862   1.0868   1.0880   1.0887   1.0900   1.0916   1.0922
  1.0929   1.0943   1.0949   1.0950   1.0965   1.0969   1.0991   1.1000
  1.1000   1.1011   1.1017   1.1025   1.1042   1.1052   1.1057   1.1066
  1.1076   1.1095   1.1100   1.1115   1.1131   1.1136   1.1144   1.1157
  1.1175   1.1189   1.1196   1.1201   1.1208   1.1217   1.1230   1.1239
  1.1246   1.1261   1.1268   1.1278   1.1281   1.1308   1.1311   1.1322
  1.1341   1.1343   1.1356   1.1369   1.1375   1.1396   1.1404   1.1431
  1.1450   1.1456   1.1467   1.1469   1.1480   1.1489   1.1503   1.1509
  1.1516   1.1527   1.1553   1.1558   1.1582   1.1599   1.1605   1.1617
  1.1632   1.1648   1.1655   1.1675   1.1687   1.1698   1.1709   1.1719
  1.1730   1.1755   1.1766   1.1774   1.1791   1.1796   1.1806   1.1816
  1.1837   1.1841   1.1858   1.1864   1.1877   1.1889   1.1900   1.1911
  1.1917   1.1949   1.1961   1.1964   1.1987   1.1998   1.2003   1.2037
  1.2053   1.2063   1.2075   1.2108   1.2129   1.2140   1.2155   1.2164
  1.2182   1.2206   1.2224   1.2233   1.2241   1.2263   1.2275   1.2297
  1.2314   1.2331   1.2354   1.2374   1.2385   1.2399   1.2410   1.2425
  1.2441   1.2484   1.2503   1.2528   1.2541   1.2573   1.2589   1.2609
  1.2617   1.2646   1.2665   1.2691   1.2725   1.2749   1.2753   1.2783
  1.2802   1.2843   1.2847   1.2849   1.2876   1.2910   1.2925   1.2954
  1.2980   1.2993   1.3017   1.3033   1.3054   1.3094   1.3144   1.3160
  1.3177   1.3210   1.3223   1.3254   1.3278   1.3298   1.3341   1.3350
  1.3409   1.3440   1.3474   1.3505   1.3507   1.3535   1.3542   1.3609
  1.3626   1.3637   1.3684   1.3705   1.3727   1.3742   1.3763   1.3784
  1.3797   1.3815   1.3834   1.3854   1.3915   1.3953   1.3965   1.3996
  1.4012   1.4040   1.4092   1.4104   1.4118   1.4142   1.4173   1.4201
  1.4227   1.4244   1.4281   1.4323   1.4341   1.4353   1.4393   1.4420
  1.4450   1.4496   1.4583   1.4606   1.4621   1.4661   1.4679   1.4718
  1.4753   1.4807   1.4831   1.4856   1.4913   1.4991   1.5038   1.5068
  1.5096   1.5140   1.5181   1.5203   1.5253   1.5280   1.5321   1.5342
  1.5364   1.5405   1.5432   1.5445   1.5462   1.5487   1.5527   1.5579
  1.5647   1.5674   1.5687   1.5697   1.5740   1.5777   1.5849   1.5873
  1.5884   1.5915   1.5939   1.5945   1.5984   1.6001   1.6001   1.6017
  1.6030   1.6055   1.6091   1.6097   1.6107   1.6116   1.6124   1.6151
  1.6165   1.6176   1.6183   1.6204   1.6256   1.6276   1.6278   1.6288
  1.6316   1.6332   1.6346   1.6364   1.6384   1.6391   1.6412   1.6427
  1.6453   1.6479   1.6492   1.6494   1.6517   1.6531   1.6545   1.6563
  1.6572   1.6595   1.6597   1.6633   1.6655   1.6679   1.6688   1.6700
  1.6752   1.6771   1.6821   1.6835   1.6857   1.6867   1.6881   1.6887
  1.6907   1.6924   1.6928   1.6983   1.6989   1.7022   1.7034   1.7084
  1.7103   1.7118   1.7220   1.7259   1.7274   1.7294   1.7386   1.7397
  1.7437   1.7508   1.7549   1.7581   1.7606   1.7644   1.7651   1.7752
  1.7788   1.7826   1.7847   1.7874   1.7950   1.7976   1.7998   1.8061
  1.8133   1.8164   1.8203   1.8225   1.8308   1.8314   1.8347   1.8372
  1.8389   1.8514   1.8542   1.8595   1.8622   1.8702   1.8751   1.8810
  1.8812   1.8853   1.8863   1.8874   1.8905   1.8924   1.8952   1.8955
  1.8966   1.8995   1.9014   1.9033   1.9064   1.9067   1.9074   1.9084
  1.9100   1.9133   1.9144   1.9153   1.9170   1.9202   1.9218   1.9279
  1.9295   1.9306   1.9329   1.9377   1.9397   1.9416   1.9432   1.9480
  1.9516   1.9526   1.9557   1.9608   1.9611   1.9627   1.9653   1.9673
  1.9725   1.9738   1.9742   1.9748   1.9774   1.9822   1.9834   1.9881
  1.9912   1.9918   1.9932   1.9957   1.9991   2.0001   2.0020   2.0056
  2.0065   2.0075   2.0102   2.0110   2.0138   2.0139   2.0159   2.0187
  2.0214   2.0265   2.0309   2.0352   2.0404   2.0456   2.0480   2.0503
  2.0518   2.0519   2.0583   2.0594   2.0649   2.0675   2.0687   2.0721
  2.0746   2.0752   2.0775   2.0779   2.0800   2.0829   2.0854   2.0869
  2.0898   2.0956   2.0965   2.0981   2.0990   2.1017   2.1048   2.1087
  2.1091   2.1130   2.1176   2.1188   2.1196   2.1201   2.1210   2.1239
  2.1241   2.1253   2.1273   2.1305   2.1322   2.1329   2.1347   2.1367
  2.1379   2.1390   2.1400   2.1406   2.1416   2.1440   2.1459   2.1483
  2.1491   2.1510   2.1519   2.1531   2.1546   2.1552   2.1567   2.1581
  2.1595   2.1624   2.1651   2.1660   2.1677   2.1693   2.1708   2.1751
  2.1768   2.1775   2.1793   2.1806   2.1822   2.1826   2.1829   2.1862
  2.1877   2.1901   2.1906   2.1954   2.1958   2.1993   2.2017   2.2035
  2.2058   2.2074   2.2095   2.2103   2.2111   2.2130   2.2146   2.2184
  2.2192   2.2228   2.2237   2.2272   2.2291   2.2301   2.2311   2.2337
  2.2344   2.2376   2.2404   2.2439   2.2444   2.2472   2.2522   2.2552
  2.2584   2.2601   2.2612   2.2626   2.2682   2.2696   2.2714   2.2721
  2.2734   2.2761   2.2768   2.2830   2.2860   2.2869   2.2885   2.2909
  2.2937   2.2970   2.2975   2.2989   2.3004   2.3028   2.3091   2.3098
  2.3143   2.3156   2.3167   2.3179   2.3203   2.3209   2.3254   2.3315
  2.3328   2.3332   2.3337   2.3355   2.3372   2.3380   2.3391   2.3409
  2.3433   2.3500   2.3531   2.3533   2.3557   2.3559   2.3570   2.3641
  2.3677   2.3722   2.3742   2.3765   2.3813   2.3826   2.3855   2.3856
  2.3892   2.3952   2.3993   2.4006   2.4012   2.4027   2.4106   2.4130
  2.4136   2.4194   2.4217   2.4287   2.4308   2.4317   2.4334   2.4342
  2.4350   2.4355   2.4362   2.4367   2.4388   2.4395   2.4420   2.4425
  2.4445   2.4463   2.4475   2.4487   2.4501   2.4508   2.4521   2.4540
  2.4553   2.4601   2.4608   2.4626   2.4632   2.4642   2.4660   2.4672
  2.4703   2.4711   2.4725   2.4740   2.4745   2.4758   2.4775   2.4799
  2.4812   2.4825   2.4828   2.4861   2.4894   2.4915   2.4935   2.4951
  2.4966   2.4979   2.4987   2.4992   2.5037   2.5038   2.5048   2.5057
  2.5078   2.5108   2.5128   2.5141   2.5184   2.5224   2.5227   2.5251
  2.5255   2.5263   2.5296   2.5342   2.5362   2.5371   2.5382   2.5411
  2.5427   2.5436   2.5450   2.5496   2.5519   2.5536   2.5538   2.5603
  2.5652   2.5658   2.5678   2.5701   2.5745   2.5805   2.5846   2.5911
  2.5924   2.5956   2.5990   2.6019   2.6095   2.6155   2.6176   2.6209
  2.6216   2.6246   2.6273   2.6309   2.6361   2.6372   2.6391   2.6491
  2.6560   2.6622   2.6677   2.6692   2.6701   2.6753   2.6828   2.6837
  2.6853   2.6888   2.6898   2.6930   2.6941   2.6971   2.7001   2.7015
  2.7033   2.7045   2.7072   2.7082   2.7100   2.7122   2.7153   2.7168
  2.7214   2.7286   2.7291   2.7297   2.7411   2.7453   2.7519   2.7529
  2.7559   2.7583   2.7605   2.7641   2.7660   2.7747   2.7761   2.7803
  2.7817   2.7834   2.7877   2.7913   2.7924   2.7968   2.8036   2.8050
  2.8116   2.8126   2.8162   2.8233   2.8244   2.8287   2.8355   2.8376
  2.8403   2.8435   2.8524   2.8569   2.8589   2.8623   2.8628   2.8640
  2.8684   2.8701   2.8726   2.8765   2.8811   2.8829   2.8854   2.8867
  2.8878   2.8969   2.8976   2.8989   2.9000   2.9048   2.9058   2.9161
  2.9186   2.9261   2.9271   2.9289   2.9291   2.9339   2.9349   2.9363
  2.9364   2.9432   2.9489   2.9534   2.9546   2.9566   2.9567   2.9638
  2.9731   2.9745   2.9749   2.9772   2.9907   2.9953   2.9975   3.0051
  3.0104   3.0306   3.0379   3.0563   3.0636   3.0676   3.0810   3.0880
  3.0906   3.0937   3.0946   3.0956   3.1015   3.1151   3.1304   3.1308
  3.1384   3.1544   3.1657   3.1723   3.1922   3.2117   3.2219   3.2284
  3.2458   3.2494   3.2569   3.2592   3.2787   3.2910   3.3091   3.3133
  3.3311   3.3318   3.3350   3.3873   3.3971   3.4099   3.4849   3.6335
  3.6380   3.6432   3.6877   4.1328   4.1449   4.1494   4.1988   4.2128
  4.2557   4.2916   4.2973   4.3134   4.3219   4.3230   4.3272   4.3338
  4.3340   4.3392   4.3403   4.3412   4.3435   4.3489   4.3517   4.3657
  4.3682   4.3685   4.3744   4.3753   4.3797   4.3836   4.3917   4.3926
  4.3929   4.3942   4.3975   4.3978   4.4100   4.4198   4.4331   4.4375
  4.4394   4.4502   4.4613   4.4631   4.4659   4.4754   4.4792   4.4827
  4.4880   4.4907   4.5019   4.5045   4.5073   4.5096   4.5151   4.5208
  4.5262   4.5332   4.5358   4.5380   4.5412   4.5436   4.5512   4.5559
  4.5591   4.5611   4.5677   4.5700   4.5754   4.5822   4.5852   4.5926
  4.6061   4.6222   4.6239   4.6279   4.6297   4.6363   4.6427   4.6505
  4.6544   4.6691   4.6756   4.6818   4.6898   4.6924   4.6930   4.7070
  4.7126   4.7197   4.7243   4.7288   4.7567   4.7599   4.7815   4.7937
  4.7944   4.7965   4.8089   4.8174   4.8280   4.8401   4.8606   4.9169
  4.9207   4.9516   4.9683   4.9754   5.0007   5.0391   5.0418   5.0666
 --------------------------------------------------------------
 
          Ground-State Mulliken Net Atomic Charges

     Atom                 Charge (a.u.)
  ----------------------------------------
      1 C                     0.481029
      2 O                    -0.643475
      3 C                    -0.295194
      4 C                     0.181330
      5 C                    -0.230458
      6 C                    -0.316100
      7 C                    -0.391470
      8 C                    -0.395993
      9 C                    -0.295704
     10 C                    -0.137132
     11 C                    -0.125268
     12 C                    -0.130063
     13 C                    -0.019976
     14 C                    -0.291194
     15 C                    -0.303884
     16 C                    -0.311714
     17 C                    -0.336961
     18 C                     0.143439
     19 C                    -0.473915
     20 O                    -0.682697
     21 H                     0.210819
     22 H                     0.282252
     23 H                     0.137996
     24 H                     0.169754
     25 H                     0.212342
     26 H                     0.170430
     27 H                     0.164200
     28 H                     0.247758
     29 H                     0.130756
     30 H                     0.175114
     31 H                     0.172467
     32 H                     0.115888
     33 H                     0.123639
     34 H                     0.131744
     35 H                     0.129522
     36 H                     0.161245
     37 H                     0.133932
     38 H                     0.151431
     39 H                     0.167674
     40 H                     0.145718
     41 H                     0.161376
     42 H                     0.114182
     43 H                     0.157705
     44 H                     0.139514
     45 H                     0.174839
     46 H                     0.427392
     47 H                     0.143392
     48 C                    -0.458539
     49 H                     0.160048
     50 C                    -0.347213
     51 H                     0.149961
     52 H                     0.150654
     53 C                     0.105063
     54 C                    -0.193121
     55 H                     0.141862
     56 C                    -0.208705
     57 H                     0.167228
     58 C                     0.352851
     59 O                    -0.745311
     60 H                     0.478981
     61 C                    -0.218803
     62 H                     0.170474
     63 C                    -0.201622
     64 H                     0.148012
     65 H                     0.162073
     66 H                     0.144415
     67 C                    -0.456821
     68 H                     0.146370
     69 C                    -0.121956
     70 H                     0.141930
     71 C                    -0.463934
     72 H                     0.147431
     73 H                     0.152600
     74 H                     0.165645
     75 C                    -0.461337
     76 H                     0.169786
     77 H                     0.140023
     78 H                     0.144455
     79 H                     0.149333
     80 H                     0.122365
     81 C                    -0.456556
     82 H                     0.161956
     83 C                    -0.363431
     84 H                     0.142949
     85 H                     0.135365
     86 C                     0.556893
     87 O                    -0.587929
     88 O                    -0.582505
     89 H                     0.143819
     90 H                     0.161889
     91 C                    -0.455176
     92 H                     0.166528
     93 C                    -0.357278
     94 H                     0.147221
     95 H                     0.150963
     96 C                     0.105477
     97 C                    -0.190111
     98 H                     0.135660
     99 C                    -0.192837
    100 H                     0.151939
    101 C                     0.336667
    102 O                    -0.694977
    103 H                     0.470118
    104 C                    -0.234119
    105 H                     0.170849
    106 C                    -0.197891
    107 H                     0.146307
    108 H                     0.128861
    109 H                     0.203930
    110 C                    -0.568371
    111 H                     0.213327
    112 H                     0.168858
    113 C                     0.584118
    114 O                    -0.505670
    115 N                    -0.607061
    116 H                     0.336000
    117 C                    -0.158780
    118 H                     0.214211
    119 C                    -0.298256
    120 H                     0.137748
    121 H                     0.152672
    122 C                    -0.124707
    123 H                     0.143402
    124 C                    -0.471822
    125 H                     0.171072
    126 H                     0.154077
    127 H                     0.148442
    128 C                    -0.479690
    129 H                     0.147529
    130 H                     0.180263
    131 H                     0.163467
    132 H                     0.159582
    133 H                     0.140914
    134 C                    -0.459465
    135 H                     0.150708
    136 C                    -0.122461
    137 H                     0.129512
    138 C                    -0.476433
    139 H                     0.149077
    140 H                     0.170156
    141 H                     0.165631
    142 C                    -0.483107
    143 H                     0.149403
    144 H                     0.133284
    145 H                     0.188098
    146 H                     0.148782
    147 H                     0.166019
    148 C                    -0.458337
    149 H                     0.145332
    150 C                    -0.347539
    151 H                     0.149684
    152 H                     0.152447
    153 C                     0.115516
    154 C                    -0.195535
    155 H                     0.135944
    156 C                    -0.154313
    157 H                     0.151560
    158 C                    -0.168410
    159 H                     0.158794
    160 C                    -0.179601
    161 H                     0.220277
    162 C                    -0.200160
    163 H                     0.140740
    164 H                     0.158403
    165 H                     0.146756
    166 C                    -0.455104
    167 H                     0.147820
    168 C                    -0.136038
    169 H                     0.169366
    170 C                    -0.460201
    171 H                     0.149629
    172 H                     0.142939
    173 H                     0.151614
    174 C                    -0.480589
    175 H                     0.164056
    176 H                     0.168028
    177 H                     0.143457
    178 H                     0.140841
    179 H                     0.182722
    180 C                    -0.468346
    181 H                     0.150326
    182 C                    -0.317733
    183 H                     0.177887
    184 H                     0.160944
    185 C                    -0.431818
    186 H                     0.167678
    187 H                     0.202713
    188 S                     0.071613
    189 C                    -0.630137
    190 H                     0.181534
    191 H                     0.208742
    192 H                     0.199262
    193 H                     0.147835
    194 H                     0.144619
    195 C                    -0.470108
    196 H                     0.149999
    197 C                    -0.280776
    198 H                     0.146094
    199 H                     0.139166
    200 C                    -0.113148
    201 H                     0.132402
    202 C                    -0.471133
    203 H                     0.141540
    204 H                     0.144940
    205 H                     0.165012
    206 C                    -0.485117
    207 H                     0.162167
    208 H                     0.167538
    209 H                     0.164918
    210 H                     0.149882
    211 H                     0.138549
    212 C                    -0.466305
    213 H                     0.166001
    214 C                    -0.120655
    215 H                     0.125594
    216 C                    -0.480116
    217 H                     0.185416
    218 H                     0.136275
    219 H                     0.159078
    220 C                    -0.465834
    221 H                     0.167997
    222 H                     0.134742
    223 H                     0.156987
    224 H                     0.140739
    225 H                     0.181507
    226 C                    -0.488937
    227 H                     0.194044
    228 C                    -0.365557
    229 H                     0.170611
    230 H                     0.170163
    231 C                     0.587796
    232 O                    -0.465078
    233 O                    -0.610970
    234 H                     0.476264
    235 H                     0.148552
    236 H                     0.145028
    237 C                    -0.470070
    238 H                     0.140416
    239 C                    -0.285565
    240 H                     0.148624
    241 H                     0.157595
    242 C                    -0.458471
    243 H                     0.167583
    244 H                     0.209585
    245 S                     0.063039
    246 C                    -0.635578
    247 H                     0.180542
    248 H                     0.187899
    249 H                     0.224319
    250 H                     0.188419
    251 H                     0.160367
    252 C                    -0.463778
    253 H                     0.132063
    254 C                    -0.516941
    255 H                     0.154005
    256 H                     0.205437
    257 H                     0.155147
    258 H                     0.149117
    259 H                     0.153006
    260 C                    -0.451879
    261 H                     0.134290
    262 C                    -0.343620
    263 H                     0.149635
    264 H                     0.150055
    265 C                     0.008198
    266 C                    -0.000104
    267 H                     0.167951
    268 N                    -0.718955
    269 H                     0.420717
    270 C                     0.279022
    271 C                    -0.184906
    272 H                     0.177720
    273 C                    -0.180446
    274 H                     0.134516
    275 C                    -0.174356
    276 H                     0.124432
    277 C                    -0.213457
    278 H                     0.130535
    279 C                     0.033110
    280 H                     0.153312
  ----------------------------------------
  Sum of atomic charges =    -1.000000

 -----------------------------------------------------------------
                    Cartesian Multipole Moments
 -----------------------------------------------------------------
    Charge (ESU x 10^10)
                -4.8032
    Dipole Moment (Debye)
         X     -11.6849      Y     -26.3329      Z      36.9991
       Tot      46.8923
    Quadrupole Moments (Debye-Ang)
        XX    -826.6814     XY     -87.7366     YY    -950.6788
        XZ     108.8282     YZ     190.9399     ZZ    -996.2220
    Octopole Moments (Debye-Ang^2)
       XXX  -10843.7030    XXY   -3958.6298    XYY   -4044.3198
       YYY  -11409.3028    XXZ    7762.3996    XYZ     841.4156
       YYZ    8584.9996    XZZ   -4284.4160    YZZ   -4612.7122
       ZZZ   21646.9980
    Hexadecapole Moments (Debye-Ang^3)
      XXXX -159933.8019   XXXY  -61369.0066   XXYY  -58384.5698
      XYYY  -59470.0319   YYYY -179610.0701   XXXZ  107713.9603
      XXYZ   37174.8608   XYYZ   40124.5812   YYYZ  102828.0434
      XXZZ -111006.9068   XYZZ  -26855.2479   YYZZ -119788.9899
      XZZZ  105393.8197   YZZZ   96441.6117   ZZZZ -443761.8064
 -----------------------------------------------------------------
 Total job time:  1838.45s(wall), 54850.48s(cpu) 
 Fri Aug  9 14:26:56 2024

        *************************************************************
        *                                                           *
        *  Thank you very much for using Q-Chem.  Have a nice day.  *
        *                                                           *
        *************************************************************



Running Job 2 of 2 19nt_mm_min_distance_cutoff4_nowat_xtb_optimized_spade_wb97x-v_631gd.in
qchem 19nt_mm_min_distance_cutoff4_nowat_xtb_optimized_spade_wb97x-v_631gd.in_3226138.1 ./qchem3226138/ 1
srun -n 1 /cm/shared/apps/spack/0.17.3/cpu/b/opt/spack/linux-rocky8-zen2/gcc-10.2.0/qchem-6.0-rytxnwjazd34ekd2gqyi5ufsaimxsd3r/exe/qcprog.exe 19nt_mm_min_distance_cutoff4_nowat_xtb_optimized_spade_wb97x-v_631gd.in_3226138.1 ./qchem3226138/

                  Welcome to Q-Chem
     A Quantum Leap Into The Future Of Chemistry


 Q-Chem 6.0, Q-Chem, Inc., Pleasanton, CA (2022)

 License issued to: University of California, San Diego (site)

 E. Epifanovsky,  A. T. B. Gilbert,  Xintian Feng,  Joonho Lee,  Yuezhi Mao,  
 N. Mardirossian,  P. Pokhilko,  A. White,  M. Wormit,  M. P. Coons,  
 A. L. Dempwolff,  Zhengting Gan,  D. Hait,  P. R. Horn,  L. D. Jacobson,  
 I. Kaliman,  J. Kussmann,  A. W. Lange,  Ka Un Lao,  D. S. Levine,  Jie Liu,  
 S. C. McKenzie,  A. F. Morrison,  K. Nanda,  F. Plasser,  D. R. Rehn,  
 M. L. Vidal,  Zhi-Qiang You,  Ying Zhu,  B. Alam,  B. Albrecht,  
 A. Aldossary,  E. Alguire,  J. H. Andersen,  V. Athavale,  D. Barton,  
 K. Begam,  A. Behn,  N. Bellonzi,  Y. A. Bernard,  E. J. Berquist,  
 H. Burton,  A. Carreras,  K. Carter-Fenk,  Romit Chakraborty,  
 Chandrima Chakravarty,  Junhan Chen,  A. D. Chien,  K. D. Closser,  
 V. Cofer-Shabica,  L. Cunha,  S. Dasgupta,  Jia Deng,  M. de Wergifosse,  
 M. Diedenhofen,  Hainam Do,  S. Ehlert,  Po-Tung Fang,  S. Fatehi,  
 Qingguo Feng,  T. Friedhoff,  B. Ganoe,  J. Gayvert,  Qinghui Ge,  
 G. Gidofalvi,  M. Goldey,  J. Gomes,  C. Gonzalez-Espinoza,  S. Gulania,  
 A. Gunina,  J. A. Gyamfi,  M. W. D. Hanson-Heine,  P. H. P. Harbach,  
 A. W. Hauser,  M. F. Herbst,  M. Hernandez Vera,  M. Hodecker,  
 Z. C. Holden,  S. Houck,  Xunkun Huang,  Kerwin Hui,  B. C. Huynh,  
 K. Ikeda,  M. Ivanov,  Hyunjun Ji,  Zuxin Jin,  Hanjie Jiang,  B. Kaduk,  
 S. Kaehler,  R. Kang,  K. Khistyaev,  Jaehoon Kim,  Yongbin Kim,  
 P. Klunzinger,  Z. Koczor-Benda,  Joong Hoon Koh,  D. Kosenkov,  
 Saikiran Kotaru,  L. Koulias,  T. Kowalczyk,  C. M. Krauter,  K. Kue,  
 A. Kunitsa,  T. Kus,  A. Landau,  K. V. Lawler,  D. Lefrancois,  S. Lehtola,  
 Rain Li,  Shaozhi Li,  Yi-Pei Li,  Jiashu Liang,  M. Liebenthal,  
 Hung-Hsuan Lin,  You-Sheng Lin,  Fenglai Liu,  Kuan-Yu Liu,  
 M. Loipersberger,  A. Luenser,  C. Malbon,  A. Manjanath,  P. Manohar,  
 E. Mansoor,  S. F. Manzer,  Shan-Ping Mao,  A. V. Marenich,  T. Markovich,  
 S. Mason,  F. Matz,  S. A. Maurer,  P. F. McLaughlin,  M. F. S. J. Menger,  
 J.-M. Mewes,  S. A. Mewes,  P. Morgante,  Mohammad Mostafanejad,  
 J. W. Mullinax,  K. J. Oosterbaan,  G. Paran,  V. Parravicini,  
 Alexander C. Paul,  Suranjan K. Paul,  F. Pavosevic,  Zheng Pei,  S. Prager,  
 E. I. Proynov,  E. Ramos,  B. Rana,  A. E. Rask,  A. Rettig,  R. M. Richard,  
 F. Rob,  E. Rossomme,  T. Scheele,  M. Scheurer,  M. Schneider,  
 P. E. Schneider,  N. Sergueev,  S. M. Sharada,  Hengyuan Shen,  
 W. Skomorowski,  D. W. Small,  C. J. Stein,  Yingli Su,  Yu-Chuan Su,  
 E. J. Sundstrom,  Zhen Tao,  J. Thirman,  Hung-Yi Tsai,  T. Tsuchimochi,  
 N. M. Tubman,  C. Utku,  S. P. Veccham,  O. Vydrov,  J. Wenzel,  
 Jonathan Wong,  J. Witte,  A. Yamada,  Chou-Hsun Yang,  Kun Yao,  
 S. Yeganeh,  S. R. Yost,  A. Zech,  F. Zeller,  Igor Ying Zhang,  
 Xing Zhang,  Yu Zhang,  D. Zuev,  A. Aspuru-Guzik,  A. T. Bell,  
 N. A. Besley,  K. B. Bravaya,  B. R. Brooks,  D. Casanova,  Jeng-Da Chai,  
 Hsing-Ta Chen,  S. Coriani,  C. J. Cramer,  A. E. DePrince, III,  
 R. A. DiStasio Jr.,  A. Dreuw,  B. D. Dunietz,  T. R. Furlani,  
 W. A. Goddard III,  S. Grimme,  S. Hammes-Schiffer,  T. Head-Gordon,  
 W. J. Hehre,  Chao-Ping Hsu,  T.-C. Jagau,  Yousung Jung,  A. Klamt,  
 Jing Kong,  D. S. Lambrecht,  Xiangyuan Li,  WanZhen Liang,  N. J. Mayhall,  
 C. W. McCurdy,  J. B. Neaton,  T. Neudecker,  C. Ochsenfeld,  
 J. A. Parkhill,  R. Peverati,  V. A. Rassolov,  Haisheng Ren,  Yihan Shao,  
 L. V. Slipchenko,  R. P. Steele,  J. E. Subotnik,  A. J. W. Thom,  
 A. Tkatchenko,  D. G. Truhlar,  T. Van Voorhis,  Fan Wang,  
 T. A. Wesolowski,  K. B. Whaley,  H. L. Woodcock III,  P. M. Zimmerman,  
 S. Faraji,  P. M. W. Gill,  M. Head-Gordon,  J. M. Herbert,  A. I. Krylov

 Contributors to earlier versions of Q-Chem not listed above: 
 R. D. Adamson,  B. Austin,  R. Baer,  J. Baker,  G. J. O. Beran,  
 K. Brandhorst,  S. T. Brown,  E. F. C. Byrd,  Arup K. Chakraborty,  
 G. K. L. Chan,  Chun-Min Chang,  Yunqing Chen,  C.-L. Cheng,  
 Siu Hung Chien,  D. M. Chipman,  D. L. Crittenden,  H. Dachsel,  
 R. J. Doerksen,  A. D. Dutoi,  R. G. Edgar,  J. Fosso-Tande,  
 L. Fusti-Molnar,  D. Ghosh,  A. Ghysels,  A. Golubeva-Zadorozhnaya,  
 J. Gonthier,  M. S. Gordon,  S. R. Gwaltney,  G. Hawkins,  J. E. Herr,  
 A. Heyden,  S. Hirata,  E. G. Hohenstein,  G. Kedziora,  F. J. Keil,  
 C. Kelley,  Jihan Kim,  R. A. King,  R. Z. Khaliullin,  P. P. Korambath,  
 W. Kurlancheek,  A. Laurent,  A. M. Lee,  M. S. Lee,  S. V. Levchenko,  
 Ching Yeh Lin,  D. Liotard,  E. Livshits,  R. C. Lochan,  I. Lotan,  
 L. A. Martinez-Martinez,  P. E. Maslen,  N. Nair,  D. P. O'Neill,  
 D. Neuhauser,  E. Neuscamman,  C. M. Oana,  R. Olivares-Amaya,  R. Olson,  
 T. M. Perrine,  B. Peters,  P. A. Pieniazek,  A. Prociuk,  Y. M. Rhee,  
 J. Ritchie,  M. A. Rohrdanz,  E. Rosta,  N. J. Russ,  H. F. Schaefer III,  
 M. W. Schmidt,  N. E. Schultz,  S. Sharma,  N. Shenvi,  C. D. Sherrill,  
 A. C. Simmonett,  A. Sodt,  T. Stein,  D. Stuck,  K. S. Thanthiriwatte,  
 V. Vanovschi,  L. Vogt,  Tao Wang,  A. Warshel,  M. A. Watson,  
 C. F. Williams,  Q. Wu,  X. Xu,  Jun Yang,  W. Zhang,  Yan Zhao

   Please cite Q-Chem as follows:
  "Software for the frontiers of quantum chemistry:
   An overview of developments in the Q-Chem 5 package"
   J. Chem. Phys. 155, 084801 (2021)
[...]
          181         182         183         184         185         186
    1   2.2240965   0.5659716   0.7538054  -0.3515159  -0.1955273   0.3771806
    2   0.5333140   1.0236747  -0.7297518   2.1432619   1.9229773   3.6271137
    3  -2.3263330  -1.6350977  -1.6874121  -2.5623496  -0.8633616  -0.1099288
          187         188         189         190         191         192
    1  -1.9961477   1.4909703   0.2057860   0.7998147  -1.6754711   1.4696775
    2   1.1910238   0.4355918   1.6810687   3.4024736   1.1678154   0.5760288
    3  -1.0391730  -0.0511665   0.7560877   0.4786174  -0.2249131   1.8178885
          193         194         195         196         197         198
    1   1.5937473   2.1895965   1.8824610   1.5634006   0.7835616   0.6839379
    2   2.9114346   2.3533348   1.3887116   2.1017368   1.7281128   0.8516408
    3  -0.3390624  -0.5313592   0.7430124   2.3187247  -0.1692075  -1.6320297
          199         200         201         202         203         204
    1  -0.2013803   0.9518565   2.1150036   0.5931508   2.1195047  -0.4929789
    2   3.4621071   0.6646031  -0.9042871   1.5477437   1.7456453   3.1132846
    3  -0.1032359   0.8168109   1.2679057   1.9346420   2.4558953   1.1729048
          205         206         207         208         209         210
    1  -0.0482412  -0.0930401   0.3512062  -0.5633559  -0.5833679   2.5487452
    2   0.2181955   0.6950393  -0.1712837   2.4653000  -0.2329544  -0.4951330
    3   2.7662470  -0.1316586  -1.5465980  -0.6323713   1.2281868   0.9206516
          211         212         213         214         215         216
    1   2.4923242   0.6799123  -0.0668580   0.6518495   1.2389256  -0.6222188
    2   0.8702797   0.8332768   1.9182165  -0.2427234  -1.5335801  -0.1221995
    3   2.3331709   2.2709732   1.1396267   1.6489753   2.6882493   1.1326150
          217         218         219         220         221         222
    1  -0.3340005  -1.2013901  -0.8924078   1.1425950   0.5948322   2.8749588
    2  -1.2614105  -0.2218209   1.2502820   0.2691227  -0.9255201   0.5495963
    3   0.0551754   3.0655434  -0.0172984   0.2072139  -0.6688285   1.0829206
          223         224         225         226         227         228
    1   0.1518332  -0.3912006   0.5521074  -0.5079615  -2.1734356   0.2244001
    2   1.4601854   0.2357529   1.1931810  -0.2732874  -0.0964799  -1.7227311
    3  -0.6070591   3.6139035   2.2088023   2.4846629   1.8456693   2.0428397
          229         230         231         232         233         234
    1   2.0064929  -0.9359679   0.0139555   0.8167567  -0.8096376  -0.5602194
    2  -1.7735138  -3.1305142  -1.1683138   0.6779716  -1.8550842  -0.0208829
    3   2.2628932   1.8058478   1.2387534   0.2047834  -0.0547930  -2.2549287
          235         236         237         238         239         240
    1  -0.2616827  -2.9777871  -2.2529670  -1.5687125  -1.4020960  -0.7683038
    2  -1.0765487  -1.5296416  -0.9424942  -1.6745747  -1.7111972  -3.2554725
    3   3.6410266  -0.4626365   0.7807634   2.4809207  -0.2324655   0.0070678
          241         242         243         244         245         246
    1  -1.7250552  -0.5454811  -0.5753449   0.6118026  -1.4725075  -1.3865229
    2  -0.6759856  -1.8114662  -2.1322337  -1.9107607   0.0782268   0.1684357
    3  -2.0051433   0.9485123   3.0083013  -0.2473087   1.3878523  -1.0546210
          247         248         249         250         251         252
    1  -3.0706062   0.2400842  -1.3052359  -2.6200362  -2.9174522  -1.5202678
    2  -0.4256311  -0.8545902   1.6256569   0.9800300  -0.1730828   0.4943848
    3  -1.5194906  -1.4777937  -0.4237705   0.8850134   1.2093130   1.7543582
          253         254         255         256         257         258
    1  -0.6358352  -0.3977396   0.9036065  -0.9919064  -0.3174954  -1.8505676
    2  -0.0272627   0.0782681   0.6794491   0.4396332  -1.2732065   2.0052839
    3   3.3294715   0.4972283   1.1034045  -1.0443480   0.5411651   1.4879016
          259         260         261         262         263         264
    1  -2.3901020  -0.8363135   0.3975356   0.2781638   1.6385095   0.3044827
    2   0.3048355   1.4975837   1.4213176   0.8522826   1.9838279  -0.8361193
    3   2.2230037   2.1383817   3.2079810   1.9829910   1.4720227   2.7473120
          265         266         267         268         269         270
    1  -0.3002227  -1.0757743  -1.2846372  -1.5593316  -2.0040364  -0.9999851
    2   0.9887048  -0.3132161  -0.9724454  -0.0704688  -0.5661212   1.0921710
    3   1.5778990   1.7497368   2.4453564  -0.0778822  -0.5539760  -0.5477258
          271         272         273         274         275         276
    1  -1.3173656  -1.8630411  -0.6773120  -0.7770045   0.0446528   0.5868928
    2   0.9068332   0.3546048   2.0016290   2.2975312   2.7623321   3.6381138
    3  -1.5125717  -2.2860738  -1.6293705  -2.6230361  -0.5720305  -0.7543364
          277         278         279         280
    1   0.2085065   0.8596823  -0.3019655  -1.1202203
    2   2.5024144   3.1097061   1.7010444   3.0833188
    3   0.8230731   1.7955703   0.6638546   0.9574923
 EField
            1           2           3           4           5           6
    1   0.0002241  -0.0048735  -0.0001122  -0.0114476  -0.0183627  -0.0060205
    2   0.0356620   0.0495653   0.0247489   0.0187803   0.0191959   0.0168060
    3  -0.0086013  -0.0174891   0.0015969  -0.0010787   0.0050228   0.0017637
            7           8           9          10          11          12
    1  -0.0043547  -0.0180599  -0.0127354  -0.0129456  -0.0121700  -0.0071165
    2   0.0230288   0.0086921   0.0016093  -0.0001314   0.0054726  -0.0005509
    3  -0.0075410  -0.0028965   0.0016851   0.0049304   0.0063001   0.0030086
           13          14          15          16          17          18
    1  -0.0028789  -0.0013104  -0.0058138  -0.0073190  -0.0052083  -0.0036105
    2  -0.0010002   0.0037977   0.0042794  -0.0019107  -0.0036655  -0.0030113
    3   0.0013943   0.0013246   0.0078893   0.0039031   0.0011934  -0.0029065
           19          20          21          22          23          24
    1  -0.0010763  -0.0023810   0.0065409  -0.0364112  -0.0034013  -0.0056148
    2  -0.0036625  -0.0107075   0.0182274   0.0315448   0.0119275   0.0110122
    3   0.0050938  -0.0069841   0.0112183   0.0142108  -0.0002410   0.0050346
           25          26          27          28          29          30
    1  -0.0015117  -0.0061038  -0.0101835  -0.0333120  -0.0091238  -0.0111696
    2   0.0240392   0.0175915   0.0061269   0.0033543   0.0026869   0.0006517
    3  -0.0042628  -0.0146406  -0.0056577  -0.0097836   0.0016143   0.0009191
           31          32          33          34          35          36
    1  -0.0156336  -0.0078106  -0.0072279  -0.0036783   0.0070183  -0.0066272
    2  -0.0076696   0.0061929   0.0008639   0.0047728   0.0079358   0.0023688
    3   0.0072300   0.0032105   0.0006894   0.0002029   0.0031430   0.0132527
           37          38          39          40          41          42
    1  -0.0041892  -0.0088133  -0.0065509  -0.0082341  -0.0038002  -0.0049368
    2   0.0057526  -0.0007784  -0.0034411  -0.0040179  -0.0044397  -0.0009109
    3   0.0067595   0.0026969   0.0074269  -0.0002857   0.0017730  -0.0027565
           43          44          45          46          47          48
    1  -0.0011170   0.0028750  -0.0038009  -0.0027839   0.0253013   0.0000260
    2  -0.0051023  -0.0027882  -0.0055243  -0.0192410  -0.0290841  -0.0002437
    3   0.0044612   0.0056080   0.0094112  -0.0178997   0.0063083  -0.0001871
           49          50          51          52          53          54
    1   0.0014651   0.0008377  -0.0148014   0.0015194  -0.0000614   0.0005883
    2   0.0058691  -0.0005417  -0.0321306  -0.0093825   0.0016093   0.0039788
    3  -0.0384885  -0.0006366  -0.0115748   0.0347948  -0.0020143   0.0054510
           55          56          57          58          59          60
    1   0.0057473   0.0043584  -0.0189130   0.0217813  -0.0478596  -0.0053444
    2  -0.0311367  -0.0056615   0.0021025  -0.0346561   0.0111464  -0.0027337
    3  -0.0309152   0.0002944  -0.0424685   0.0001613  -0.1005916  -0.0189637
           61          62          63          64          65          66
    1   0.0075391   0.0060505  -0.0001005   0.0200556   0.0180862   0.0322536
    2  -0.0152762   0.0114940  -0.0055008  -0.0066449   0.0308088  -0.0203646
    3  -0.0041424   0.0338538  -0.0088381   0.0383125   0.0122121  -0.0035538
           67          68          69          70          71          72
    1  -0.0026267  -0.0197673   0.0000557   0.0208009   0.0039485   0.0078196
    2  -0.0001596  -0.0050714   0.0005268   0.0071661  -0.0012130   0.0405470
    3   0.0035924  -0.0333694  -0.0014787   0.0281109  -0.0012492  -0.0016095
           73          74          75          76          77          78
    1  -0.0250103  -0.0193226   0.0011100  -0.0206417   0.0302583  -0.0216912
    2  -0.0045080  -0.0041264   0.0043141  -0.0104016  -0.0245629  -0.0097035
    3  -0.0304429   0.0293884   0.0000955   0.0287806  -0.0001601  -0.0313226
           79          80          81          82          83          84
    1   0.0113888  -0.0350197   0.0069653   0.0214497   0.0115844  -0.0029218
    2   0.0375287  -0.0053060  -0.0015916  -0.0078365   0.0042585   0.0081788
    3  -0.0025759   0.0011019  -0.0012438   0.0291507  -0.0027184  -0.0328614
           85          86          87          88          89          90
    1  -0.0039884   0.0089682   0.0565834   0.0553917   0.0090567  -0.0363553
    2  -0.0322926  -0.0017601   0.0042503  -0.0135040   0.0358691  -0.0087234
    3  -0.0019604  -0.0076377   0.0752370  -0.0934797  -0.0028509  -0.0016642
           91          92          93          94          95          96
    1   0.0002884  -0.0006349  -0.0003668   0.0019215   0.0355143  -0.0019825
    2  -0.0005643   0.0220453   0.0008686  -0.0181717   0.0109710  -0.0003672
    3   0.0025676   0.0334601   0.0016734  -0.0302569   0.0027690   0.0045104
           97          98          99         100         101         102
    1   0.0051624  -0.0204901   0.0038855  -0.0326270   0.0076131  -0.0857908
    2   0.0026040  -0.0029026   0.0055429  -0.0260319   0.0177188  -0.0724185
    3   0.0082282  -0.0361265  -0.0011610  -0.0028111  -0.0238119   0.0006353
          103         104         105         106         107         108
    1   0.0219723  -0.0026426   0.0199799  -0.0076249   0.0324787   0.0059827
    2   0.0098796   0.0042051   0.0063849  -0.0027796   0.0298800   0.0245270
    3   0.0366929  -0.0068445   0.0324827  -0.0026904   0.0042057  -0.0290952
          109         110         111         112         113         114
    1  -0.0198420   0.0025814   0.0039604  -0.0213126  -0.0027785   0.0817528
    2  -0.0184431   0.0037087   0.0332685   0.0019301   0.0111442   0.0621497
    3   0.0290001   0.0045096   0.0162440  -0.0316762   0.0119373   0.0617678
          115         116         117         118         119         120
    1   0.0059357  -0.0381657   0.0181237   0.0228193  -0.0014951  -0.0212471
    2   0.0059856  -0.0185554  -0.0052877   0.0221616   0.0011137  -0.0204408
    3   0.0044398  -0.0170384   0.0015400   0.0202446   0.0064621  -0.0222675
          121         122         123         124         125         126
    1   0.0325776   0.0005253  -0.0331214  -0.0005675  -0.0097108  -0.0248502
    2  -0.0148649   0.0009529   0.0149704   0.0044886  -0.0111164  -0.0193250
    3  -0.0081208   0.0013621   0.0084022   0.0007701   0.0351628  -0.0230035
          127         128         129         130         131         132
    1   0.0351515  -0.0029954   0.0381919  -0.0015309  -0.0075449   0.0104864
    2  -0.0159258   0.0017738  -0.0083771   0.0433292  -0.0065801   0.0084194
    3  -0.0045038  -0.0012107  -0.0044572   0.0023401   0.0375920  -0.0310044
          133         134         135         136         137         138
    1   0.0109795  -0.0056317   0.0153169  -0.0016292  -0.0134278  -0.0006906
    2  -0.0038549   0.0000380   0.0328565   0.0012689  -0.0312078   0.0004747
    3  -0.0358486   0.0009738   0.0126217   0.0007208  -0.0100644  -0.0028120
          139         140         141         142         143         144
    1   0.0122240   0.0111378  -0.0413813  -0.0027149   0.0093547   0.0053647
    2  -0.0267602   0.0331494   0.0011450  -0.0025815   0.0354022  -0.0026246
    3   0.0245629   0.0194286   0.0071015   0.0035133   0.0087524  -0.0368883
          145         146         147         148         149         150
    1  -0.0439652   0.0174935  -0.0301624  -0.0008603   0.0208938  -0.0002000
    2   0.0023623  -0.0268679   0.0231648   0.0006292  -0.0023863   0.0010604
    3   0.0038731   0.0198932   0.0086240  -0.0008599   0.0313811  -0.0004228
          151         152         153         154         155         156
    1   0.0285436  -0.0163359  -0.0028023  -0.0088487   0.0411801  -0.0039588
    2  -0.0210891  -0.0212875   0.0029296   0.0013532  -0.0015783   0.0009709
    3  -0.0068192   0.0239394  -0.0041164   0.0007157  -0.0036833   0.0072156
          157         158         159         160         161         162
    1   0.0178093   0.0045714  -0.0223314   0.0039339  -0.0424516   0.0038704
    2   0.0058596   0.0019319   0.0105878   0.0043380   0.0067160   0.0030301
    3  -0.0365091   0.0070165  -0.0336983  -0.0000994   0.0047583  -0.0081214
          163         164         165         166         167         168
    1  -0.0191456   0.0189542  -0.0005406  -0.0053713   0.0288026  -0.0015334
    2  -0.0026146   0.0229309  -0.0235123  -0.0003068  -0.0104361   0.0010967
    3   0.0377523  -0.0238435   0.0309934  -0.0026964  -0.0227687  -0.0014326
          169         170         171         172         173         174
    1   0.0016569  -0.0005196  -0.0061954   0.0262956  -0.0346271   0.0008743
    2   0.0224092   0.0050190  -0.0247407  -0.0137393  -0.0000868  -0.0016788
    3  -0.0292699   0.0020707   0.0290391  -0.0240656  -0.0210245  -0.0024305
          175         176         177         178         179         180
    1  -0.0092142  -0.0377477   0.0039552   0.0098886   0.0189776  -0.0004996
    2  -0.0232937   0.0036081   0.0350790   0.0344185  -0.0178931  -0.0012608
    3   0.0312737  -0.0167151   0.0166512   0.0139186   0.0281482   0.0012812
          181         182         183         184         185         186
    1   0.0193982   0.0022361  -0.0053460  -0.0160348  -0.0044706   0.0022799
    2  -0.0065916  -0.0019563  -0.0348704   0.0153441   0.0054944   0.0366476
    3  -0.0318126  -0.0014035  -0.0109679  -0.0279258  -0.0089846   0.0096316
          187         188         189         190         191         192
    1  -0.0340924   0.0296497  -0.0080629   0.0048888  -0.0395435   0.0082089
    2  -0.0067179  -0.0322872   0.0038687   0.0368981  -0.0080279  -0.0164932
    3  -0.0032673  -0.0026256   0.0083546   0.0060301  -0.0022428   0.0355897
          193         194         195         196         197         198
    1   0.0070115   0.0198782  -0.0036794   0.0027063  -0.0036682  -0.0038448
    2   0.0362469   0.0213307  -0.0008244   0.0167089  -0.0037208  -0.0129707
    3   0.0085676  -0.0233611  -0.0008199   0.0335460   0.0023296  -0.0347178
          199         200         201         202         203         204
    1  -0.0204423  -0.0022827   0.0184745  -0.0004426   0.0299545  -0.0242200
    2   0.0312495   0.0000292  -0.0309538  -0.0031205   0.0114767   0.0305779
    3  -0.0048485  -0.0024741   0.0056485  -0.0043148   0.0193821  -0.0046486
          205         206         207         208         209         210
    1  -0.0201196  -0.0013552   0.0014466  -0.0274899  -0.0289989   0.0189622
    2  -0.0238161   0.0007344  -0.0222409   0.0261171  -0.0220614  -0.0332374
    3   0.0234255  -0.0003836  -0.0337151  -0.0134609   0.0187017   0.0032144
          211         212         213         214         215         216
    1   0.0358078  -0.0017088  -0.0159316  -0.0019645   0.0125752   0.0021233
    2   0.0094438  -0.0033423   0.0322470   0.0016154  -0.0276702   0.0010264
    3   0.0077980  -0.0051263  -0.0180924  -0.0025571   0.0153072  -0.0040555
          217         218         219         220         221         222
    1  -0.0107627  -0.0242724  -0.0199818  -0.0047517  -0.0020596   0.0371047
    2  -0.0297531  -0.0032940   0.0306950  -0.0008434  -0.0285481   0.0066152
    3  -0.0235304   0.0286048  -0.0253051   0.0005751  -0.0239859   0.0046817
          223         224         225         226         227         228
    1  -0.0149291  -0.0195384   0.0177060  -0.0016080  -0.0374656  -0.0005791
    2   0.0321058  -0.0025224   0.0370875   0.0064213   0.0125705   0.0000168
    3  -0.0234425   0.0319615  -0.0017840   0.0025272  -0.0069021   0.0066004
          229         230         231         232         233         234
    1   0.0356612  -0.0172338   0.0142612   0.0592194  -0.0477635   0.0106416
    2  -0.0069049  -0.0317936   0.0142318   0.1014500  -0.0872229   0.0113531
    3   0.0124035   0.0048956   0.0263497  -0.0237613   0.0391423   0.0285092
          235         236         237         238         239         240
    1   0.0001608  -0.0317722  -0.0009821  -0.0019674  -0.0047400   0.0038613
    2  -0.0090073  -0.0156575   0.0030425  -0.0145453   0.0002668  -0.0355356
    3   0.0381209  -0.0172163  -0.0000132   0.0359144   0.0024876  -0.0047306
          241         242         243         244         245         246
    1  -0.0073810  -0.0021363   0.0041223   0.0273835  -0.0076829  -0.0036168
    2   0.0109181  -0.0108455  -0.0144088  -0.0068204   0.0261838   0.0116459
    3  -0.0343584  -0.0012997   0.0366046  -0.0044421   0.0406169  -0.0118213
          247         248         249         250         251         252
    1  -0.0350386   0.0178570   0.0052175  -0.0084337  -0.0323601   0.0012292
    2  -0.0018145   0.0005492   0.0477970   0.0371990  -0.0146968   0.0024563
    3  -0.0217067  -0.0171184  -0.0057480   0.0063131  -0.0048763  -0.0035462
          253         254         255         256         257         258
    1   0.0099728   0.0015090   0.0388515  -0.0057341   0.0086902  -0.0091744
    2  -0.0068289   0.0058019   0.0171382   0.0236322  -0.0307289   0.0389883
    3   0.0340739  -0.0075399   0.0004177  -0.0437352  -0.0024244  -0.0041277
          259         260         261         262         263         264
    1  -0.0332846   0.0002751   0.0170250  -0.0005087   0.0339072   0.0117753
    2  -0.0168679  -0.0019855   0.0071563  -0.0002668   0.0134102  -0.0312142
    3   0.0057691  -0.0035463   0.0320106  -0.0011134  -0.0070732   0.0132061
          265         266         267         268         269         270
    1  -0.0034552   0.0123606  -0.0093471  -0.0064943  -0.0254716   0.0093241
    2  -0.0049189   0.0082389  -0.0362986  -0.0127419  -0.0412560   0.0125182
    3  -0.0048604   0.0087438   0.0213049  -0.0114612  -0.0364541  -0.0081467
          271         272         273         274         275         276
    1   0.0048929  -0.0205919   0.0007915  -0.0046105  -0.0033413   0.0161163
    2   0.0009230  -0.0283246  -0.0087722   0.0113485  -0.0100245   0.0334917
    3  -0.0013765  -0.0308967   0.0060054  -0.0372791   0.0028463  -0.0098074
          277         278         279         280
    1  -0.0037048   0.0214229  -0.0001173  -0.0104831
    2  -0.0047514   0.0197411  -0.0030972   0.0322491
    3  -0.0104626   0.0266740  -0.0026982  -0.0167974
  --- DONE ESP SUMMARY ---
 Total job time:  8.82s(wall), 106.68s(cpu) 
 Fri Aug  9 14:27:05 2024

        *************************************************************
        *                                                           *
        *  Thank you very much for using Q-Chem.  Have a nice day.  *
        *                                                           *
        *************************************************************


