
Running Job 1 of 2 19nt_mm_min_distance_cutoff5_xtb_optimized_spade_wb97x-v_631gd.in
qchem 19nt_mm_min_distance_cutoff5_xtb_optimized_spade_wb97x-v_631gd.in_3635837.0 ./qchem3635837/ 1
srun -n 1 /cm/shared/apps/spack/0.17.3/cpu/b/opt/spack/linux-rocky8-zen2/gcc-10.2.0/qchem-6.0-rytxnwjazd34ekd2gqyi5ufsaimxsd3r/exe/qcprog.exe 19nt_mm_min_distance_cutoff5_xtb_optimized_spade_wb97x-v_631gd.in_3635837.0 ./qchem3635837/

                  Welcome to Q-Chem
     A Quantum Leap Into The Future Of Chemistry


 Q-Chem 6.0, Q-Chem, Inc., Pleasanton, CA (2022)

 License issued to: University of California, San Diego (site)

 E. Epifanovsky,  A. T. B. Gilbert,  Xintian Feng,  Joonho Lee,  Yuezhi Mao,  
 N. Mardirossian,  P. Pokhilko,  A. White,  M. Wormit,  M. P. Coons,  
 A. L. Dempwolff,  Zhengting Gan,  D. Hait,  P. R. Horn,  L. D. Jacobson,  
 I. Kaliman,  J. Kussmann,  A. W. Lange,  Ka Un Lao,  D. S. Levine,  Jie Liu,  
 S. C. McKenzie,  A. F. Morrison,  K. Nanda,  F. Plasser,  D. R. Rehn,  
 M. L. Vidal,  Zhi-Qiang You,  Ying Zhu,  B. Alam,  B. Albrecht,  
 A. Aldossary,  E. Alguire,  J. H. Andersen,  V. Athavale,  D. Barton,  
 K. Begam,  A. Behn,  N. Bellonzi,  Y. A. Bernard,  E. J. Berquist,  
 H. Burton,  A. Carreras,  K. Carter-Fenk,  Romit Chakraborty,  
 Chandrima Chakravarty,  Junhan Chen,  A. D. Chien,  K. D. Closser,  
 V. Cofer-Shabica,  L. Cunha,  S. Dasgupta,  Jia Deng,  M. de Wergifosse,  
 M. Diedenhofen,  Hainam Do,  S. Ehlert,  Po-Tung Fang,  S. Fatehi,  
 Qingguo Feng,  T. Friedhoff,  B. Ganoe,  J. Gayvert,  Qinghui Ge,  
 G. Gidofalvi,  M. Goldey,  J. Gomes,  C. Gonzalez-Espinoza,  S. Gulania,  
 A. Gunina,  J. A. Gyamfi,  M. W. D. Hanson-Heine,  P. H. P. Harbach,  
 A. W. Hauser,  M. F. Herbst,  M. Hernandez Vera,  M. Hodecker,  
 Z. C. Holden,  S. Houck,  Xunkun Huang,  Kerwin Hui,  B. C. Huynh,  
 K. Ikeda,  M. Ivanov,  Hyunjun Ji,  Zuxin Jin,  Hanjie Jiang,  B. Kaduk,  
 S. Kaehler,  R. Kang,  K. Khistyaev,  Jaehoon Kim,  Yongbin Kim,  
 P. Klunzinger,  Z. Koczor-Benda,  Joong Hoon Koh,  D. Kosenkov,  
 Saikiran Kotaru,  L. Koulias,  T. Kowalczyk,  C. M. Krauter,  K. Kue,  
 A. Kunitsa,  T. Kus,  A. Landau,  K. V. Lawler,  D. Lefrancois,  S. Lehtola,  
 Rain Li,  Shaozhi Li,  Yi-Pei Li,  Jiashu Liang,  M. Liebenthal,  
 Hung-Hsuan Lin,  You-Sheng Lin,  Fenglai Liu,  Kuan-Yu Liu,  
 M. Loipersberger,  A. Luenser,  C. Malbon,  A. Manjanath,  P. Manohar,  
 E. Mansoor,  S. F. Manzer,  Shan-Ping Mao,  A. V. Marenich,  T. Markovich,  
 S. Mason,  F. Matz,  S. A. Maurer,  P. F. McLaughlin,  M. F. S. J. Menger,  
 J.-M. Mewes,  S. A. Mewes,  P. Morgante,  Mohammad Mostafanejad,  
 J. W. Mullinax,  K. J. Oosterbaan,  G. Paran,  V. Parravicini,  
 Alexander C. Paul,  Suranjan K. Paul,  F. Pavosevic,  Zheng Pei,  S. Prager,  
 E. I. Proynov,  E. Ramos,  B. Rana,  A. E. Rask,  A. Rettig,  R. M. Richard,  
 F. Rob,  E. Rossomme,  T. Scheele,  M. Scheurer,  M. Schneider,  
 P. E. Schneider,  N. Sergueev,  S. M. Sharada,  Hengyuan Shen,  
 W. Skomorowski,  D. W. Small,  C. J. Stein,  Yingli Su,  Yu-Chuan Su,  
 E. J. Sundstrom,  Zhen Tao,  J. Thirman,  Hung-Yi Tsai,  T. Tsuchimochi,  
 N. M. Tubman,  C. Utku,  S. P. Veccham,  O. Vydrov,  J. Wenzel,  
 Jonathan Wong,  J. Witte,  A. Yamada,  Chou-Hsun Yang,  Kun Yao,  
 S. Yeganeh,  S. R. Yost,  A. Zech,  F. Zeller,  Igor Ying Zhang,  
 Xing Zhang,  Yu Zhang,  D. Zuev,  A. Aspuru-Guzik,  A. T. Bell,  
 N. A. Besley,  K. B. Bravaya,  B. R. Brooks,  D. Casanova,  Jeng-Da Chai,  
 Hsing-Ta Chen,  S. Coriani,  C. J. Cramer,  A. E. DePrince, III,  
 R. A. DiStasio Jr.,  A. Dreuw,  B. D. Dunietz,  T. R. Furlani,  
 W. A. Goddard III,  S. Grimme,  S. Hammes-Schiffer,  T. Head-Gordon,  
 W. J. Hehre,  Chao-Ping Hsu,  T.-C. Jagau,  Yousung Jung,  A. Klamt,  
 Jing Kong,  D. S. Lambrecht,  Xiangyuan Li,  WanZhen Liang,  N. J. Mayhall,  
 C. W. McCurdy,  J. B. Neaton,  T. Neudecker,  C. Ochsenfeld,  
 J. A. Parkhill,  R. Peverati,  V. A. Rassolov,  Haisheng Ren,  Yihan Shao,  
 L. V. Slipchenko,  R. P. Steele,  J. E. Subotnik,  A. J. W. Thom,  
 A. Tkatchenko,  D. G. Truhlar,  T. Van Voorhis,  Fan Wang,  
 T. A. Wesolowski,  K. B. Whaley,  H. L. Woodcock III,  P. M. Zimmerman,  
 S. Faraji,  P. M. W. Gill,  M. Head-Gordon,  J. M. Herbert,  A. I. Krylov

 Contributors to earlier versions of Q-Chem not listed above: 
 R. D. Adamson,  B. Austin,  R. Baer,  J. Baker,  G. J. O. Beran,  
 K. Brandhorst,  S. T. Brown,  E. F. C. Byrd,  Arup K. Chakraborty,  
 G. K. L. Chan,  Chun-Min Chang,  Yunqing Chen,  C.-L. Cheng,  
 Siu Hung Chien,  D. M. Chipman,  D. L. Crittenden,  H. Dachsel,  
 R. J. Doerksen,  A. D. Dutoi,  R. G. Edgar,  J. Fosso-Tande,  
 L. Fusti-Molnar,  D. Ghosh,  A. Ghysels,  A. Golubeva-Zadorozhnaya,  
 J. Gonthier,  M. S. Gordon,  S. R. Gwaltney,  G. Hawkins,  J. E. Herr,  
 A. Heyden,  S. Hirata,  E. G. Hohenstein,  G. Kedziora,  F. J. Keil,  
 C. Kelley,  Jihan Kim,  R. A. King,  R. Z. Khaliullin,  P. P. Korambath,  
 W. Kurlancheek,  A. Laurent,  A. M. Lee,  M. S. Lee,  S. V. Levchenko,  
 Ching Yeh Lin,  D. Liotard,  E. Livshits,  R. C. Lochan,  I. Lotan,  
 L. A. Martinez-Martinez,  P. E. Maslen,  N. Nair,  D. P. O'Neill,  
 D. Neuhauser,  E. Neuscamman,  C. M. Oana,  R. Olivares-Amaya,  R. Olson,  
 T. M. Perrine,  B. Peters,  P. A. Pieniazek,  A. Prociuk,  Y. M. Rhee,  
 J. Ritchie,  M. A. Rohrdanz,  E. Rosta,  N. J. Russ,  H. F. Schaefer III,  
 M. W. Schmidt,  N. E. Schultz,  S. Sharma,  N. Shenvi,  C. D. Sherrill,  
 A. C. Simmonett,  A. Sodt,  T. Stein,  D. Stuck,  K. S. Thanthiriwatte,  
 V. Vanovschi,  L. Vogt,  Tao Wang,  A. Warshel,  M. A. Watson,  
 C. F. Williams,  Q. Wu,  X. Xu,  Jun Yang,  W. Zhang,  Yan Zhao

   Please cite Q-Chem as follows:
  "Software for the frontiers of quantum chemistry:
   An overview of developments in the Q-Chem 5 package"
   J. Chem. Phys. 155, 084801 (2021)
   https://doi.org/10.1063/5.0055522 (open access)

 Q-Chem 6.0.2 for Intel X86 EM64T Linux

 Parts of Q-Chem use Armadillo 9.900.5 (Nocturnal Misbehaviour).
 http://arma.sourceforge.net/

 Q-Chem begins on Fri Aug  9 13:56:19 2024  

 Host: 
0

     Scratch files written to ./qchem3635837//
 Dec722 |scratch|qcdevops|jenkins|workspace|build_RNUM    
 Processing $rem in /cm/shared/apps/spack/0.17.3/cpu/b/opt/spack/linux-rocky8-zen2/gcc-10.2.0/qchem-6.0-rytxnwjazd34ekd2gqyi5ufsaimxsd3r/config/preferences:
 Processing $rem in /home/hklem/.qchemrc:
 No nuclear gradient supported for projection-based embedding or EMFT. Set max ideriv = 0.

 Checking the input file for inconsistencies... 	...done.

--------------------------------------------------------------
User input:
--------------------------------------------------------------
$molecule
-1 1
--
0 1
C    3.26200    2.35100    -9.09400
O    3.09500    1.26500    -8.51000
C    3.23200    3.60600    -8.42300
C    3.30000    4.79500    -9.07100
C    3.59200    4.87700    -10.53800
C    4.24900    3.58200    -11.02200
C    3.42200    2.38500    -10.58600
C    2.95100    6.04400    -8.35800
C    3.78300    7.24600    -8.79000
C    3.75100    7.37400    -10.30800
C    4.40900    6.13000    -10.92300
C    4.48300    8.61400    -10.80300
C    4.41200    8.75000    -12.33300
C    5.16400    7.55900    -12.92300
C    4.53800    6.24100    -12.45000
C    4.02400    9.97800    -10.30100
C    4.67000    10.95700   -11.29200
C    5.08000    10.13700   -12.53800
C    2.98600    8.80600    -12.88100
O    4.67800    10.84900   -13.68400
H    3.02200    3.58100    -7.36100
H    2.61300    4.97700    -11.02700
H    5.25900    3.50700    -10.60800
H    4.32400    3.57700    -12.10900
H    2.41800    2.47600    -11.01100
H    3.84900    1.44400    -10.94100
H    3.00200    5.89900    -7.27800
H    1.89700    6.23100    -8.61000
H    4.81400    7.12000    -8.44800
H    3.38500    8.14800    -8.32700
H    2.70700    7.41700    -10.62000
H    5.41700    6.03400    -10.49700
H    5.54400    8.50500    -10.53600
H    6.21000    7.59800    -12.60100
H    5.15500    7.58400    -14.01400
H    3.55000    6.12900    -12.89500
H    5.16100    5.42600    -12.82100
H    4.33700    10.17500   -9.27800
H    2.93900    10.04300   -10.33500
H    5.54100    11.44400   -10.85500
H    3.97700    11.73700   -11.60400
H    6.17400    10.00400   -12.56100
H    2.45500    9.65500    -12.46700
H    3.02000    8.91500    -13.96200
H    2.43000    7.90700    -12.64800
H    5.00300    10.41800   -14.49100
--
-1 1
H    6.85800    -6.40300   -9.30000
C    6.25200    -5.51400   -9.50100
H    5.69400    -5.67800   -10.42400
C    5.27600    -5.28300   -8.34100
H    4.69300    -6.19600   -8.19800
H    5.83000    -5.09500   -7.41700
C    4.35200    -4.13200   -8.63000
C    3.08200    -4.33500   -9.15200
H    2.73400    -5.34300   -9.33600
C    2.25200    -3.27000   -9.44200
H    1.26800    -3.43500   -9.85300
C    2.68700    -1.96900   -9.21100
O    1.86400    -0.92800   -9.51600
H    2.30700    -0.09600   -9.21900
C    3.95700    -1.75700   -8.69100
H    4.29800    -0.75100   -8.50900
C    4.77500    -2.83000   -8.41000
H    5.76200    -2.64800   -8.02000
C    7.21800    -4.35100   -9.78400
O    7.34500    -3.90600   -10.90800
N    7.94600    -3.87500   -8.74500
H    7.88900    -4.32200   -7.84300
C    8.95800    -2.82900   -8.89700
H    8.58900    -2.14100   -9.66000
C    9.27100    -2.10100   -7.59000
H    9.58500    -2.85200   -6.85200
C    10.44500   -1.15200   -7.82700
H    10.65400   -0.57900   -6.92600
H    10.22000   -0.46000   -8.63300
H    11.34000   -1.70900   -8.09700
C    8.06800    -1.36000   -6.99000
H    7.31000    -2.09000   -6.70300
H    8.39500    -0.87300   -6.06800
C    7.44100    -0.31100   -7.90000
H    6.59400    0.14700    -7.39500
H    7.08900    -0.75200   -8.82800
H    8.15100    0.47700    -8.13200
H    9.88100    -3.28300   -9.28200
H    8.07500    -1.93200   -13.48300
C    7.96100    -0.85100   -13.48200
H    7.25400    -0.57800   -14.26200
C    7.45000    -0.39000   -12.11800
H    8.17500    -0.71300   -11.36100
C    7.33100    1.13000    -12.05200
H    8.26700    1.61000    -12.32900
H    6.55400    1.46900    -12.72900
H    7.06900    1.44700    -11.04400
C    6.10400    -1.04100   -11.81100
H    5.70600    -0.67700   -10.86500
H    6.21400    -2.11900   -11.74100
H    5.38300    -0.81300   -12.59400
H    8.92400    -0.39700   -13.70900
H    -4.02100   6.46400    -7.67600
C    -2.93800   6.61000    -7.63700
H    -2.60900   6.56000    -6.60200
C    -2.22600   5.54200    -8.46700
H    -2.67000   5.47100    -9.46200
H    -2.28800   4.56100    -7.99400
C    -0.73100   5.91900    -8.65600
O    -0.34500   6.95600    -8.07900
O    -0.04100   5.18000    -9.37800
C    -2.62200   7.96100    -8.24800
O    -2.69800   8.14200    -9.46300
N    -2.38100   9.00200    -7.43400
C    -2.12900   10.31900   -7.99500
H    -1.14100   10.34200   -8.46700
H    -2.88000   10.54300   -8.75500
C    -2.17900   11.24600   -6.78800
H    -1.60400   12.15600   -6.94500
H    -3.21200   11.51500   -6.56000
C    -1.60000   10.37000   -5.68100
H    -1.88400   10.70100   -4.68400
H    -0.51200   10.36400   -5.75000
C    -2.15200   8.98000    -6.00400
H    -1.43900   8.19600    -5.74000
H    -3.09700   8.79700    -5.47500
H    0.86900    1.78800    -17.38500
C    0.66100    2.70000    -16.83000
H    -0.34900   2.63000    -16.43200
C    1.66200    2.88800    -15.69300
H    2.66400    2.98300    -16.12100
H    1.42900    3.80600    -15.15100
C    1.63300    1.71400    -14.75400
C    2.05000    0.46100    -15.18700
H    2.40600    0.33500    -16.20000
C    2.02400    -0.63300   -14.34900
H    2.35500    -1.60400   -14.68400
C    1.57100    -0.49700   -13.03900
O    1.56000    -1.59200   -12.24400
H    1.43100    -1.32700   -11.31500
C    1.13600    0.74900    -12.60100
H    0.76700    0.85500    -11.59000
C    1.17000    1.84000    -13.45200
H    0.83000    2.80300    -13.09900
H    0.69800    3.54000    -17.52400
H    0.36300    6.18500    -19.66400
C    0.82600    7.16500    -19.78900
H    1.20200    7.26500    -20.80700
C    -0.19100   8.27500    -19.50100
H    -0.93700   8.29500    -20.29700
H    0.32200    9.23900    -19.50600
C    -0.91200   8.08400    -18.17100
H    -1.39500   7.10300    -18.15000
H    -0.22400   8.14900    -17.33200
C    -2.01700   9.12300    -17.99200
O    -2.71100   9.51300    -18.91100
N    -2.15200   9.54400    -16.72600
H    -1.53000   9.22700    -15.98100
H    -2.87400   10.21000   -16.50800
C    2.03300    7.31000    -18.84700
O    3.02700    7.95000    -19.17600
N    1.97500    6.71600    -17.63200
H    1.12400    6.25800    -17.34400
C    2.91700    7.01300    -16.54700
H    2.51400    6.55500    -15.63400
H    2.97100    8.09500    -16.39300
C    4.34300    6.52800    -16.77000
O    5.28900    7.18900    -16.33500
N    4.55200    5.38300    -17.42400
H    3.76000    4.86300    -17.76800
C    5.88100    4.81000    -17.64700
H    6.58500    5.40500    -17.06700
C    5.91700    3.34300    -17.23400
H    5.20800    2.78800    -17.85500
H    6.91400    2.95300    -17.44300
C    5.57700    3.10800    -15.75700
H    4.62500    3.60000    -15.53300
C    5.42200    1.61100    -15.50500
H    5.05400    1.42600    -14.49900
H    4.71300    1.17000    -16.20100
H    6.37800    1.10800    -15.62700
C    6.63900    3.69700    -14.83600
H    7.61500    3.26700    -15.05200
H    6.69600    4.77500    -14.94900
H    6.39800    3.48000    -13.79900
H    6.13200    4.90700    -18.70900
H    11.36100   6.04100    -16.44000
C    11.15800   6.06700    -15.37100
H    11.53200   7.00600    -14.97300
C    9.65900    5.92700    -15.10600
H    9.33400    4.95700    -15.49600
C    9.38200    5.96200    -13.60500
H    9.91400    5.15700    -13.10200
H    9.70900    6.90900    -13.18200
H    8.32000    5.84500    -13.40600
C    8.87000    7.02100    -15.82300
H    9.17800    8.00300    -15.47300
H    9.03300    6.97400    -16.89700
H    7.80500    6.91900    -15.62800
H    11.70400   5.25300    -14.89900
H    12.83500   2.53600    -10.54500
C    12.05000   2.23200    -9.85600
H    11.99600   2.96700    -9.05600
C    10.71500   2.12500    -10.57700
H    9.92600    1.82900    -9.88900
H    10.76800   1.38300    -11.37100
H    10.43900   3.08100    -11.01600
H    12.32800   1.27500    -9.42000
H    5.41100    -1.99700   0.43900
C    6.33300    -1.54100   0.08500
H    7.09700    -1.67000   0.84700
C    6.77900    -2.18300   -1.22600
H    6.95900    -3.24900   -1.07200
H    7.71800    -1.73600   -1.55700
C    5.73500    -2.01300   -2.31900
H    5.59100    -0.96000   -2.56400
H    4.78200    -2.44800   -2.01500
S    6.26200    -2.87200   -3.84800
C    4.79400    -2.55800   -4.86700
H    3.90600    -2.86100   -4.31900
H    4.74400    -1.50800   -5.14100
H    4.88400    -3.16000   -5.76500
H    6.15700    -0.47600   -0.05200
H    9.36500    2.41600    -2.16700
C    10.11100   2.58300    -2.94000
H    11.09900   2.43700    -2.50900
C    9.88600    1.62300    -4.11200
H    10.65200   1.79700    -4.87100
H    9.98400    0.59400    -3.75700
C    8.52000    1.82800    -4.70700
C    8.33600    2.66200    -5.80200
H    9.19300    3.14100    -6.25500
C    7.07000    2.88500    -6.31500
H    6.94100    3.53500    -7.16800
C    5.97000    2.28100    -5.73400
H    4.98000    2.46600    -6.11900
C    6.14400    1.44800    -4.64200
H    5.28200    0.98400    -4.18500
C    7.40900    1.22100    -4.13500
H    7.54400    0.56600    -3.28400
H    10.02600   3.61400    -3.27700
H    10.44100   6.69000    -7.77100
C    10.73800   6.31500    -8.74800
H    11.20000   5.33900    -8.61700
C    9.52300    6.21500    -9.66800
H    9.85400    5.82400    -10.63600
C    8.48700    5.25500    -9.08600
H    8.12300    5.62800    -8.13100
H    8.92100    4.27000    -8.93200
H    7.64000    5.15300    -9.76100
C    8.90300    7.59100    -9.88900
H    8.53100    7.99400    -8.94900
H    8.07000    7.52400    -10.58700
H    9.64000    8.28400    -10.28900
H    11.47800   6.99400    -9.16500
H    12.68200   10.90300   -13.01800
C    12.29900   10.51600   -13.95900
H    13.08200   9.93600    -14.44200
C    11.07400   9.64800    -13.70800
H    11.35600   8.79300    -13.08900
H    10.70100   9.27300    -14.66400
C    9.94300    10.39700   -13.02300
H    9.69500    11.31300   -13.56200
H    9.05500    9.76700    -12.95300
S    10.38500   10.86700   -11.30800
C    8.74100    11.39100   -10.75300
H    8.37200    12.17900   -11.40400
H    8.06500    10.54000   -10.76000
H    8.85200    11.76700   -9.74100
H    12.04500   11.35700   -14.60100
H    10.39200   11.22400   -6.48500
C    9.65300    10.66500   -5.91500
H    9.53100    11.15400   -4.95200
C    8.33600    10.60400   -6.68000
H    8.53700    10.23400   -7.68800
H    7.92600    11.61300   -6.77500
C    7.28900    9.69400    -6.03000
H    7.72300    8.69200    -5.92600
C    6.88500    10.18600   -4.64400
H    7.73100    10.20300   -3.96200
H    6.46600    11.18800   -4.70900
H    6.12900    9.52600    -4.22700
C    6.05400    9.60200    -6.92300
H    6.31700    9.22000    -7.90700
H    5.59900    10.58200   -7.04600
H    5.31000    8.94100    -6.48500
H    10.04100   9.66200    -5.74600
H    7.08100    6.74500    -3.23900
C    6.15100    6.33600    -2.84900
H    5.45600    7.15700    -2.68800
C    5.55600    5.32400    -3.82700
H    6.27400    4.50500    -3.95900
C    4.25700    4.74200    -3.27700
H    3.84400    4.00300    -3.95900
H    4.42700    4.26400    -2.31400
H    3.52100    5.53300    -3.14100
C    5.30900    5.97400    -5.18500
H    4.92500    5.23900    -5.88700
H    6.23200    6.38500    -5.58900
H    4.58300    6.78000    -5.09500
H    6.35800    5.86700    -1.88900
H    3.19400    1.50900    -2.34000
C    2.21500    1.09900    -2.58000
H    1.54300    1.93200    -2.76900
C    2.29000    0.21100    -3.81100
H    3.00500    -0.60200   -3.67700
H    1.31600    -0.24200   -4.01400
C    2.65700    0.97200    -5.06600
O    2.68100    2.17500    -5.16400
O    2.94600    0.15700    -6.06700
H    3.04900    0.65300    -6.92600
H    1.85000    0.53500    -1.72500
H    -4.63200   -0.70100   -5.11200
C    -3.60200   -1.04900   -5.14900
H    -3.54500   -2.01900   -4.66000
C    -3.12000   -1.15100   -6.59100
H    -3.72200   -1.88500   -7.13500
H    -3.24600   -0.18600   -7.08700
C    -1.65900   -1.57000   -6.66400
H    -1.48800   -2.47000   -6.07300
H    -1.34100   -1.75300   -7.69100
S    -0.53100   -0.31000   -5.97700
C    -0.32000   0.74900    -7.43000
H    -1.27500   1.17600    -7.72100
H    0.10400    0.15800    -8.23700
H    0.36300    1.54300    -7.14900
H    -2.97600   -0.35000   -4.60000
H    -0.97700   5.23700    -3.99700
C    -0.13900   4.55000    -4.11000
H    -0.36000   3.64800    -3.54200
C    0.09700    4.21000    -5.57300
H    0.97500    3.57800    -5.66700
H    0.25000    5.10700    -6.16800
H    -0.75800   3.67700    -5.98300
H    0.74500    5.01100    -3.67600
H    1.37000    9.73400    -2.21800
C    2.41600    10.01000   -2.33900
H    2.89100    10.00800   -1.35900
C    3.11600    9.02700    -3.27800
H    4.17100    9.30800    -3.35200
H    3.06000    8.02100    -2.85400
C    2.50300    9.01800    -4.64100
C    1.78300    8.00800    -5.22000
H    1.54500    7.04100    -4.82000
N    1.36400    8.36400    -6.46600
H    0.79000    7.79900    -7.09800
C    1.80100    9.62400    -6.72200
C    1.62600    10.42100   -7.84800
H    1.07800    10.04500   -8.69900
C    2.18100    11.68100   -7.83700
H    2.06500    12.32600   -8.69500
C    2.90800    12.14100   -6.73400
H    3.33300    13.13400   -6.76700
C    3.09300    11.35700   -5.61800
H    3.66400    11.72400   -4.77700
C    2.53200    10.08000   -5.59300
H    2.45600    11.01700   -2.74500
H    10.05800   14.78400   -4.47900
C    9.12800    15.11800   -4.93300
H    9.18300    14.91500   -6.00000
C    7.94300    14.39900   -4.29700
H    7.97300    14.56800   -3.21800
H    8.03700    13.32400   -4.46500
C    6.58400    14.87100   -4.82900
H    6.57400    15.96800   -4.82000
C    6.33900    14.39400   -6.25800
H    6.29000    13.30700   -6.29100
H    5.39500    14.78600   -6.63100
H    7.12800    14.72600   -6.92600
C    5.46300    14.37100   -3.91900
H    5.47900    13.28500   -3.86200
H    5.57600    14.76600   -2.91100
H    4.49200    14.67900   -4.30100
H    9.04300    16.19400   -4.79200
O    0.80300    6.30800    -11.66300
H    0.33900    7.15400    -11.53900
H    0.52800    5.78700    -10.87600
O    3.49600    10.47400   -18.02400
H    3.43800    9.66000    -18.54600
H    4.24000    10.35500   -17.40300
O    0.95000    6.20800    -14.42600
H    0.91700    6.09800    -13.45800
H    0.49500    7.05300    -14.58000
O    1.98500    11.70800   -13.97400
H    2.90700    11.48600   -13.76500
H    1.83200    11.33400   -14.85500
O    1.39700    10.46500   -16.45400
H    2.18600    10.52200   -17.05300
H    0.72700    11.03300   -16.83700
O    -0.13900   8.75800    -14.94300
H    0.54600    9.22400    -15.44800
H    -0.31400   9.38000    -14.19100
O    -0.41300   10.63900   -13.10800
H    0.44400    11.08900   -13.22800
H    -0.37500   10.12800   -12.28400
O    6.05000    8.37800    -18.87500
H    6.05800    7.87600    -18.05200
H    5.15200    8.30800    -19.21800
O    5.50600    9.86500    -16.23500
H    6.26700    10.00700   -16.80500
H    5.41100    8.89400    -16.16300
O    -0.84400   8.55000    -11.36100
H    -1.38600   8.44200    -10.55200
H    -1.42400   8.25300    -12.06800
$end

$rem
JOBTYPE  SP
METHOD  WB97X-V
BASIS  6-31G(D)
SYMMETRY  FALSE
SYM_IGNORE  TRUE
MEM_TOTAL  64000
MEM_STATIC  4000
BASIS_LIN_DEP_THRESH  6
THRESH  14
SCF_CONVERGENCE  8
FD_MAT_VEC_PROD  FALSE
XC_GRID  000075000302
NL_GRID  1
MAX_SCF_CYCLES  200
ENV_METHOD  WB97X-V
GEN_SCFMAN_EMBED  TRUE
SPADE_PARTITION  TRUE
EMBEDDING_EARLY_STOP  TRUE
$end

--------------------------------------------------------------
 ----------------------------------------------------------------
             Standard Nuclear Orientation (Angstroms)
    I     Atom           X                Y                Z
 ----------------------------------------------------------------
    1      C       3.2620000000     2.3510000000    -9.0940000000
    2      O       3.0950000000     1.2650000000    -8.5100000000
    3      C       3.2320000000     3.6060000000    -8.4230000000
    4      C       3.3000000000     4.7950000000    -9.0710000000
    5      C       3.5920000000     4.8770000000   -10.5380000000
    6      C       4.2490000000     3.5820000000   -11.0220000000
    7      C       3.4220000000     2.3850000000   -10.5860000000
    8      C       2.9510000000     6.0440000000    -8.3580000000
    9      C       3.7830000000     7.2460000000    -8.7900000000
   10      C       3.7510000000     7.3740000000   -10.3080000000
   11      C       4.4090000000     6.1300000000   -10.9230000000
   12      C       4.4830000000     8.6140000000   -10.8030000000
   13      C       4.4120000000     8.7500000000   -12.3330000000
   14      C       5.1640000000     7.5590000000   -12.9230000000
   15      C       4.5380000000     6.2410000000   -12.4500000000
   16      C       4.0240000000     9.9780000000   -10.3010000000
   17      C       4.6700000000    10.9570000000   -11.2920000000
   18      C       5.0800000000    10.1370000000   -12.5380000000
   19      C       2.9860000000     8.8060000000   -12.8810000000
   20      O       4.6780000000    10.8490000000   -13.6840000000
   21      H       3.0220000000     3.5810000000    -7.3610000000
   22      H       2.6130000000     4.9770000000   -11.0270000000
   23      H       5.2590000000     3.5070000000   -10.6080000000
   24      H       4.3240000000     3.5770000000   -12.1090000000
   25      H       2.4180000000     2.4760000000   -11.0110000000
   26      H       3.8490000000     1.4440000000   -10.9410000000
   27      H       3.0020000000     5.8990000000    -7.2780000000
   28      H       1.8970000000     6.2310000000    -8.6100000000
   29      H       4.8140000000     7.1200000000    -8.4480000000
   30      H       3.3850000000     8.1480000000    -8.3270000000
   31      H       2.7070000000     7.4170000000   -10.6200000000
   32      H       5.4170000000     6.0340000000   -10.4970000000
   33      H       5.5440000000     8.5050000000   -10.5360000000
   34      H       6.2100000000     7.5980000000   -12.6010000000
   35      H       5.1550000000     7.5840000000   -14.0140000000
   36      H       3.5500000000     6.1290000000   -12.8950000000
   37      H       5.1610000000     5.4260000000   -12.8210000000
   38      H       4.3370000000    10.1750000000    -9.2780000000
   39      H       2.9390000000    10.0430000000   -10.3350000000
   40      H       5.5410000000    11.4440000000   -10.8550000000
   41      H       3.9770000000    11.7370000000   -11.6040000000
   42      H       6.1740000000    10.0040000000   -12.5610000000
   43      H       2.4550000000     9.6550000000   -12.4670000000
   44      H       3.0200000000     8.9150000000   -13.9620000000
   45      H       2.4300000000     7.9070000000   -12.6480000000
   46      H       5.0030000000    10.4180000000   -14.4910000000
   47      H       6.8580000000    -6.4030000000    -9.3000000000
   48      C       6.2520000000    -5.5140000000    -9.5010000000
   49      H       5.6940000000    -5.6780000000   -10.4240000000
   50      C       5.2760000000    -5.2830000000    -8.3410000000
   51      H       4.6930000000    -6.1960000000    -8.1980000000
   52      H       5.8300000000    -5.0950000000    -7.4170000000
   53      C       4.3520000000    -4.1320000000    -8.6300000000
   54      C       3.0820000000    -4.3350000000    -9.1520000000
   55      H       2.7340000000    -5.3430000000    -9.3360000000
   56      C       2.2520000000    -3.2700000000    -9.4420000000
   57      H       1.2680000000    -3.4350000000    -9.8530000000
   58      C       2.6870000000    -1.9690000000    -9.2110000000
   59      O       1.8640000000    -0.9280000000    -9.5160000000
   60      H       2.3070000000    -0.0960000000    -9.2190000000
   61      C       3.9570000000    -1.7570000000    -8.6910000000
   62      H       4.2980000000    -0.7510000000    -8.5090000000
   63      C       4.7750000000    -2.8300000000    -8.4100000000
   64      H       5.7620000000    -2.6480000000    -8.0200000000
   65      C       7.2180000000    -4.3510000000    -9.7840000000
   66      O       7.3450000000    -3.9060000000   -10.9080000000
   67      N       7.9460000000    -3.8750000000    -8.7450000000
   68      H       7.8890000000    -4.3220000000    -7.8430000000
   69      C       8.9580000000    -2.8290000000    -8.8970000000
   70      H       8.5890000000    -2.1410000000    -9.6600000000
   71      C       9.2710000000    -2.1010000000    -7.5900000000
   72      H       9.5850000000    -2.8520000000    -6.8520000000
   73      C      10.4450000000    -1.1520000000    -7.8270000000
   74      H      10.6540000000    -0.5790000000    -6.9260000000
   75      H      10.2200000000    -0.4600000000    -8.6330000000
   76      H      11.3400000000    -1.7090000000    -8.0970000000
   77      C       8.0680000000    -1.3600000000    -6.9900000000
   78      H       7.3100000000    -2.0900000000    -6.7030000000
   79      H       8.3950000000    -0.8730000000    -6.0680000000
   80      C       7.4410000000    -0.3110000000    -7.9000000000
   81      H       6.5940000000     0.1470000000    -7.3950000000
   82      H       7.0890000000    -0.7520000000    -8.8280000000
   83      H       8.1510000000     0.4770000000    -8.1320000000
   84      H       9.8810000000    -3.2830000000    -9.2820000000
   85      H       8.0750000000    -1.9320000000   -13.4830000000
   86      C       7.9610000000    -0.8510000000   -13.4820000000
   87      H       7.2540000000    -0.5780000000   -14.2620000000
   88      C       7.4500000000    -0.3900000000   -12.1180000000
   89      H       8.1750000000    -0.7130000000   -11.3610000000
   90      C       7.3310000000     1.1300000000   -12.0520000000
   91      H       8.2670000000     1.6100000000   -12.3290000000
   92      H       6.5540000000     1.4690000000   -12.7290000000
   93      H       7.0690000000     1.4470000000   -11.0440000000
   94      C       6.1040000000    -1.0410000000   -11.8110000000
   95      H       5.7060000000    -0.6770000000   -10.8650000000
   96      H       6.2140000000    -2.1190000000   -11.7410000000
   97      H       5.3830000000    -0.8130000000   -12.5940000000
   98      H       8.9240000000    -0.3970000000   -13.7090000000
   99      H      -4.0210000000     6.4640000000    -7.6760000000
  100      C      -2.9380000000     6.6100000000    -7.6370000000
  101      H      -2.6090000000     6.5600000000    -6.6020000000
  102      C      -2.2260000000     5.5420000000    -8.4670000000
  103      H      -2.6700000000     5.4710000000    -9.4620000000
  104      H      -2.2880000000     4.5610000000    -7.9940000000
  105      C      -0.7310000000     5.9190000000    -8.6560000000
  106      O      -0.3450000000     6.9560000000    -8.0790000000
  107      O      -0.0410000000     5.1800000000    -9.3780000000
  108      C      -2.6220000000     7.9610000000    -8.2480000000
  109      O      -2.6980000000     8.1420000000    -9.4630000000
  110      N      -2.3810000000     9.0020000000    -7.4340000000
  111      C      -2.1290000000    10.3190000000    -7.9950000000
  112      H      -1.1410000000    10.3420000000    -8.4670000000
  113      H      -2.8800000000    10.5430000000    -8.7550000000
  114      C      -2.1790000000    11.2460000000    -6.7880000000
  115      H      -1.6040000000    12.1560000000    -6.9450000000
  116      H      -3.2120000000    11.5150000000    -6.5600000000
  117      C      -1.6000000000    10.3700000000    -5.6810000000
  118      H      -1.8840000000    10.7010000000    -4.6840000000
  119      H      -0.5120000000    10.3640000000    -5.7500000000
  120      C      -2.1520000000     8.9800000000    -6.0040000000
  121      H      -1.4390000000     8.1960000000    -5.7400000000
  122      H      -3.0970000000     8.7970000000    -5.4750000000
  123      H       0.8690000000     1.7880000000   -17.3850000000
  124      C       0.6610000000     2.7000000000   -16.8300000000
  125      H      -0.3490000000     2.6300000000   -16.4320000000
  126      C       1.6620000000     2.8880000000   -15.6930000000
  127      H       2.6640000000     2.9830000000   -16.1210000000
  128      H       1.4290000000     3.8060000000   -15.1510000000
  129      C       1.6330000000     1.7140000000   -14.7540000000
  130      C       2.0500000000     0.4610000000   -15.1870000000
  131      H       2.4060000000     0.3350000000   -16.2000000000
  132      C       2.0240000000    -0.6330000000   -14.3490000000
  133      H       2.3550000000    -1.6040000000   -14.6840000000
  134      C       1.5710000000    -0.4970000000   -13.0390000000
  135      O       1.5600000000    -1.5920000000   -12.2440000000
  136      H       1.4310000000    -1.3270000000   -11.3150000000
  137      C       1.1360000000     0.7490000000   -12.6010000000
  138      H       0.7670000000     0.8550000000   -11.5900000000
  139      C       1.1700000000     1.8400000000   -13.4520000000
  140      H       0.8300000000     2.8030000000   -13.0990000000
  141      H       0.6980000000     3.5400000000   -17.5240000000
  142      H       0.3630000000     6.1850000000   -19.6640000000
  143      C       0.8260000000     7.1650000000   -19.7890000000
  144      H       1.2020000000     7.2650000000   -20.8070000000
  145      C      -0.1910000000     8.2750000000   -19.5010000000
  146      H      -0.9370000000     8.2950000000   -20.2970000000
  147      H       0.3220000000     9.2390000000   -19.5060000000
  148      C      -0.9120000000     8.0840000000   -18.1710000000
  149      H      -1.3950000000     7.1030000000   -18.1500000000
  150      H      -0.2240000000     8.1490000000   -17.3320000000
  151      C      -2.0170000000     9.1230000000   -17.9920000000
  152      O      -2.7110000000     9.5130000000   -18.9110000000
  153      N      -2.1520000000     9.5440000000   -16.7260000000
  154      H      -1.5300000000     9.2270000000   -15.9810000000
  155      H      -2.8740000000    10.2100000000   -16.5080000000
  156      C       2.0330000000     7.3100000000   -18.8470000000
  157      O       3.0270000000     7.9500000000   -19.1760000000
  158      N       1.9750000000     6.7160000000   -17.6320000000
  159      H       1.1240000000     6.2580000000   -17.3440000000
  160      C       2.9170000000     7.0130000000   -16.5470000000
  161      H       2.5140000000     6.5550000000   -15.6340000000
  162      H       2.9710000000     8.0950000000   -16.3930000000
  163      C       4.3430000000     6.5280000000   -16.7700000000
  164      O       5.2890000000     7.1890000000   -16.3350000000
  165      N       4.5520000000     5.3830000000   -17.4240000000
  166      H       3.7600000000     4.8630000000   -17.7680000000
  167      C       5.8810000000     4.8100000000   -17.6470000000
  168      H       6.5850000000     5.4050000000   -17.0670000000
  169      C       5.9170000000     3.3430000000   -17.2340000000
  170      H       5.2080000000     2.7880000000   -17.8550000000
  171      H       6.9140000000     2.9530000000   -17.4430000000
  172      C       5.5770000000     3.1080000000   -15.7570000000
  173      H       4.6250000000     3.6000000000   -15.5330000000
  174      C       5.4220000000     1.6110000000   -15.5050000000
  175      H       5.0540000000     1.4260000000   -14.4990000000
  176      H       4.7130000000     1.1700000000   -16.2010000000
  177      H       6.3780000000     1.1080000000   -15.6270000000
  178      C       6.6390000000     3.6970000000   -14.8360000000
  179      H       7.6150000000     3.2670000000   -15.0520000000
  180      H       6.6960000000     4.7750000000   -14.9490000000
  181      H       6.3980000000     3.4800000000   -13.7990000000
  182      H       6.1320000000     4.9070000000   -18.7090000000
  183      H      11.3610000000     6.0410000000   -16.4400000000
  184      C      11.1580000000     6.0670000000   -15.3710000000
  185      H      11.5320000000     7.0060000000   -14.9730000000
  186      C       9.6590000000     5.9270000000   -15.1060000000
  187      H       9.3340000000     4.9570000000   -15.4960000000
  188      C       9.3820000000     5.9620000000   -13.6050000000
  189      H       9.9140000000     5.1570000000   -13.1020000000
  190      H       9.7090000000     6.9090000000   -13.1820000000
  191      H       8.3200000000     5.8450000000   -13.4060000000
  192      C       8.8700000000     7.0210000000   -15.8230000000
  193      H       9.1780000000     8.0030000000   -15.4730000000
  194      H       9.0330000000     6.9740000000   -16.8970000000
  195      H       7.8050000000     6.9190000000   -15.6280000000
  196      H      11.7040000000     5.2530000000   -14.8990000000
  197      H      12.8350000000     2.5360000000   -10.5450000000
  198      C      12.0500000000     2.2320000000    -9.8560000000
  199      H      11.9960000000     2.9670000000    -9.0560000000
  200      C      10.7150000000     2.1250000000   -10.5770000000
  201      H       9.9260000000     1.8290000000    -9.8890000000
  202      H      10.7680000000     1.3830000000   -11.3710000000
  203      H      10.4390000000     3.0810000000   -11.0160000000
  204      H      12.3280000000     1.2750000000    -9.4200000000
  205      H       5.4110000000    -1.9970000000     0.4390000000
  206      C       6.3330000000    -1.5410000000     0.0850000000
  207      H       7.0970000000    -1.6700000000     0.8470000000
  208      C       6.7790000000    -2.1830000000    -1.2260000000
  209      H       6.9590000000    -3.2490000000    -1.0720000000
  210      H       7.7180000000    -1.7360000000    -1.5570000000
  211      C       5.7350000000    -2.0130000000    -2.3190000000
  212      H       5.5910000000    -0.9600000000    -2.5640000000
  213      H       4.7820000000    -2.4480000000    -2.0150000000
  214      S       6.2620000000    -2.8720000000    -3.8480000000
  215      C       4.7940000000    -2.5580000000    -4.8670000000
  216      H       3.9060000000    -2.8610000000    -4.3190000000
  217      H       4.7440000000    -1.5080000000    -5.1410000000
  218      H       4.8840000000    -3.1600000000    -5.7650000000
  219      H       6.1570000000    -0.4760000000    -0.0520000000
  220      H       9.3650000000     2.4160000000    -2.1670000000
  221      C      10.1110000000     2.5830000000    -2.9400000000
  222      H      11.0990000000     2.4370000000    -2.5090000000
  223      C       9.8860000000     1.6230000000    -4.1120000000
  224      H      10.6520000000     1.7970000000    -4.8710000000
  225      H       9.9840000000     0.5940000000    -3.7570000000
  226      C       8.5200000000     1.8280000000    -4.7070000000
  227      C       8.3360000000     2.6620000000    -5.8020000000
  228      H       9.1930000000     3.1410000000    -6.2550000000
  229      C       7.0700000000     2.8850000000    -6.3150000000
  230      H       6.9410000000     3.5350000000    -7.1680000000
  231      C       5.9700000000     2.2810000000    -5.7340000000
  232      H       4.9800000000     2.4660000000    -6.1190000000
  233      C       6.1440000000     1.4480000000    -4.6420000000
  234      H       5.2820000000     0.9840000000    -4.1850000000
  235      C       7.4090000000     1.2210000000    -4.1350000000
  236      H       7.5440000000     0.5660000000    -3.2840000000
  237      H      10.0260000000     3.6140000000    -3.2770000000
  238      H      10.4410000000     6.6900000000    -7.7710000000
  239      C      10.7380000000     6.3150000000    -8.7480000000
  240      H      11.2000000000     5.3390000000    -8.6170000000
  241      C       9.5230000000     6.2150000000    -9.6680000000
  242      H       9.8540000000     5.8240000000   -10.6360000000
  243      C       8.4870000000     5.2550000000    -9.0860000000
  244      H       8.1230000000     5.6280000000    -8.1310000000
  245      H       8.9210000000     4.2700000000    -8.9320000000
  246      H       7.6400000000     5.1530000000    -9.7610000000
  247      C       8.9030000000     7.5910000000    -9.8890000000
  248      H       8.5310000000     7.9940000000    -8.9490000000
  249      H       8.0700000000     7.5240000000   -10.5870000000
  250      H       9.6400000000     8.2840000000   -10.2890000000
  251      H      11.4780000000     6.9940000000    -9.1650000000
  252      H      12.6820000000    10.9030000000   -13.0180000000
  253      C      12.2990000000    10.5160000000   -13.9590000000
  254      H      13.0820000000     9.9360000000   -14.4420000000
  255      C      11.0740000000     9.6480000000   -13.7080000000
  256      H      11.3560000000     8.7930000000   -13.0890000000
  257      H      10.7010000000     9.2730000000   -14.6640000000
  258      C       9.9430000000    10.3970000000   -13.0230000000
  259      H       9.6950000000    11.3130000000   -13.5620000000
  260      H       9.0550000000     9.7670000000   -12.9530000000
  261      S      10.3850000000    10.8670000000   -11.3080000000
  262      C       8.7410000000    11.3910000000   -10.7530000000
  263      H       8.3720000000    12.1790000000   -11.4040000000
  264      H       8.0650000000    10.5400000000   -10.7600000000
  265      H       8.8520000000    11.7670000000    -9.7410000000
  266      H      12.0450000000    11.3570000000   -14.6010000000
  267      H      10.3920000000    11.2240000000    -6.4850000000
  268      C       9.6530000000    10.6650000000    -5.9150000000
  269      H       9.5310000000    11.1540000000    -4.9520000000
  270      C       8.3360000000    10.6040000000    -6.6800000000
  271      H       8.5370000000    10.2340000000    -7.6880000000
  272      H       7.9260000000    11.6130000000    -6.7750000000
  273      C       7.2890000000     9.6940000000    -6.0300000000
  274      H       7.7230000000     8.6920000000    -5.9260000000
  275      C       6.8850000000    10.1860000000    -4.6440000000
  276      H       7.7310000000    10.2030000000    -3.9620000000
  277      H       6.4660000000    11.1880000000    -4.7090000000
  278      H       6.1290000000     9.5260000000    -4.2270000000
  279      C       6.0540000000     9.6020000000    -6.9230000000
  280      H       6.3170000000     9.2200000000    -7.9070000000
  281      H       5.5990000000    10.5820000000    -7.0460000000
  282      H       5.3100000000     8.9410000000    -6.4850000000
  283      H      10.0410000000     9.6620000000    -5.7460000000
  284      H       7.0810000000     6.7450000000    -3.2390000000
  285      C       6.1510000000     6.3360000000    -2.8490000000
  286      H       5.4560000000     7.1570000000    -2.6880000000
  287      C       5.5560000000     5.3240000000    -3.8270000000
  288      H       6.2740000000     4.5050000000    -3.9590000000
  289      C       4.2570000000     4.7420000000    -3.2770000000
  290      H       3.8440000000     4.0030000000    -3.9590000000
  291      H       4.4270000000     4.2640000000    -2.3140000000
  292      H       3.5210000000     5.5330000000    -3.1410000000
  293      C       5.3090000000     5.9740000000    -5.1850000000
  294      H       4.9250000000     5.2390000000    -5.8870000000
  295      H       6.2320000000     6.3850000000    -5.5890000000
  296      H       4.5830000000     6.7800000000    -5.0950000000
  297      H       6.3580000000     5.8670000000    -1.8890000000
  298      H       3.1940000000     1.5090000000    -2.3400000000
  299      C       2.2150000000     1.0990000000    -2.5800000000
  300      H       1.5430000000     1.9320000000    -2.7690000000
  301      C       2.2900000000     0.2110000000    -3.8110000000
  302      H       3.0050000000    -0.6020000000    -3.6770000000
  303      H       1.3160000000    -0.2420000000    -4.0140000000
  304      C       2.6570000000     0.9720000000    -5.0660000000
  305      O       2.6810000000     2.1750000000    -5.1640000000
  306      O       2.9460000000     0.1570000000    -6.0670000000
  307      H       3.0490000000     0.6530000000    -6.9260000000
  308      H       1.8500000000     0.5350000000    -1.7250000000
  309      H      -4.6320000000    -0.7010000000    -5.1120000000
  310      C      -3.6020000000    -1.0490000000    -5.1490000000
  311      H      -3.5450000000    -2.0190000000    -4.6600000000
  312      C      -3.1200000000    -1.1510000000    -6.5910000000
  313      H      -3.7220000000    -1.8850000000    -7.1350000000
  314      H      -3.2460000000    -0.1860000000    -7.0870000000
  315      C      -1.6590000000    -1.5700000000    -6.6640000000
  316      H      -1.4880000000    -2.4700000000    -6.0730000000
  317      H      -1.3410000000    -1.7530000000    -7.6910000000
  318      S      -0.5310000000    -0.3100000000    -5.9770000000
  319      C      -0.3200000000     0.7490000000    -7.4300000000
  320      H      -1.2750000000     1.1760000000    -7.7210000000
  321      H       0.1040000000     0.1580000000    -8.2370000000
  322      H       0.3630000000     1.5430000000    -7.1490000000
  323      H      -2.9760000000    -0.3500000000    -4.6000000000
  324      H      -0.9770000000     5.2370000000    -3.9970000000
  325      C      -0.1390000000     4.5500000000    -4.1100000000
  326      H      -0.3600000000     3.6480000000    -3.5420000000
  327      C       0.0970000000     4.2100000000    -5.5730000000
  328      H       0.9750000000     3.5780000000    -5.6670000000
  329      H       0.2500000000     5.1070000000    -6.1680000000
  330      H      -0.7580000000     3.6770000000    -5.9830000000
  331      H       0.7450000000     5.0110000000    -3.6760000000
  332      H       1.3700000000     9.7340000000    -2.2180000000
  333      C       2.4160000000    10.0100000000    -2.3390000000
  334      H       2.8910000000    10.0080000000    -1.3590000000
  335      C       3.1160000000     9.0270000000    -3.2780000000
  336      H       4.1710000000     9.3080000000    -3.3520000000
  337      H       3.0600000000     8.0210000000    -2.8540000000
  338      C       2.5030000000     9.0180000000    -4.6410000000
  339      C       1.7830000000     8.0080000000    -5.2200000000
  340      H       1.5450000000     7.0410000000    -4.8200000000
  341      N       1.3640000000     8.3640000000    -6.4660000000
  342      H       0.7900000000     7.7990000000    -7.0980000000
  343      C       1.8010000000     9.6240000000    -6.7220000000
  344      C       1.6260000000    10.4210000000    -7.8480000000
  345      H       1.0780000000    10.0450000000    -8.6990000000
  346      C       2.1810000000    11.6810000000    -7.8370000000
  347      H       2.0650000000    12.3260000000    -8.6950000000
  348      C       2.9080000000    12.1410000000    -6.7340000000
  349      H       3.3330000000    13.1340000000    -6.7670000000
  350      C       3.0930000000    11.3570000000    -5.6180000000
  351      H       3.6640000000    11.7240000000    -4.7770000000
  352      C       2.5320000000    10.0800000000    -5.5930000000
  353      H       2.4560000000    11.0170000000    -2.7450000000
  354      H      10.0580000000    14.7840000000    -4.4790000000
  355      C       9.1280000000    15.1180000000    -4.9330000000
  356      H       9.1830000000    14.9150000000    -6.0000000000
  357      C       7.9430000000    14.3990000000    -4.2970000000
  358      H       7.9730000000    14.5680000000    -3.2180000000
  359      H       8.0370000000    13.3240000000    -4.4650000000
  360      C       6.5840000000    14.8710000000    -4.8290000000
  361      H       6.5740000000    15.9680000000    -4.8200000000
  362      C       6.3390000000    14.3940000000    -6.2580000000
  363      H       6.2900000000    13.3070000000    -6.2910000000
  364      H       5.3950000000    14.7860000000    -6.6310000000
  365      H       7.1280000000    14.7260000000    -6.9260000000
  366      C       5.4630000000    14.3710000000    -3.9190000000
  367      H       5.4790000000    13.2850000000    -3.8620000000
  368      H       5.5760000000    14.7660000000    -2.9110000000
  369      H       4.4920000000    14.6790000000    -4.3010000000
  370      H       9.0430000000    16.1940000000    -4.7920000000
  371      O       0.8030000000     6.3080000000   -11.6630000000
  372      H       0.3390000000     7.1540000000   -11.5390000000
  373      H       0.5280000000     5.7870000000   -10.8760000000
  374      O       3.4960000000    10.4740000000   -18.0240000000
  375      H       3.4380000000     9.6600000000   -18.5460000000
  376      H       4.2400000000    10.3550000000   -17.4030000000
  377      O       0.9500000000     6.2080000000   -14.4260000000
  378      H       0.9170000000     6.0980000000   -13.4580000000
  379      H       0.4950000000     7.0530000000   -14.5800000000
  380      O       1.9850000000    11.7080000000   -13.9740000000
  381      H       2.9070000000    11.4860000000   -13.7650000000
  382      H       1.8320000000    11.3340000000   -14.8550000000
  383      O       1.3970000000    10.4650000000   -16.4540000000
  384      H       2.1860000000    10.5220000000   -17.0530000000
  385      H       0.7270000000    11.0330000000   -16.8370000000
  386      O      -0.1390000000     8.7580000000   -14.9430000000
  387      H       0.5460000000     9.2240000000   -15.4480000000
  388      H      -0.3140000000     9.3800000000   -14.1910000000
  389      O      -0.4130000000    10.6390000000   -13.1080000000
  390      H       0.4440000000    11.0890000000   -13.2280000000
  391      H      -0.3750000000    10.1280000000   -12.2840000000
  392      O       6.0500000000     8.3780000000   -18.8750000000
  393      H       6.0580000000     7.8760000000   -18.0520000000
  394      H       5.1520000000     8.3080000000   -19.2180000000
  395      O       5.5060000000     9.8650000000   -16.2350000000
  396      H       6.2670000000    10.0070000000   -16.8050000000
  397      H       5.4110000000     8.8940000000   -16.1630000000
  398      O      -0.8440000000     8.5500000000   -11.3610000000
  399      H      -1.3860000000     8.4420000000   -10.5520000000
  400      H      -1.4240000000     8.2530000000   -12.0680000000
 ----------------------------------------------------------------
 Nuclear Repulsion Energy =       50798.87238325 hartrees
 There are      629 alpha and      629 beta electrons
 Requested basis set is 6-31G(d)
 There are 1113 shells and 2827 basis functions

 Total QAlloc Memory Limit  64000 MB
 Mega-Array Size      3911 MB
 MEM_STATIC part      4000 MB

 A cutoff of  1.0D-14 yielded 137631 shell pairs
 There are    847984 function pairs
 Smallest overlap matrix eigenvalue = 3.24E-04

 Scale SEOQF with 1.000000e-02/1.000000e-02/1.000000e-03

 Standard Electronic Orientation quadrupole field applied
 Nucleus-field energy     =     0.0000004324 hartrees
 Guess from superposition of atomic densities
 Warning:  Energy on first SCF cycle will be non-variational
 SAD guess density has 1257.000004 electrons

 -----------------------------------------------------------------------
  General SCF calculation program by
  Eric Jon Sundstrom, Paul Horn, Yuezhi Mao, Dmitri Zuev, Alec White,
  David Stuck, Shaama M.S., Shane Yost, Joonho Lee, David Small,
  Daniel Levine, Susi Lehtola, Hugh Burton, Evgeny Epifanovsky,
  Bang C. Huynh
 -----------------------------------------------------------------------
=================================================
        Doing projection-based embedding         
      F. Manby et al. JCTC, 8, 2564 (2012)       
=================================================

****************************************************
   Low-level SCF calculation for the whole system   
****************************************************
----------------------------------------------
 Summary of the low-level theory: 
 Exchange:     0.1670 Hartree-Fock + 1.0000 wB97X-V + LR-HF
 Correlation:  1.0000 wB97X-V
 Using Euler-Maclaurin-Lebedev (75,302) quadrature formula
 Nonlocal Correlation:  VV10 with C = 0.0100 and b = 6.00 and scale = 1.00000
 Grid used for NLC:  SG-1 standard quadrature
----------------------------------------------
 using 32 threads for integral computing
 -------------------------------------------------------
 OpenMP Integral computing Module                
 Release: version 1.0, May 2013, Q-Chem Inc. Pittsburgh 
 -------------------------------------------------------
 A restricted SCF calculation will be
 performed using DIIS
 SCF converges when DIIS error is below 1.0e-08
 ---------------------------------------
  Cycle       Energy         DIIS error
 ---------------------------------------
    1   -8128.2000774254      1.46e-02  
    2   -8084.4148349129      1.43e-03  
    3   -8084.8854197989      1.38e-03  
    4   -8086.2136499557      2.26e-04  
    5   -8086.2480572925      1.04e-04  
    6   -8086.2562866064      2.22e-05  
    7   -8086.2567180640      6.56e-06  
    8   -8086.2567661891      2.37e-06  
    9   -8086.2567736999      1.07e-06  
   10   -8086.2567755475      3.99e-07  
   11   -8086.2567758089      1.75e-07  
   12   -8086.2567758758      5.78e-08  
   13   -8086.2567758840      2.52e-08  
   14   -8086.2567758860      1.35e-08  
   15   -8086.2567758865      5.30e-09  Convergence criterion met
 ---------------------------------------
 SCF time:   CPU 117299.89s  wall 3962.00s 
 SCF   energy in the final basis set =    -8086.2567758865
 Total energy in the final basis set =    -8086.2567758865

****************************************************
             Start embedding calculation            
****************************************************
----------------------------------------------
 Summary of the high-level theory: 
 Exchange:     0.1670 Hartree-Fock + 1.0000 wB97X-V + LR-HF
 Correlation:  1.0000 wB97X-V
 Using Euler-Maclaurin-Lebedev (75,302) quadrature formula
 Nonlocal Correlation:  VV10 with C = 0.0100 and b = 6.00 and scale = 1.00000
 Grid used for NLC:  SG-1 standard quadrature
----------------------------------------------
Doing R-in-R Embedding Calculation
Number of fragments: 2
Embedded fragment(s): 1 
NOcc for each fragment
           75
          554
NBasis for each fragment
          352
         2475
Variational space of the embedded problem: 
NOcc (active)  = 75
NOcc (fixed)   = 554
NVir (total)   = 2198
Read converged orbitals from disk
=========================================================
       Doing SPADE partition for the orbital space       
     D. Claudino and N. Mayhall JCTC 15, 1053 (2019)     
=========================================================
SPADE singular values:
 1.0000 1.0000 1.0000 1.0000 1.0000 1.0000 1.0000 1.0000 1.0000 1.0000
 1.0000 1.0000 1.0000 1.0000 1.0000 1.0000 1.0000 1.0000 1.0000 1.0000
 1.0000 1.0000 1.0000 1.0000 1.0000 1.0000 1.0000 1.0000 1.0000 1.0000
 1.0000 1.0000 1.0000 1.0000 1.0000 1.0000 1.0000 1.0000 1.0000 1.0000
 1.0000 0.9999 0.9999 0.9999 0.9998 0.9998 0.9998 0.9998 0.9997 0.9997
 0.9997 0.9996 0.9996 0.9995 0.9995 0.9994 0.9993 0.9992 0.9991 0.9990
 0.9989 0.9988 0.9988 0.9986 0.9985 0.9984 0.9984 0.9982 0.9979 0.9978
 0.9970 0.9965 0.9815 0.9773 0.9724 0.1780 0.1588 0.1336 0.0954 0.0917
 0.0873 0.0795 0.0788 0.0720 0.0693 0.0672 0.0623 0.0594 0.0577 0.0555
 0.0536 0.0489 0.0465 0.0450 0.0446 0.0433 0.0427 0.0367 0.0343 0.0321
 0.0307 0.0283 0.0274 0.0254 0.0247 0.0238 0.0232 0.0222 0.0196 0.0188
 0.0179 0.0163 0.0160 0.0158 0.0153 0.0144 0.0127 0.0120 0.0114 0.0111
 0.0106 0.0101 0.0099 0.0093 0.0088 0.0083 0.0081 0.0078 0.0074 0.0070
 0.0062 0.0060 0.0055 0.0053 0.0052 0.0046 0.0044 0.0044 0.0043 0.0039
 0.0037 0.0036 0.0035 0.0034 0.0033 0.0031 0.0030 0.0029 0.0028 0.0027
 0.0026 0.0023 0.0022 0.0020 0.0020 0.0018 0.0018 0.0017 0.0016 0.0016
 0.0015 0.0015 0.0014 0.0014 0.0013 0.0012 0.0012 0.0012 0.0012 0.0011
 0.0011 0.0011 0.0010 0.0010 0.0010 0.0010 0.0009 0.0009 0.0009 0.0008
 0.0008 0.0008 0.0008 0.0008 0.0007 0.0007 0.0007 0.0007 0.0007 0.0006
 0.0006 0.0006 0.0006 0.0006 0.0005 0.0005 0.0005 0.0005 0.0005 0.0005
 0.0005 0.0005 0.0004 0.0004 0.0004 0.0004 0.0004 0.0004 0.0004 0.0004
 0.0004 0.0004 0.0004 0.0003 0.0003 0.0003 0.0003 0.0003 0.0003 0.0003
 0.0003 0.0003 0.0003 0.0003 0.0003 0.0002 0.0002 0.0002 0.0002 0.0002
 0.0002 0.0002 0.0002 0.0002 0.0002 0.0002 0.0002 0.0002 0.0002 0.0002
 0.0002 0.0001 0.0001 0.0001 0.0001 0.0001 0.0001 0.0001 0.0001 0.0001
 0.0001 0.0001 0.0001 0.0001 0.0001 0.0001 0.0001 0.0001 0.0001 0.0001
 0.0001 0.0001 0.0001 0.0001 0.0001 0.0001 0.0001 0.0001 0.0001 0.0001
 0.0001 0.0001 0.0001 0.0001 0.0001 0.0001 0.0001 0.0001 0.0001 0.0001
 0.0001 0.0000 0.0000 0.0000 0.0000 0.0000 0.0000 0.0000 0.0000 0.0000
 0.0000 0.0000 0.0000 0.0000 0.0000 0.0000 0.0000 0.0000 0.0000 0.0000
 0.0000 0.0000 0.0000 0.0000 0.0000 0.0000 0.0000 0.0000 0.0000 0.0000
 0.0000 0.0000 0.0000 0.0000 0.0000 0.0000 0.0000 0.0000 0.0000 0.0000
 0.0000 0.0000 0.0000 0.0000 0.0000 0.0000 0.0000 0.0000 0.0000 0.0000
 0.0000 0.0000 0.0000 0.0000 0.0000 0.0000 0.0000 0.0000 0.0000 0.0000
 0.0000 0.0000 0.0000 0.0000 0.0000 0.0000 0.0000 0.0000 0.0000 0.0000
 0.0000 0.0000
Early stop requested; no embedded SCF will be performed

 554 environment occs will be part of frozen-core in future post-HF calculations
 
 --------------------------------------------------------------
 
                    Orbital Energies (a.u.)
 --------------------------------------------------------------
 
 Alpha MOs
 -- Occupied --
-88.8135 -88.8133 -88.8007 -19.2001 -19.1968 -19.1963 -19.1851 -19.1814
-19.1798 -19.1772 -19.1673 -19.1652 -19.1566 -19.1548 -19.1517 -19.1390
-19.1373 -19.1285 -19.1216 -19.1215 -19.1206 -19.1206 -19.0919 -19.0805
-14.4298 -14.4295 -14.3978 -14.3756 -14.3740 -14.3613 -10.3661 -10.3628
-10.3471 -10.3272 -10.3120 -10.3085 -10.2827 -10.2814 -10.2808 -10.2797
-10.2734 -10.2634 -10.2606 -10.2595 -10.2555 -10.2512 -10.2502 -10.2467
-10.2447 -10.2437 -10.2422 -10.2421 -10.2395 -10.2392 -10.2388 -10.2386
-10.2385 -10.2362 -10.2354 -10.2348 -10.2334 -10.2334 -10.2325 -10.2317
-10.2316 -10.2313 -10.2288 -10.2283 -10.2279 -10.2277 -10.2276 -10.2274
-10.2266 -10.2263 -10.2254 -10.2250 -10.2246 -10.2239 -10.2237 -10.2224
-10.2218 -10.2216 -10.2206 -10.2200 -10.2198 -10.2196 -10.2193 -10.2179
-10.2179 -10.2177 -10.2175 -10.2171 -10.2170 -10.2167 -10.2165 -10.2164
-10.2157 -10.2151 -10.2150 -10.2149 -10.2147 -10.2143 -10.2142 -10.2138
-10.2138 -10.2137 -10.2136 -10.2127 -10.2122 -10.2114 -10.2113 -10.2106
-10.2095 -10.2094 -10.2091 -10.2079 -10.2076 -10.2063 -10.2051 -10.2043
-10.2039 -10.2037 -10.2036 -10.2003 -10.2001 -10.1985 -10.1978 -10.1956
-10.1955 -10.1932 -10.1919 -10.1905 -10.1889 -10.1830 -10.1816  -7.9801
 -7.9800  -7.9674  -5.9381  -5.9380  -5.9340  -5.9339  -5.9266  -5.9264
 -5.9253  -5.9212  -5.9139  -1.1661  -1.1561  -1.1456  -1.1282  -1.1116
 -1.1084  -1.1011  -1.0980  -1.0932  -1.0892  -1.0737  -1.0721  -1.0714
 -1.0652  -1.0598  -1.0586  -1.0406  -1.0365  -1.0353  -1.0298  -1.0268
 -1.0207  -1.0158  -1.0063  -0.9992  -0.9784  -0.9577  -0.9436  -0.9387
 -0.9283  -0.9081  -0.9058  -0.9043  -0.9043  -0.8991  -0.8983  -0.8975
 -0.8946  -0.8911  -0.8873  -0.8835  -0.8752  -0.8726  -0.8704  -0.8683
 -0.8665  -0.8637  -0.8568  -0.8565  -0.8510  -0.8487  -0.8482  -0.8417
 -0.8333  -0.8320  -0.8235  -0.8228  -0.8204  -0.8185  -0.8152  -0.8132
 -0.8128  -0.8111  -0.8072  -0.8038  -0.8012  -0.8011  -0.7951  -0.7899
 -0.7838  -0.7758  -0.7728  -0.7696  -0.7674  -0.7656  -0.7644  -0.7625
 -0.7623  -0.7621  -0.7575  -0.7541  -0.7482  -0.7479  -0.7426  -0.7380
 -0.7373  -0.7335  -0.7284  -0.7214  -0.7213  -0.7107  -0.7084  -0.7032
 -0.7018  -0.6992  -0.6992  -0.6938  -0.6910  -0.6910  -0.6907  -0.6893
 -0.6866  -0.6861  -0.6775  -0.6746  -0.6742  -0.6731  -0.6695  -0.6632
 -0.6583  -0.6540  -0.6479  -0.6453  -0.6447  -0.6444  -0.6437  -0.6372
 -0.6371  -0.6343  -0.6332  -0.6310  -0.6299  -0.6273  -0.6249  -0.6234
 -0.6164  -0.6121  -0.6114  -0.6090  -0.6017  -0.6001  -0.5996  -0.5993
 -0.5964  -0.5948  -0.5904  -0.5868  -0.5836  -0.5786  -0.5780  -0.5765
 -0.5757  -0.5663  -0.5657  -0.5608  -0.5589  -0.5584  -0.5520  -0.5510
 -0.5501  -0.5487  -0.5478  -0.5459  -0.5448  -0.5418  -0.5402  -0.5384
 -0.5377  -0.5355  -0.5344  -0.5340  -0.5339  -0.5336  -0.5299  -0.5297
 -0.5266  -0.5263  -0.5259  -0.5246  -0.5231  -0.5230  -0.5228  -0.5223
 -0.5203  -0.5197  -0.5174  -0.5171  -0.5164  -0.5160  -0.5141  -0.5117
 -0.5097  -0.5085  -0.5076  -0.5075  -0.5044  -0.5036  -0.5032  -0.5026
 -0.4999  -0.4994  -0.4970  -0.4965  -0.4960  -0.4947  -0.4942  -0.4942
 -0.4926  -0.4913  -0.4904  -0.4881  -0.4880  -0.4878  -0.4871  -0.4866
 -0.4857  -0.4838  -0.4830  -0.4823  -0.4815  -0.4813  -0.4805  -0.4796
 -0.4793  -0.4789  -0.4760  -0.4758  -0.4754  -0.4753  -0.4743  -0.4733
 -0.4729  -0.4724  -0.4718  -0.4714  -0.4708  -0.4698  -0.4694  -0.4682
 -0.4675  -0.4663  -0.4657  -0.4627  -0.4624  -0.4622  -0.4621  -0.4611
 -0.4598  -0.4585  -0.4572  -0.4567  -0.4564  -0.4554  -0.4533  -0.4525
 -0.4519  -0.4500  -0.4494  -0.4472  -0.4464  -0.4456  -0.4451  -0.4443
 -0.4441  -0.4435  -0.4431  -0.4422  -0.4421  -0.4391  -0.4390  -0.4383
 -0.4379  -0.4375  -0.4360  -0.4359  -0.4352  -0.4341  -0.4331  -0.4317
 -0.4299  -0.4277  -0.4269  -0.4259  -0.4232  -0.4226  -0.4222  -0.4221
 -0.4216  -0.4199  -0.4196  -0.4187  -0.4182  -0.4180  -0.4172  -0.4160
 -0.4152  -0.4148  -0.4144  -0.4135  -0.4128  -0.4125  -0.4122  -0.4110
 -0.4107  -0.4082  -0.4070  -0.4065  -0.4062  -0.4055  -0.4053  -0.4051
 -0.4039  -0.4024  -0.4019  -0.4015  -0.4010  -0.4006  -0.3998  -0.3992
 -0.3985  -0.3975  -0.3964  -0.3963  -0.3953  -0.3944  -0.3938  -0.3934
 -0.3914  -0.3901  -0.3893  -0.3892  -0.3875  -0.3869  -0.3855  -0.3850
 -0.3839  -0.3818  -0.3813  -0.3808  -0.3802  -0.3793  -0.3790  -0.3785
 -0.3784  -0.3769  -0.3765  -0.3758  -0.3749  -0.3744  -0.3734  -0.3722
 -0.3716  -0.3715  -0.3703  -0.3699  -0.3696  -0.3693  -0.3692  -0.3690
 -0.3686  -0.3686  -0.3660  -0.3658  -0.3643  -0.3632  -0.3628  -0.3619
 -0.3597  -0.3572  -0.3566  -0.3560  -0.3557  -0.3553  -0.3536  -0.3533
 -0.3532  -0.3524  -0.3516  -0.3504  -0.3498  -0.3488  -0.3487  -0.3449
 -0.3434  -0.3429  -0.3394  -0.3381  -0.3344  -0.3321  -0.3286  -0.3259
 -0.3226  -0.3151  -0.3143  -0.3115  -0.3058  -0.2982  -0.2976  -0.2921
 -0.2916  -0.2876  -0.2841  -0.2825  -0.2812  -0.2801  -0.2748  -0.2668
 -0.2652  -0.2646  -0.2628  -0.2534  -0.2518  -0.2459  -0.2440  -0.2335
 -0.2332  -0.2092 -10.1040 -10.1474 -10.1847 -10.1192 -10.1111 -10.0820
 -9.8565 -10.0311  -9.9989 -10.0279 -10.0587 -10.0008 -10.1280 -11.6180
 -9.9770 -13.3171 -10.6899 -10.8606  -8.4452  -1.3861  -2.0799  -3.7960
-11.8369  -1.7862  -1.1132  -0.9106  -2.4584  -1.1088  -1.1301  -1.1065
 -0.9050  -1.0550  -0.9758  -1.0367  -0.9543  -1.4774  -1.2724  -0.6910
 -0.7175  -0.5531  -0.7072  -0.6181  -0.5678  -0.4840  -0.6297  -0.4901
 -1.7942  -0.5227  -0.4986  -0.4993  -0.4561  -0.5235  -0.4673  -0.4983
 -0.4780  -0.4855  -0.4782  -0.4497  -0.4550  -0.4492  -0.4523  -0.4319
 -0.4425  -0.4244  -0.4304  -0.4234  -0.4104  -0.4082  -0.4021  -0.4195
 -0.3924  -0.3527  -0.4544  -0.3641  -0.6346
 -- Virtual --
  0.0853   0.1353   0.1371   0.1378   0.1382   0.1399   0.1411   0.1469
  0.1517   0.1596   0.1613   0.1665   0.1688   0.1722   0.1755   0.1775
  0.1790   0.1815   0.1826   0.1856   0.1873   0.1895   0.1924   0.1945
  0.1960   0.1979   0.1994   0.2013   0.2046   0.2060   0.2087   0.2113
  0.2126   0.2143   0.2170   0.2174   0.2195   0.2196   0.2212   0.2220
  0.2245   0.2259   0.2274   0.2296   0.2310   0.2329   0.2335   0.2346
  0.2348   0.2381   0.2392   0.2403   0.2409   0.2425   0.2430   0.2435
  0.2442   0.2459   0.2469   0.2477   0.2485   0.2504   0.2509   0.2515
  0.2537   0.2545   0.2556   0.2561   0.2567   0.2574   0.2583   0.2601
  0.2609   0.2622   0.2628   0.2643   0.2648   0.2657   0.2669   0.2677
  0.2682   0.2691   0.2697   0.2711   0.2720   0.2728   0.2731   0.2743
  0.2755   0.2760   0.2777   0.2783   0.2793   0.2798   0.2809   0.2824
  0.2825   0.2842   0.2850   0.2855   0.2859   0.2864   0.2873   0.2895
  0.2902   0.2909   0.2916   0.2923   0.2932   0.2934   0.2949   0.2952
  0.2956   0.2960   0.2968   0.2973   0.2983   0.2990   0.2998   0.3003
  0.3013   0.3021   0.3029   0.3039   0.3040   0.3046   0.3051   0.3059
  0.3066   0.3068   0.3073   0.3083   0.3087   0.3095   0.3109   0.3112
  0.3118   0.3129   0.3131   0.3132   0.3151   0.3162   0.3167   0.3182
  0.3183   0.3186   0.3198   0.3203   0.3211   0.3218   0.3224   0.3228
  0.3234   0.3247   0.3251   0.3256   0.3259   0.3266   0.3271   0.3285
  0.3289   0.3292   0.3301   0.3308   0.3315   0.3318   0.3322   0.3327
  0.3334   0.3338   0.3346   0.3352   0.3360   0.3367   0.3372   0.3376
  0.3383   0.3387   0.3399   0.3401   0.3406   0.3413   0.3421   0.3427
  0.3438   0.3448   0.3461   0.3464   0.3483   0.3484   0.3491   0.3501
  0.3502   0.3513   0.3528   0.3534   0.3536   0.3551   0.3552   0.3555
  0.3565   0.3574   0.3584   0.3591   0.3599   0.3612   0.3618   0.3625
  0.3625   0.3635   0.3645   0.3649   0.3658   0.3660   0.3674   0.3679
  0.3685   0.3695   0.3709   0.3711   0.3718   0.3729   0.3734   0.3748
  0.3752   0.3757   0.3764   0.3778   0.3782   0.3785   0.3794   0.3799
  0.3809   0.3813   0.3817   0.3829   0.3833   0.3840   0.3849   0.3857
  0.3865   0.3870   0.3883   0.3892   0.3900   0.3904   0.3913   0.3915
  0.3931   0.3936   0.3942   0.3955   0.3960   0.3964   0.3969   0.3978
  0.3989   0.3993   0.3997   0.4000   0.4009   0.4022   0.4025   0.4035
  0.4051   0.4056   0.4062   0.4073   0.4075   0.4078   0.4086   0.4094
  0.4101   0.4112   0.4126   0.4133   0.4144   0.4150   0.4152   0.4158
  0.4161   0.4169   0.4179   0.4186   0.4188   0.4200   0.4207   0.4215
  0.4225   0.4238   0.4242   0.4250   0.4252   0.4265   0.4274   0.4280
  0.4287   0.4295   0.4300   0.4312   0.4322   0.4330   0.4331   0.4339
  0.4351   0.4358   0.4369   0.4375   0.4383   0.4393   0.4401   0.4423
  0.4428   0.4434   0.4440   0.4454   0.4466   0.4474   0.4485   0.4492
  0.4500   0.4506   0.4514   0.4525   0.4545   0.4551   0.4557   0.4565
  0.4577   0.4597   0.4603   0.4615   0.4629   0.4637   0.4650   0.4659
  0.4681   0.4689   0.4693   0.4713   0.4720   0.4731   0.4753   0.4762
  0.4784   0.4805   0.4820   0.4823   0.4830   0.4847   0.4860   0.4884
  0.4896   0.4913   0.4946   0.4956   0.4971   0.4997   0.4999   0.5060
  0.5077   0.5086   0.5096   0.5120   0.5127   0.5186   0.5195   0.5210
  0.5221   0.5243   0.5258   0.5276   0.5291   0.5311   0.5335   0.5343
  0.5376   0.5408   0.5421   0.5431   0.5440   0.5466   0.5482   0.5528
  0.5544   0.5569   0.5585   0.5600   0.5601   0.5626   0.5666   0.5719
  0.5770   0.5786   0.5836   0.5841   0.5893   0.5925   0.5938   0.5956
  0.5996   0.6052   0.6074   0.6145   0.6238   0.6292   0.6322   0.6343
  0.6364   0.6377   0.6393   0.6412   0.6414   0.6424   0.6432   0.6459
  0.6474   0.6480   0.6511   0.6539   0.6541   0.6551   0.6556   0.6566
  0.6607   0.6616   0.6617   0.6641   0.6655   0.6660   0.6669   0.6680
  0.6690   0.6695   0.6704   0.6715   0.6732   0.6732   0.6744   0.6749
  0.6756   0.6767   0.6767   0.6772   0.6790   0.6803   0.6806   0.6823
  0.6835   0.6841   0.6849   0.6861   0.6871   0.6885   0.6893   0.6900
  0.6910   0.6917   0.6921   0.6930   0.6936   0.6953   0.6961   0.6976
  0.6998   0.7011   0.7016   0.7024   0.7038   0.7048   0.7056   0.7063
  0.7070   0.7076   0.7090   0.7095   0.7111   0.7122   0.7141   0.7145
  0.7152   0.7159   0.7177   0.7183   0.7193   0.7212   0.7225   0.7241
  0.7247   0.7254   0.7267   0.7274   0.7287   0.7298   0.7303   0.7314
  0.7328   0.7352   0.7352   0.7367   0.7376   0.7379   0.7399   0.7411
  0.7420   0.7428   0.7441   0.7451   0.7461   0.7465   0.7489   0.7499
  0.7501   0.7505   0.7521   0.7532   0.7544   0.7547   0.7555   0.7563
  0.7586   0.7600   0.7604   0.7622   0.7629   0.7638   0.7653   0.7664
  0.7664   0.7687   0.7695   0.7697   0.7713   0.7720   0.7733   0.7739
  0.7758   0.7781   0.7785   0.7797   0.7806   0.7813   0.7825   0.7832
  0.7851   0.7858   0.7867   0.7871   0.7890   0.7906   0.7916   0.7938
  0.7943   0.7956   0.7962   0.7991   0.8004   0.8010   0.8013   0.8020
  0.8032   0.8050   0.8057   0.8077   0.8084   0.8101   0.8117   0.8131
  0.8138   0.8145   0.8171   0.8173   0.8178   0.8181   0.8198   0.8205
  0.8216   0.8221   0.8231   0.8238   0.8251   0.8255   0.8260   0.8269
  0.8289   0.8301   0.8303   0.8308   0.8311   0.8332   0.8337   0.8348
  0.8360   0.8367   0.8372   0.8376   0.8383   0.8402   0.8405   0.8412
  0.8431   0.8442   0.8447   0.8459   0.8464   0.8472   0.8482   0.8486
  0.8495   0.8502   0.8513   0.8524   0.8532   0.8538   0.8558   0.8569
  0.8583   0.8590   0.8599   0.8618   0.8629   0.8638   0.8648   0.8660
  0.8665   0.8682   0.8687   0.8697   0.8706   0.8719   0.8734   0.8746
  0.8765   0.8777   0.8782   0.8792   0.8795   0.8812   0.8815   0.8827
  0.8839   0.8846   0.8864   0.8870   0.8878   0.8896   0.8906   0.8921
  0.8928   0.8935   0.8953   0.8967   0.8969   0.8979   0.9000   0.9006
  0.9012   0.9023   0.9035   0.9045   0.9049   0.9058   0.9072   0.9089
  0.9095   0.9105   0.9121   0.9125   0.9140   0.9151   0.9165   0.9174
  0.9179   0.9183   0.9202   0.9208   0.9221   0.9224   0.9239   0.9256
  0.9280   0.9295   0.9302   0.9310   0.9325   0.9350   0.9364   0.9378
  0.9386   0.9402   0.9411   0.9417   0.9426   0.9443   0.9456   0.9468
  0.9488   0.9499   0.9526   0.9535   0.9556   0.9559   0.9577   0.9582
  0.9594   0.9608   0.9613   0.9635   0.9647   0.9658   0.9677   0.9689
  0.9693   0.9710   0.9729   0.9737   0.9743   0.9765   0.9771   0.9779
  0.9800   0.9812   0.9834   0.9848   0.9866   0.9877   0.9888   0.9893
  0.9904   0.9919   0.9932   0.9938   0.9946   0.9966   0.9978   0.9990
  1.0001   1.0009   1.0027   1.0038   1.0045   1.0055   1.0067   1.0070
  1.0084   1.0112   1.0122   1.0128   1.0136   1.0143   1.0146   1.0156
  1.0178   1.0189   1.0197   1.0202   1.0204   1.0213   1.0221   1.0242
  1.0250   1.0253   1.0258   1.0264   1.0277   1.0283   1.0295   1.0306
  1.0317   1.0320   1.0340   1.0349   1.0355   1.0371   1.0384   1.0388
  1.0390   1.0398   1.0408   1.0410   1.0422   1.0430   1.0433   1.0444
  1.0450   1.0453   1.0469   1.0472   1.0483   1.0490   1.0494   1.0504
  1.0510   1.0513   1.0527   1.0532   1.0536   1.0541   1.0554   1.0557
  1.0559   1.0572   1.0578   1.0585   1.0593   1.0599   1.0602   1.0610
  1.0616   1.0618   1.0625   1.0630   1.0640   1.0646   1.0653   1.0668
  1.0674   1.0676   1.0693   1.0701   1.0705   1.0707   1.0713   1.0717
  1.0731   1.0737   1.0743   1.0754   1.0758   1.0770   1.0781   1.0787
  1.0791   1.0797   1.0800   1.0806   1.0815   1.0829   1.0843   1.0848
  1.0854   1.0859   1.0868   1.0875   1.0887   1.0906   1.0914   1.0918
  1.0924   1.0928   1.0931   1.0941   1.0946   1.0956   1.0967   1.0981
  1.0984   1.0991   1.0997   1.1002   1.1010   1.1012   1.1013   1.1032
  1.1038   1.1049   1.1055   1.1059   1.1069   1.1078   1.1082   1.1088
  1.1089   1.1095   1.1102   1.1111   1.1121   1.1135   1.1142   1.1156
  1.1158   1.1163   1.1179   1.1188   1.1192   1.1197   1.1208   1.1212
  1.1225   1.1234   1.1236   1.1262   1.1268   1.1278   1.1282   1.1284
  1.1296   1.1302   1.1311   1.1322   1.1327   1.1334   1.1347   1.1352
  1.1362   1.1369   1.1378   1.1382   1.1400   1.1406   1.1421   1.1435
  1.1445   1.1452   1.1462   1.1467   1.1472   1.1492   1.1504   1.1510
  1.1521   1.1537   1.1548   1.1550   1.1557   1.1562   1.1571   1.1575
  1.1583   1.1591   1.1617   1.1622   1.1628   1.1637   1.1642   1.1646
  1.1663   1.1672   1.1680   1.1687   1.1693   1.1711   1.1715   1.1737
  1.1739   1.1749   1.1757   1.1762   1.1777   1.1786   1.1791   1.1806
  1.1813   1.1819   1.1824   1.1833   1.1846   1.1853   1.1863   1.1867
  1.1883   1.1888   1.1898   1.1916   1.1931   1.1942   1.1958   1.1963
  1.1976   1.1982   1.1992   1.1995   1.2016   1.2021   1.2025   1.2033
  1.2048   1.2074   1.2082   1.2090   1.2103   1.2108   1.2122   1.2127
  1.2143   1.2153   1.2166   1.2172   1.2207   1.2208   1.2216   1.2238
  1.2243   1.2255   1.2269   1.2302   1.2312   1.2325   1.2344   1.2350
  1.2358   1.2375   1.2384   1.2399   1.2402   1.2430   1.2447   1.2450
  1.2458   1.2480   1.2498   1.2518   1.2536   1.2538   1.2551   1.2564
  1.2566   1.2578   1.2582   1.2605   1.2616   1.2630   1.2645   1.2653
  1.2674   1.2686   1.2718   1.2726   1.2748   1.2756   1.2762   1.2773
  1.2780   1.2789   1.2816   1.2821   1.2832   1.2853   1.2858   1.2871
  1.2884   1.2901   1.2912   1.2925   1.2927   1.2960   1.2983   1.3001
  1.3009   1.3016   1.3047   1.3059   1.3067   1.3092   1.3107   1.3117
  1.3134   1.3156   1.3166   1.3195   1.3204   1.3213   1.3220   1.3231
  1.3257   1.3264   1.3272   1.3293   1.3311   1.3329   1.3348   1.3364
  1.3378   1.3387   1.3408   1.3436   1.3446   1.3476   1.3494   1.3499
  1.3508   1.3543   1.3563   1.3591   1.3604   1.3618   1.3626   1.3635
  1.3655   1.3666   1.3714   1.3721   1.3746   1.3771   1.3781   1.3797
  1.3805   1.3844   1.3847   1.3868   1.3873   1.3884   1.3905   1.3925
  1.3931   1.3938   1.3965   1.4008   1.4018   1.4026   1.4041   1.4072
  1.4089   1.4106   1.4115   1.4124   1.4150   1.4173   1.4191   1.4213
  1.4230   1.4256   1.4260   1.4294   1.4335   1.4341   1.4350   1.4371
  1.4382   1.4423   1.4433   1.4444   1.4465   1.4477   1.4494   1.4516
  1.4534   1.4566   1.4569   1.4604   1.4615   1.4628   1.4641   1.4684
  1.4718   1.4732   1.4781   1.4795   1.4804   1.4814   1.4845   1.4887
  1.4912   1.4926   1.4964   1.4981   1.4999   1.5020   1.5045   1.5068
  1.5074   1.5119   1.5145   1.5147   1.5192   1.5201   1.5222   1.5231
  1.5291   1.5300   1.5312   1.5331   1.5343   1.5354   1.5396   1.5439
  1.5459   1.5472   1.5492   1.5519   1.5529   1.5554   1.5563   1.5600
  1.5630   1.5646   1.5686   1.5693   1.5708   1.5718   1.5730   1.5754
  1.5777   1.5796   1.5814   1.5818   1.5833   1.5845   1.5866   1.5878
  1.5893   1.5900   1.5916   1.5931   1.5936   1.5942   1.5978   1.5986
  1.5990   1.6029   1.6035   1.6047   1.6069   1.6071   1.6081   1.6108
  1.6125   1.6139   1.6145   1.6154   1.6176   1.6204   1.6208   1.6215
  1.6238   1.6249   1.6263   1.6272   1.6285   1.6309   1.6323   1.6326
  1.6340   1.6360   1.6367   1.6375   1.6412   1.6418   1.6433   1.6445
  1.6466   1.6472   1.6481   1.6495   1.6515   1.6532   1.6539   1.6554
  1.6563   1.6572   1.6585   1.6608   1.6620   1.6637   1.6648   1.6654
  1.6663   1.6692   1.6705   1.6721   1.6729   1.6737   1.6749   1.6763
  1.6775   1.6796   1.6809   1.6823   1.6840   1.6846   1.6864   1.6876
  1.6883   1.6905   1.6937   1.6950   1.6954   1.6982   1.6996   1.7019
  1.7023   1.7045   1.7051   1.7115   1.7132   1.7153   1.7183   1.7201
  1.7266   1.7288   1.7311   1.7389   1.7425   1.7448   1.7495   1.7513
  1.7549   1.7588   1.7606   1.7612   1.7629   1.7668   1.7685   1.7724
  1.7741   1.7761   1.7785   1.7831   1.7855   1.7871   1.7899   1.7922
  1.7926   1.7978   1.8009   1.8024   1.8068   1.8086   1.8093   1.8120
  1.8179   1.8190   1.8214   1.8277   1.8314   1.8352   1.8404   1.8406
  1.8439   1.8465   1.8490   1.8517   1.8522   1.8534   1.8559   1.8570
  1.8586   1.8627   1.8639   1.8681   1.8697   1.8719   1.8724   1.8751
  1.8763   1.8767   1.8774   1.8781   1.8785   1.8792   1.8820   1.8837
  1.8861   1.8868   1.8882   1.8895   1.8904   1.8932   1.8943   1.8953
  1.8961   1.8987   1.9006   1.9013   1.9022   1.9038   1.9052   1.9067
  1.9071   1.9084   1.9103   1.9121   1.9133   1.9136   1.9145   1.9160
  1.9164   1.9174   1.9181   1.9195   1.9212   1.9225   1.9240   1.9246
  1.9294   1.9297   1.9325   1.9336   1.9346   1.9352   1.9383   1.9396
  1.9401   1.9422   1.9438   1.9447   1.9473   1.9483   1.9521   1.9543
  1.9568   1.9575   1.9581   1.9607   1.9616   1.9622   1.9649   1.9660
  1.9666   1.9681   1.9698   1.9713   1.9748   1.9753   1.9759   1.9763
  1.9775   1.9784   1.9788   1.9791   1.9815   1.9830   1.9849   1.9864
  1.9867   1.9892   1.9902   1.9912   1.9917   1.9925   1.9939   1.9968
  1.9974   1.9987   2.0004   2.0017   2.0020   2.0026   2.0037   2.0043
  2.0081   2.0088   2.0126   2.0130   2.0145   2.0157   2.0167   2.0178
  2.0190   2.0225   2.0237   2.0251   2.0287   2.0310   2.0349   2.0355
  2.0362   2.0385   2.0419   2.0453   2.0470   2.0477   2.0496   2.0503
  2.0515   2.0518   2.0534   2.0543   2.0558   2.0578   2.0583   2.0619
  2.0633   2.0668   2.0684   2.0689   2.0700   2.0716   2.0728   2.0743
  2.0760   2.0769   2.0773   2.0780   2.0790   2.0820   2.0824   2.0831
  2.0837   2.0866   2.0876   2.0896   2.0911   2.0915   2.0923   2.0932
  2.0938   2.0974   2.0988   2.0996   2.1008   2.1020   2.1029   2.1042
  2.1069   2.1082   2.1092   2.1110   2.1116   2.1154   2.1165   2.1179
  2.1192   2.1199   2.1201   2.1219   2.1229   2.1270   2.1280   2.1284
  2.1292   2.1301   2.1313   2.1338   2.1345   2.1360   2.1373   2.1384
  2.1387   2.1400   2.1410   2.1426   2.1440   2.1451   2.1454   2.1467
  2.1480   2.1482   2.1494   2.1495   2.1504   2.1518   2.1540   2.1547
  2.1556   2.1579   2.1599   2.1604   2.1613   2.1620   2.1633   2.1651
  2.1665   2.1688   2.1699   2.1700   2.1718   2.1745   2.1767   2.1779
  2.1783   2.1794   2.1804   2.1818   2.1842   2.1846   2.1860   2.1865
  2.1876   2.1888   2.1907   2.1918   2.1937   2.1940   2.1947   2.1961
  2.1968   2.1991   2.2013   2.2022   2.2040   2.2044   2.2054   2.2064
  2.2071   2.2098   2.2110   2.2122   2.2132   2.2158   2.2163   2.2170
  2.2187   2.2194   2.2201   2.2204   2.2223   2.2231   2.2236   2.2260
  2.2318   2.2329   2.2347   2.2377   2.2395   2.2409   2.2427   2.2473
  2.2488   2.2510   2.2520   2.2537   2.2539   2.2541   2.2572   2.2582
  2.2642   2.2673   2.2694   2.2700   2.2735   2.2738   2.2755   2.2761
  2.2768   2.2791   2.2810   2.2817   2.2830   2.2834   2.2840   2.2857
  2.2865   2.2881   2.2886   2.2910   2.2938   2.2944   2.2974   2.2999
  2.3000   2.3052   2.3059   2.3081   2.3106   2.3132   2.3166   2.3197
  2.3232   2.3244   2.3260   2.3267   2.3287   2.3301   2.3308   2.3329
  2.3342   2.3357   2.3373   2.3413   2.3432   2.3440   2.3454   2.3482
  2.3492   2.3533   2.3544   2.3565   2.3572   2.3576   2.3590   2.3642
  2.3644   2.3668   2.3684   2.3713   2.3740   2.3777   2.3808   2.3833
  2.3864   2.3895   2.3903   2.3931   2.3943   2.3982   2.3987   2.3996
  2.4007   2.4021   2.4040   2.4053   2.4077   2.4190   2.4203   2.4216
  2.4220   2.4221   2.4233   2.4237   2.4261   2.4279   2.4316   2.4334
  2.4349   2.4358   2.4364   2.4382   2.4386   2.4391   2.4411   2.4415
  2.4422   2.4433   2.4440   2.4456   2.4458   2.4463   2.4483   2.4484
  2.4488   2.4506   2.4509   2.4513   2.4530   2.4546   2.4560   2.4564
  2.4572   2.4596   2.4600   2.4602   2.4617   2.4633   2.4635   2.4650
  2.4674   2.4692   2.4697   2.4698   2.4711   2.4717   2.4730   2.4746
  2.4747   2.4754   2.4760   2.4770   2.4816   2.4820   2.4838   2.4866
  2.4889   2.4898   2.4909   2.4916   2.4964   2.4967   2.4975   2.4981
  2.4996   2.5010   2.5018   2.5025   2.5033   2.5041   2.5057   2.5068
  2.5073   2.5088   2.5098   2.5109   2.5130   2.5163   2.5180   2.5194
  2.5209   2.5228   2.5234   2.5236   2.5242   2.5260   2.5267   2.5298
  2.5307   2.5320   2.5331   2.5347   2.5368   2.5380   2.5389   2.5409
  2.5420   2.5425   2.5435   2.5477   2.5484   2.5499   2.5521   2.5548
  2.5568   2.5607   2.5611   2.5630   2.5648   2.5660   2.5669   2.5689
  2.5704   2.5784   2.5811   2.5839   2.5852   2.5872   2.5894   2.5899
  2.5957   2.5980   2.5990   2.5996   2.6041   2.6047   2.6060   2.6102
  2.6163   2.6199   2.6220   2.6247   2.6287   2.6298   2.6331   2.6340
  2.6344   2.6392   2.6425   2.6450   2.6483   2.6529   2.6559   2.6567
  2.6608   2.6619   2.6625   2.6656   2.6681   2.6721   2.6746   2.6753
  2.6776   2.6795   2.6808   2.6860   2.6883   2.6891   2.6900   2.6901
  2.6930   2.6945   2.6952   2.6981   2.6998   2.7008   2.7010   2.7023
  2.7032   2.7045   2.7049   2.7077   2.7101   2.7115   2.7121   2.7143
  2.7159   2.7196   2.7212   2.7231   2.7256   2.7340   2.7345   2.7412
  2.7439   2.7455   2.7459   2.7472   2.7533   2.7551   2.7593   2.7630
  2.7647   2.7666   2.7676   2.7683   2.7747   2.7771   2.7779   2.7835
  2.7854   2.7881   2.7902   2.7915   2.7930   2.7966   2.7974   2.8037
  2.8062   2.8092   2.8154   2.8175   2.8179   2.8181   2.8209   2.8210
  2.8220   2.8271   2.8282   2.8295   2.8322   2.8348   2.8405   2.8409
  2.8431   2.8445   2.8447   2.8489   2.8524   2.8545   2.8571   2.8582
  2.8608   2.8611   2.8624   2.8632   2.8643   2.8720   2.8737   2.8761
  2.8765   2.8775   2.8786   2.8832   2.8858   2.8882   2.8884   2.8897
  2.8911   2.8929   2.9000   2.9010   2.9014   2.9043   2.9053   2.9073
  2.9078   2.9085   2.9101   2.9103   2.9117   2.9128   2.9175   2.9182
  2.9235   2.9239   2.9260   2.9309   2.9311   2.9330   2.9352   2.9385
  2.9394   2.9430   2.9442   2.9468   2.9473   2.9501   2.9506   2.9548
  2.9578   2.9621   2.9625   2.9721   2.9786   2.9826   2.9855   2.9890
  2.9959   3.0011   3.0067   3.0104   3.0241   3.0272   3.0293   3.0494
  3.0530   3.0560   3.0665   3.0818   3.0822   3.0927   3.0983   3.0987
  3.1006   3.1016   3.1047   3.1080   3.1156   3.1303   3.1317   3.1502
  3.1548   3.1696   3.1763   3.1863   3.1912   3.2006   3.2058   3.2072
  3.2113   3.2239   3.2399   3.2444   3.2459   3.2539   3.2597   3.2689
  3.2727   3.2931   3.2968   3.3060   3.3149   3.3199   3.3295   3.3348
  3.3470   3.3522   3.3714   3.3827   3.4211   3.4314   3.4750   3.6244
  3.6383   3.6416   3.6746   3.9630   4.0214   4.0643   4.0684   4.1107
  4.1194   4.1246   4.1260   4.1330   4.1431   4.1555   4.1786   4.2009
  4.2092   4.2193   4.2401   4.2450   4.2577   4.2610   4.2618   4.2725
  4.2988   4.3057   4.3117   4.3199   4.3245   4.3270   4.3334   4.3368
[...]
    1  -0.0049658   0.0228689  -0.0078965  -0.0128622  -0.0036167  -0.0062841
    2  -0.0103245  -0.0150986   0.0152141   0.0170346   0.0055755   0.0053241
    3   0.0053041  -0.0098118   0.0039096  -0.0011498  -0.0030165   0.0005040
           25          26          27          28          29          30
    1  -0.0017709   0.0018875  -0.0075429  -0.0215408  -0.0082522  -0.0064470
    2   0.0128847   0.0086327   0.0057225  -0.0029451   0.0017172  -0.0016329
    3  -0.0093775  -0.0145998  -0.0073605  -0.0096707  -0.0003934   0.0003772
           31          32          33          34          35          36
    1  -0.0144756  -0.0085539  -0.0069879  -0.0065835  -0.0015427  -0.0126575
    2  -0.0124668   0.0030047  -0.0023097  -0.0001854  -0.0009529   0.0028408
    3  -0.0045149  -0.0000994   0.0012434  -0.0012742  -0.0039452   0.0071007
           37          38          39          40          41          42
    1  -0.0065637  -0.0067476  -0.0004264  -0.0035089  -0.0006903  -0.0047037
    2   0.0037413  -0.0031737  -0.0064658  -0.0031942  -0.0025097  -0.0030216
    3   0.0018837   0.0049049   0.0048251   0.0025211   0.0079526  -0.0030274
           43          44          45          46          47          48
    1  -0.0043630  -0.0020407  -0.0052159   0.0183935   0.0191245  -0.0023997
    2  -0.0101375  -0.0087179  -0.0134739  -0.0113564  -0.0324348   0.0001026
    3   0.0037253   0.0072600   0.0085217  -0.0305413   0.0033910  -0.0029660
           49          50          51          52          53          54
    1  -0.0141585  -0.0015011  -0.0177711   0.0149229  -0.0018028   0.0039761
    2  -0.0038082  -0.0006596  -0.0308829   0.0021058   0.0018436   0.0048862
    3  -0.0324483  -0.0006628   0.0080896   0.0338853  -0.0026284   0.0007518
           55          56          57          58          59          60
    1  -0.0137353   0.0048761  -0.0400935   0.0185317  -0.1041324  -0.0093374
    2  -0.0398310  -0.0051124  -0.0094005  -0.0362762  -0.0139322   0.0071097
    3  -0.0080226  -0.0000078  -0.0186723   0.0023668  -0.0505343  -0.0150680
           61          62          63          64          65          66
    1   0.0058590   0.0312551  -0.0021888   0.0438714  -0.0064823   0.0113474
    2  -0.0174690   0.0231033  -0.0073606   0.0047284  -0.0059266   0.0360527
    3  -0.0035568   0.0044484  -0.0025205   0.0132965  -0.0097379  -0.1066326
           67          68          69          70          71          72
    1  -0.0038489  -0.0031094   0.0132642  -0.0093436  -0.0020571   0.0124634
    2   0.0067511  -0.0211241   0.0155840   0.0202239   0.0028207  -0.0224705
    3  -0.0050190   0.0403184  -0.0038358  -0.0283296   0.0010647   0.0255915
           73          74          75          76          77          78
    1  -0.0013077   0.0091346  -0.0051647   0.0333743   0.0035326  -0.0234185
    2  -0.0009476   0.0220427   0.0278748  -0.0170256   0.0004190  -0.0225910
    3   0.0001622   0.0304230  -0.0291985  -0.0098080   0.0010431   0.0159143
           79          80          81          82          83          84
    1   0.0077711   0.0030537  -0.0215342  -0.0104006   0.0254629   0.0284880
    2   0.0147971   0.0002416   0.0194087  -0.0131849   0.0327682  -0.0138639
    3   0.0335885   0.0007788   0.0175817  -0.0374634  -0.0094287  -0.0165837
           85          86          87          88          89          90
    1   0.0041999  -0.0021735  -0.0250593  -0.0009641   0.0234993  -0.0000844
    2  -0.0382317   0.0008703   0.0097638   0.0004206  -0.0110817  -0.0037281
    3  -0.0011155   0.0038811  -0.0291415  -0.0014640   0.0230738  -0.0020216
           91          92          93          94          95          96
    1   0.0325007  -0.0295773  -0.0095568   0.0043848  -0.0140898   0.0044520
    2   0.0209526   0.0162871   0.0157288  -0.0021665   0.0107460  -0.0389135
    3  -0.0103009  -0.0258232   0.0336834  -0.0033090   0.0282014   0.0027569
           97          98          99         100         101         102
    1  -0.0285914   0.0341714  -0.0345383   0.0061263   0.0137004   0.0081757
    2   0.0088366   0.0157577  -0.0047053  -0.0028203  -0.0029688   0.0035484
    3  -0.0295950  -0.0103115  -0.0006588  -0.0016301   0.0338604  -0.0042346
          103         104         105         106         107         108
    1  -0.0105368   0.0011338   0.0053076   0.0326682   0.0599316   0.0017676
    2  -0.0009783  -0.0310844   0.0000820   0.0768953  -0.0599611  -0.0104742
    3  -0.0325581   0.0123616  -0.0036699   0.0363425  -0.0524547  -0.0001549
          109         110         111         112         113         114
    1  -0.0121801  -0.0058479   0.0043944   0.0332630  -0.0213503   0.0017434
    2   0.0100632  -0.0021079   0.0138709  -0.0023315   0.0037923  -0.0011768
    3  -0.1030837  -0.0040841  -0.0088132  -0.0173729  -0.0275012  -0.0001102
          115         116         117         118         119         120
    1   0.0206404  -0.0340959   0.0045087  -0.0071344   0.0381085   0.0061388
    2   0.0305719   0.0099822   0.0011233   0.0112103  -0.0017434  -0.0018561
    3  -0.0055869   0.0063129  -0.0019688   0.0340619  -0.0017410   0.0162474
          121         122         123         124         125         126
    1   0.0266344  -0.0287791   0.0049065   0.0003033  -0.0346205  -0.0010273
    2  -0.0268289  -0.0071627  -0.0313171   0.0002628  -0.0015437   0.0041974
    3   0.0050186   0.0159283  -0.0193859   0.0039153   0.0138808   0.0038572
          127         128         129         130         131         132
    1   0.0349908  -0.0048631  -0.0006528  -0.0029756   0.0139305  -0.0008988
    2   0.0064410   0.0365008  -0.0006595   0.0037963  -0.0035391   0.0072584
    3  -0.0095213   0.0195267   0.0039583   0.0094011  -0.0388697  -0.0000996
          133         134         135         136         137         138
    1   0.0133691   0.0002700   0.0134573  -0.0037639   0.0022044  -0.0163921
    2  -0.0369734   0.0246254  -0.1078469   0.0122520   0.0059942   0.0123424
    3  -0.0127463  -0.0193466  -0.0327099   0.0427901  -0.0090421   0.0334208
          139         140         141         142         143         144
    1   0.0043147  -0.0112558  -0.0008975  -0.0172189  -0.0020055   0.0143120
    2  -0.0015651   0.0426799   0.0290232  -0.0345643   0.0022057   0.0017501
    3  -0.0028911   0.0165098  -0.0242748   0.0000970  -0.0015258  -0.0320879
          145         146         147         148         149         150
    1  -0.0042487  -0.0259961   0.0147430   0.0018344  -0.0162623   0.0235627
    2   0.0032810   0.0060226   0.0339245   0.0024578  -0.0331712  -0.0000124
    3  -0.0007184  -0.0232884  -0.0031075   0.0012934   0.0038165   0.0314619
          151         152         153         154         155         156
    1   0.0016129  -0.0641149   0.0065697   0.0295778  -0.0348690  -0.0053381
    2  -0.0031814   0.0358386  -0.0061032  -0.0173937   0.0304959   0.0039999
    3  -0.0089976  -0.0860569   0.0047330   0.0347319   0.0078140  -0.0095490
          157         158         159         160         161         162
    1   0.0824154   0.0077400  -0.0397377   0.0069753  -0.0174434   0.0026585
    2   0.0518265  -0.0095133  -0.0211926   0.0066826  -0.0111862   0.0347723
    3  -0.0360266  -0.0046361   0.0169298   0.0218578   0.0384767   0.0086971
          163         164         165         166         167         168
    1  -0.0082571   0.0805266   0.0051905  -0.0408421   0.0195572   0.0230204
    2   0.0080621   0.0534458   0.0033624  -0.0205508  -0.0065894   0.0223268
    3   0.0034528   0.0428768   0.0012506  -0.0143017   0.0003146   0.0185766
          169         170         171         172         173         174
    1  -0.0018210  -0.0212261   0.0332425  -0.0010390  -0.0320101  -0.0010994
    2   0.0002779  -0.0224351  -0.0156211   0.0006887   0.0173299   0.0041747
    3   0.0072962  -0.0204608  -0.0077914   0.0025818   0.0107293   0.0008677
          175         176         177         178         179         180
    1  -0.0151073  -0.0262528   0.0333128  -0.0039991   0.0357818   0.0021951
    2  -0.0081032  -0.0174983  -0.0200962   0.0004454  -0.0134466   0.0418263
    3   0.0350392  -0.0214661  -0.0021997  -0.0001600  -0.0044085   0.0005084
          181         182         183         184         185         186
    1  -0.0084476   0.0096586   0.0087240  -0.0051455   0.0143587  -0.0009190
    2  -0.0038084   0.0076083  -0.0002462   0.0001965   0.0340545   0.0010530
    3   0.0388716  -0.0320715  -0.0367901   0.0009433   0.0142299   0.0004048
          187         188         189         190         191         192
    1  -0.0122836  -0.0009556   0.0167752   0.0098443  -0.0398575  -0.0010085
    2  -0.0316211   0.0004989  -0.0271414   0.0345009  -0.0033567  -0.0022593
    3  -0.0119294  -0.0038999   0.0202839   0.0181031   0.0100338   0.0029445
          193         194         195         196         197         198
    1   0.0079199   0.0031103  -0.0413799   0.0205555   0.0288013  -0.0003447
    2   0.0363592   0.0014618   0.0001502  -0.0273251   0.0110992   0.0004689
    3   0.0116661  -0.0387427   0.0054872   0.0159889  -0.0222828  -0.0003033
          199         200         201         202         203         204
    1   0.0003845  -0.0002591  -0.0301109  -0.0016266  -0.0131428   0.0117296
    2   0.0259809   0.0009074  -0.0091917  -0.0248473   0.0337454  -0.0322297
    3   0.0279011  -0.0005220   0.0208577  -0.0290111  -0.0169076   0.0159168
          205         206         207         208         209         210
    1  -0.0320746   0.0003939   0.0254729   0.0018636   0.0084632   0.0336430
    2  -0.0144732  -0.0000985  -0.0028963  -0.0007743  -0.0357049   0.0129908
    3   0.0154268  -0.0005210   0.0290550   0.0021586   0.0046270  -0.0107712
          211         212         213         214         215         216
    1  -0.0018643  -0.0058278  -0.0331355   0.0376843  -0.0087888  -0.0340312
    2   0.0048430   0.0365689  -0.0136373  -0.0213089   0.0024949  -0.0120439
    3   0.0108264  -0.0058482   0.0121005  -0.0060611  -0.0058049   0.0168345
          217         218         219         220         221         222
    1  -0.0041604  -0.0014358  -0.0063434  -0.0258441  -0.0003655   0.0345993
    2   0.0336902  -0.0211739   0.0380144  -0.0027191   0.0008283  -0.0028380
    3  -0.0109317  -0.0324960  -0.0011725   0.0282908  -0.0006077   0.0168464
          223         224         225         226         227         228
    1   0.0003147   0.0267255   0.0061224  -0.0034789  -0.0059772   0.0336289
    2   0.0009169   0.0029397  -0.0346970   0.0023191  -0.0022551   0.0205629
    3   0.0002563  -0.0252154   0.0090898  -0.0011689   0.0033115  -0.0186170
          229         230         231         232         233         234
    1   0.0020086  -0.0041258   0.0078693  -0.0377621   0.0082949  -0.0313792
    2  -0.0012998   0.0294605   0.0038733   0.0166168   0.0063189  -0.0156366
    3   0.0063618  -0.0339716   0.0037939  -0.0088347  -0.0015221   0.0213641
          235         236         237         238         239         240
    1   0.0006239   0.0058528  -0.0034458  -0.0097112  -0.0043118   0.0175084
    2   0.0058355  -0.0262026   0.0372519   0.0144398   0.0005290  -0.0332301
    3  -0.0061272   0.0326462  -0.0095399   0.0356110  -0.0033686   0.0054133
          241         242         243         244         245         246
    1  -0.0013926   0.0093068   0.0017568  -0.0164877   0.0131629  -0.0342088
    2   0.0011516  -0.0118454   0.0043049   0.0142080  -0.0357941  -0.0029811
    3  -0.0002140  -0.0329482  -0.0030149   0.0342418   0.0051325  -0.0238045
          247         248         249         250         251         252
    1   0.0020301  -0.0162978  -0.0330909   0.0232162   0.0264433   0.0152242
    2  -0.0022090   0.0165174  -0.0001064   0.0283378   0.0246595   0.0158615
    3  -0.0005029   0.0330215  -0.0250052  -0.0142988  -0.0133756   0.0314282
          253         254         255         256         257         258
    1  -0.0011344   0.0284039   0.0014927   0.0070944  -0.0120434  -0.0034857
    2  -0.0001236  -0.0180498  -0.0009039  -0.0308719  -0.0154186  -0.0039868
    3   0.0011921  -0.0168108  -0.0010450   0.0185684  -0.0298983  -0.0110768
          259         260         261         262         263         264
    1  -0.0112116  -0.0329965   0.0382777  -0.0118505  -0.0161373  -0.0277739
    2   0.0292353  -0.0220260  -0.0035608   0.0018560   0.0274031  -0.0307433
    3  -0.0192609  -0.0003098   0.0190386   0.0029251  -0.0203878   0.0018797
          265         266         267         268         269         270
    1  -0.0011156  -0.0065810   0.0272634  -0.0028033  -0.0030492  -0.0036172
    2   0.0130136   0.0304845   0.0186875  -0.0003094   0.0168616  -0.0031782
    3   0.0366432  -0.0219665  -0.0184681  -0.0016336   0.0340069   0.0014248
          271         272         273         274         275         276
    1   0.0040586  -0.0160207  -0.0015228   0.0127531  -0.0005734   0.0280913
    2  -0.0114037   0.0334549   0.0012772  -0.0338371  -0.0026029   0.0010932
    3  -0.0357083  -0.0064360  -0.0024704   0.0023918  -0.0045794   0.0256106
          277         278         279         280         281         282
    1  -0.0172082  -0.0277013  -0.0011435   0.0034235  -0.0238422  -0.0324937
    2   0.0354112  -0.0223771  -0.0004435  -0.0151752   0.0329292  -0.0231180
    3  -0.0013680   0.0146712   0.0011431  -0.0380582  -0.0072409   0.0107884
          283         284         285         286         287         288
    1   0.0148201   0.0325328  -0.0032387  -0.0246711  -0.0005431   0.0220344
    2  -0.0344349   0.0166393  -0.0023945   0.0312975   0.0007901  -0.0253053
    3   0.0062659  -0.0132687  -0.0044301   0.0054957  -0.0010099  -0.0057874
          289         290         291         292         293         294
    1   0.0020662  -0.0187422   0.0035028  -0.0285516  -0.0023618  -0.0182807
    2   0.0016916  -0.0243892  -0.0162934   0.0283823   0.0003194  -0.0214799
    3  -0.0050107  -0.0235748   0.0339695   0.0035999   0.0022449  -0.0295150
          295         296         297         298         299         300
    1   0.0306695  -0.0297174   0.0074669   0.0325006  -0.0011530  -0.0219504
    2   0.0175407   0.0310579  -0.0142746   0.0197402   0.0047572   0.0332613
    3  -0.0185520  -0.0029936   0.0339505   0.0115147   0.0018984  -0.0040289
          301         302         303         304         305         306
    1  -0.0036072   0.0218167  -0.0319337  -0.0060838   0.0005788   0.0074882
    2  -0.0007544  -0.0304796  -0.0183024   0.0106362   0.1191452  -0.1101256
    3   0.0083672   0.0079680  -0.0035610   0.0287413   0.0004927   0.0207189
          307         308         309         310         311         312
    1   0.0030031  -0.0134274  -0.0360966   0.0007786  -0.0003530  -0.0017283
    2   0.0100146  -0.0169123   0.0124284   0.0020242  -0.0335341   0.0009984
    3   0.0141839   0.0327067   0.0040140  -0.0003201   0.0200388   0.0011947
          313         314         315         316         317         318
    1  -0.0228450  -0.0075028  -0.0112011   0.0050843   0.0085048   0.0132588
    2  -0.0217561   0.0318759  -0.0062518  -0.0331175  -0.0105741   0.0017088
    3  -0.0191336  -0.0177502  -0.0043709   0.0175244  -0.0334114   0.0424489
          319         320         321         322         323         324
    1  -0.0061670  -0.0362320   0.0051224   0.0137033   0.0203740  -0.0282145
    2   0.0090918   0.0221917  -0.0193767   0.0393144   0.0255602   0.0253766
    3  -0.0110093  -0.0127325  -0.0301464   0.0088936   0.0195069   0.0043737
          325         326         327         328         329         330
    1   0.0005721  -0.0076419   0.0040480   0.0322000   0.0073345  -0.0291288
    2   0.0015072  -0.0284920   0.0036256  -0.0154426   0.0339875  -0.0149064
    3  -0.0030563   0.0206912  -0.0033180  -0.0056263  -0.0294579  -0.0187616
          331         332         333         334         335         336
    1   0.0316925  -0.0362813  -0.0001901   0.0152561   0.0001228   0.0348634
    2   0.0169695  -0.0082496  -0.0015667   0.0014138   0.0003432   0.0051068
    3   0.0158505   0.0027339  -0.0026052   0.0337121  -0.0002253  -0.0032802
          337         338         339         340         341         342
    1   0.0021824  -0.0029376   0.0116769  -0.0090162  -0.0046105  -0.0246146
    2  -0.0328505  -0.0040812   0.0061918  -0.0416032  -0.0109705  -0.0322978
    3   0.0123622  -0.0050900   0.0118537   0.0134096  -0.0136860  -0.0370098
          343         344         345         346         347         348
    1   0.0091761   0.0059338  -0.0181211   0.0015822  -0.0046809  -0.0019909
    2   0.0146201   0.0020281  -0.0189330  -0.0086679   0.0215627  -0.0096529
    3  -0.0035146   0.0005085  -0.0363282   0.0049128  -0.0339829   0.0008586
          349         350         351         352         353         354
    1   0.0168414  -0.0035455   0.0223224   0.0001493  -0.0008383   0.0336125
    2   0.0362648  -0.0013682   0.0141786  -0.0021095   0.0359939  -0.0104973
    3  -0.0011342  -0.0099851   0.0310893  -0.0027838  -0.0143260   0.0140013
          355         356         357         358         359         360
    1  -0.0021346   0.0039291  -0.0034979   0.0007229   0.0024203   0.0010792
    2  -0.0015934  -0.0064274   0.0006378   0.0022785  -0.0382612  -0.0018908
    3   0.0004775  -0.0372898  -0.0019216   0.0365466  -0.0032337   0.0003641
          361         362         363         364         365         366
    1  -0.0005733  -0.0002090  -0.0033778  -0.0327052   0.0266965   0.0028987
    2   0.0353982  -0.0000900  -0.0393381   0.0112045   0.0100261   0.0007524
    3   0.0001368   0.0032911  -0.0042972  -0.0155194  -0.0267169  -0.0027649
          367         368         369         370         371         372
    1  -0.0016991   0.0019628  -0.0358100  -0.0012877   0.0693738  -0.0150928
    2  -0.0394659   0.0122528   0.0085387   0.0375588  -0.0279519   0.0453040
    3   0.0025337   0.0353474  -0.0119843   0.0038482  -0.0590301   0.0122655
          373         374         375         376         377         378
    1  -0.0017241  -0.0461958  -0.0035003   0.0424406   0.0395637   0.0057095
    2  -0.0249744   0.0860194  -0.0437318  -0.0095297  -0.0630329  -0.0074123
    3   0.0441878  -0.0149133  -0.0257377   0.0371970  -0.0600937   0.0611289
          379         380         381         382         383         384
    1  -0.0226585  -0.0761500   0.0176626  -0.0148824   0.0067164   0.0430349
    2   0.0479322   0.0614276  -0.0060520  -0.0248306  -0.0585388   0.0000115
    3  -0.0064555   0.0541310   0.0104887  -0.0552730   0.0737361  -0.0332243
          385         386         387         388         389         390
    1  -0.0434626  -0.0412303   0.0401321  -0.0074820  -0.0825531   0.0485871
    2   0.0327971  -0.0817593   0.0248477   0.0330012   0.0160609   0.0232385
    3  -0.0224202  -0.0099169  -0.0298875   0.0384538  -0.0545893  -0.0046605
          391         392         393         394         395         396
    1   0.0004502   0.0901792  -0.0028857  -0.0490951  -0.0642898   0.0403833
    2  -0.0313020   0.0562381  -0.0282159  -0.0064237   0.0662662   0.0080280
    3   0.0489567  -0.0476235   0.0434056  -0.0154632   0.0663603  -0.0278895
          397         398         399         400
    1  -0.0077932   0.0978003  -0.0280033  -0.0319914
    2  -0.0459070   0.0345424  -0.0068775  -0.0186178
    3   0.0132937   0.0048427   0.0448309  -0.0397863
  --- DONE ESP SUMMARY ---
 Total job time:  17.34s(wall), 182.65s(cpu) 
 Fri Aug  9 15:04:33 2024

        *************************************************************
        *                                                           *
        *  Thank you very much for using Q-Chem.  Have a nice day.  *
        *                                                           *
        *************************************************************


