
Running Job 1 of 2 19nt_mm_min_distance_cutoff5_nowat_xtb_optimized_spade_wb97x-v_631gd.in
qchem 19nt_mm_min_distance_cutoff5_nowat_xtb_optimized_spade_wb97x-v_631gd.in_2253670.0 ./qchem2253670/ 1
srun -n 1 /cm/shared/apps/spack/0.17.3/cpu/b/opt/spack/linux-rocky8-zen2/gcc-10.2.0/qchem-6.0-rytxnwjazd34ekd2gqyi5ufsaimxsd3r/exe/qcprog.exe 19nt_mm_min_distance_cutoff5_nowat_xtb_optimized_spade_wb97x-v_631gd.in_2253670.0 ./qchem2253670/

                  Welcome to Q-Chem
     A Quantum Leap Into The Future Of Chemistry


 Q-Chem 6.0, Q-Chem, Inc., Pleasanton, CA (2022)

 License issued to: University of California, San Diego (site)

 E. Epifanovsky,  A. T. B. Gilbert,  Xintian Feng,  Joonho Lee,  Yuezhi Mao,  
 N. Mardirossian,  P. Pokhilko,  A. White,  M. Wormit,  M. P. Coons,  
 A. L. Dempwolff,  Zhengting Gan,  D. Hait,  P. R. Horn,  L. D. Jacobson,  
 I. Kaliman,  J. Kussmann,  A. W. Lange,  Ka Un Lao,  D. S. Levine,  Jie Liu,  
 S. C. McKenzie,  A. F. Morrison,  K. Nanda,  F. Plasser,  D. R. Rehn,  
 M. L. Vidal,  Zhi-Qiang You,  Ying Zhu,  B. Alam,  B. Albrecht,  
 A. Aldossary,  E. Alguire,  J. H. Andersen,  V. Athavale,  D. Barton,  
 K. Begam,  A. Behn,  N. Bellonzi,  Y. A. Bernard,  E. J. Berquist,  
 H. Burton,  A. Carreras,  K. Carter-Fenk,  Romit Chakraborty,  
 Chandrima Chakravarty,  Junhan Chen,  A. D. Chien,  K. D. Closser,  
 V. Cofer-Shabica,  L. Cunha,  S. Dasgupta,  Jia Deng,  M. de Wergifosse,  
 M. Diedenhofen,  Hainam Do,  S. Ehlert,  Po-Tung Fang,  S. Fatehi,  
 Qingguo Feng,  T. Friedhoff,  B. Ganoe,  J. Gayvert,  Qinghui Ge,  
 G. Gidofalvi,  M. Goldey,  J. Gomes,  C. Gonzalez-Espinoza,  S. Gulania,  
 A. Gunina,  J. A. Gyamfi,  M. W. D. Hanson-Heine,  P. H. P. Harbach,  
 A. W. Hauser,  M. F. Herbst,  M. Hernandez Vera,  M. Hodecker,  
 Z. C. Holden,  S. Houck,  Xunkun Huang,  Kerwin Hui,  B. C. Huynh,  
 K. Ikeda,  M. Ivanov,  Hyunjun Ji,  Zuxin Jin,  Hanjie Jiang,  B. Kaduk,  
 S. Kaehler,  R. Kang,  K. Khistyaev,  Jaehoon Kim,  Yongbin Kim,  
 P. Klunzinger,  Z. Koczor-Benda,  Joong Hoon Koh,  D. Kosenkov,  
 Saikiran Kotaru,  L. Koulias,  T. Kowalczyk,  C. M. Krauter,  K. Kue,  
 A. Kunitsa,  T. Kus,  A. Landau,  K. V. Lawler,  D. Lefrancois,  S. Lehtola,  
 Rain Li,  Shaozhi Li,  Yi-Pei Li,  Jiashu Liang,  M. Liebenthal,  
 Hung-Hsuan Lin,  You-Sheng Lin,  Fenglai Liu,  Kuan-Yu Liu,  
 M. Loipersberger,  A. Luenser,  C. Malbon,  A. Manjanath,  P. Manohar,  
 E. Mansoor,  S. F. Manzer,  Shan-Ping Mao,  A. V. Marenich,  T. Markovich,  
 S. Mason,  F. Matz,  S. A. Maurer,  P. F. McLaughlin,  M. F. S. J. Menger,  
 J.-M. Mewes,  S. A. Mewes,  P. Morgante,  Mohammad Mostafanejad,  
 J. W. Mullinax,  K. J. Oosterbaan,  G. Paran,  V. Parravicini,  
 Alexander C. Paul,  Suranjan K. Paul,  F. Pavosevic,  Zheng Pei,  S. Prager,  
 E. I. Proynov,  E. Ramos,  B. Rana,  A. E. Rask,  A. Rettig,  R. M. Richard,  
 F. Rob,  E. Rossomme,  T. Scheele,  M. Scheurer,  M. Schneider,  
 P. E. Schneider,  N. Sergueev,  S. M. Sharada,  Hengyuan Shen,  
 W. Skomorowski,  D. W. Small,  C. J. Stein,  Yingli Su,  Yu-Chuan Su,  
 E. J. Sundstrom,  Zhen Tao,  J. Thirman,  Hung-Yi Tsai,  T. Tsuchimochi,  
 N. M. Tubman,  C. Utku,  S. P. Veccham,  O. Vydrov,  J. Wenzel,  
 Jonathan Wong,  J. Witte,  A. Yamada,  Chou-Hsun Yang,  Kun Yao,  
 S. Yeganeh,  S. R. Yost,  A. Zech,  F. Zeller,  Igor Ying Zhang,  
 Xing Zhang,  Yu Zhang,  D. Zuev,  A. Aspuru-Guzik,  A. T. Bell,  
 N. A. Besley,  K. B. Bravaya,  B. R. Brooks,  D. Casanova,  Jeng-Da Chai,  
 Hsing-Ta Chen,  S. Coriani,  C. J. Cramer,  A. E. DePrince, III,  
 R. A. DiStasio Jr.,  A. Dreuw,  B. D. Dunietz,  T. R. Furlani,  
 W. A. Goddard III,  S. Grimme,  S. Hammes-Schiffer,  T. Head-Gordon,  
 W. J. Hehre,  Chao-Ping Hsu,  T.-C. Jagau,  Yousung Jung,  A. Klamt,  
 Jing Kong,  D. S. Lambrecht,  Xiangyuan Li,  WanZhen Liang,  N. J. Mayhall,  
 C. W. McCurdy,  J. B. Neaton,  T. Neudecker,  C. Ochsenfeld,  
 J. A. Parkhill,  R. Peverati,  V. A. Rassolov,  Haisheng Ren,  Yihan Shao,  
 L. V. Slipchenko,  R. P. Steele,  J. E. Subotnik,  A. J. W. Thom,  
 A. Tkatchenko,  D. G. Truhlar,  T. Van Voorhis,  Fan Wang,  
 T. A. Wesolowski,  K. B. Whaley,  H. L. Woodcock III,  P. M. Zimmerman,  
 S. Faraji,  P. M. W. Gill,  M. Head-Gordon,  J. M. Herbert,  A. I. Krylov

 Contributors to earlier versions of Q-Chem not listed above: 
 R. D. Adamson,  B. Austin,  R. Baer,  J. Baker,  G. J. O. Beran,  
 K. Brandhorst,  S. T. Brown,  E. F. C. Byrd,  Arup K. Chakraborty,  
 G. K. L. Chan,  Chun-Min Chang,  Yunqing Chen,  C.-L. Cheng,  
 Siu Hung Chien,  D. M. Chipman,  D. L. Crittenden,  H. Dachsel,  
 R. J. Doerksen,  A. D. Dutoi,  R. G. Edgar,  J. Fosso-Tande,  
 L. Fusti-Molnar,  D. Ghosh,  A. Ghysels,  A. Golubeva-Zadorozhnaya,  
 J. Gonthier,  M. S. Gordon,  S. R. Gwaltney,  G. Hawkins,  J. E. Herr,  
 A. Heyden,  S. Hirata,  E. G. Hohenstein,  G. Kedziora,  F. J. Keil,  
 C. Kelley,  Jihan Kim,  R. A. King,  R. Z. Khaliullin,  P. P. Korambath,  
 W. Kurlancheek,  A. Laurent,  A. M. Lee,  M. S. Lee,  S. V. Levchenko,  
 Ching Yeh Lin,  D. Liotard,  E. Livshits,  R. C. Lochan,  I. Lotan,  
 L. A. Martinez-Martinez,  P. E. Maslen,  N. Nair,  D. P. O'Neill,  
 D. Neuhauser,  E. Neuscamman,  C. M. Oana,  R. Olivares-Amaya,  R. Olson,  
 T. M. Perrine,  B. Peters,  P. A. Pieniazek,  A. Prociuk,  Y. M. Rhee,  
 J. Ritchie,  M. A. Rohrdanz,  E. Rosta,  N. J. Russ,  H. F. Schaefer III,  
 M. W. Schmidt,  N. E. Schultz,  S. Sharma,  N. Shenvi,  C. D. Sherrill,  
 A. C. Simmonett,  A. Sodt,  T. Stein,  D. Stuck,  K. S. Thanthiriwatte,  
 V. Vanovschi,  L. Vogt,  Tao Wang,  A. Warshel,  M. A. Watson,  
 C. F. Williams,  Q. Wu,  X. Xu,  Jun Yang,  W. Zhang,  Yan Zhao

   Please cite Q-Chem as follows:
  "Software for the frontiers of quantum chemistry:
   An overview of developments in the Q-Chem 5 package"
   J. Chem. Phys. 155, 084801 (2021)
   https://doi.org/10.1063/5.0055522 (open access)

 Q-Chem 6.0.2 for Intel X86 EM64T Linux

 Parts of Q-Chem use Armadillo 9.900.5 (Nocturnal Misbehaviour).
 http://arma.sourceforge.net/

 Q-Chem begins on Fri Aug  9 13:55:08 2024  

 Host: 
0

     Scratch files written to ./qchem2253670//
 Dec722 |scratch|qcdevops|jenkins|workspace|build_RNUM    
 Processing $rem in /cm/shared/apps/spack/0.17.3/cpu/b/opt/spack/linux-rocky8-zen2/gcc-10.2.0/qchem-6.0-rytxnwjazd34ekd2gqyi5ufsaimxsd3r/config/preferences:
 Processing $rem in /home/hklem/.qchemrc:
 No nuclear gradient supported for projection-based embedding or EMFT. Set max ideriv = 0.

 Checking the input file for inconsistencies... 	...done.

--------------------------------------------------------------
User input:
--------------------------------------------------------------
$molecule
-1 1
--
0 1
C    2.03000    2.15100    -9.09300
O    1.95100    0.98900    -8.63800
C    2.50700    3.25300    -8.34000
C    2.67000    4.48900    -8.88300
C    2.57200    4.74200    -10.34700
C    2.49800    3.43900    -11.14700
C    1.53800    2.46600    -10.47700
C    2.84300    5.68100    -8.03200
C    3.88100    6.68000    -8.53500
C    3.70000    6.96900    -10.02300
C    3.74300    5.64100    -10.79900
C    4.81500    7.87200    -10.53900
C    4.73900    8.12600    -12.05100
C    4.85900    6.78500    -12.76500
C    3.73200    5.85600    -12.31600
C    4.97300    9.28000    -9.96200
C    5.87100    9.99200    -10.99300
C    5.95100    9.06500    -12.22400
C    3.47300    8.86300    -12.49600
O    5.96800    9.82200    -13.41000
H    2.68900    3.09600    -7.28600
H    1.63200    5.30900    -10.47700
H    3.49300    2.98400    -11.20500
H    2.14900    3.63400    -12.16100
H    0.55900    2.94700    -10.37800
H    1.41200    1.55400    -11.06200
H    3.04800    5.40100    -7.00000
H    1.84900    6.16000    -8.05300
H    4.88200    6.27100    -8.36400
H    3.79700    7.60400    -7.96300
H    2.72400    7.43800    -10.16700
H    4.68200    5.13000    -10.54300
H    5.76000    7.34100    -10.35800
H    5.81800    6.32400    -12.51100
H    4.83000    6.91600    -13.84800
H    2.76600    6.26500    -12.61300
H    3.85900    4.89800    -12.82200
H    5.42900    9.27200    -8.97500
H    4.00200    9.76600    -9.87200
H    6.86500    10.18000   -10.58800
H    5.45900    10.95000   -11.30600
H    6.87200    8.45600    -12.17800
H    2.57800    8.40300    -12.09000
H    3.49900    9.89900    -12.17800
H    3.40700    8.84900    -13.58300
H    5.85100    9.21500    -14.15000
--
-1 1
H    6.84200    -6.38000   -9.19800
C    6.21500    -5.55100   -9.53800
H    5.75700    -5.82100   -10.48900
C    5.12800    -5.26000   -8.49800
H    4.54900    -6.17600   -8.34200
H    5.58600    -4.98700   -7.54400
C    4.21500    -4.15600   -8.95400
C    3.37400    -4.33600   -10.04500
H    3.36300    -5.28500   -10.56300
C    2.54300    -3.32400   -10.47900
H    1.89100    -3.47300   -11.32600
C    2.53500    -2.10000   -9.81500
O    1.70200    -1.12200   -10.25500
H    1.76100    -0.33500   -9.65200
C    3.37300    -1.91100   -8.72400
H    3.36900    -0.96100   -8.21000
C    4.20100    -2.93300   -8.30400
H    4.84400    -2.78000   -7.45000
C    7.11700    -4.33500   -9.82000
O    7.11200    -3.78400   -10.90300
N    7.93900    -3.94400   -8.81600
H    7.92200    -4.44100   -7.93900
C    8.92100    -2.86600   -8.93400
H    8.62500    -2.28200   -9.80600
C    9.00300    -1.98900   -7.68400
H    9.32500    -2.61900   -6.84400
C    10.06600   -0.91300   -7.90000
H    10.11400   -0.25700   -7.03500
H    9.83100    -0.31100   -8.77300
H    11.04400   -1.36500   -8.05200
C    7.65300    -1.37700   -7.29200
H    6.99700    -2.18200   -6.95600
H    7.81700    -0.71800   -6.43700
C    6.96000    -0.59800   -8.40200
H    6.07500    -0.10400   -8.00900
H    6.65000    -1.25900   -9.20600
H    7.61300    0.17300    -8.80200
H    9.90700    -3.30500   -9.13300
H    7.95600    -1.97400   -13.48100
C    7.92400    -0.88800   -13.51900
H    7.32300    -0.59000   -14.37500
C    7.31800    -0.34600   -12.22600
H    7.93400    -0.69600   -11.39100
C    7.32000    1.18000    -12.21700
H    8.32500    1.56800    -12.36900
H    6.68400    1.55900    -13.01100
H    6.94700    1.55600    -11.26700
C    5.90300    -0.88800   -12.04000
H    5.43100    -0.44200   -11.16700
H    5.93200    -1.96600   -11.90000
H    5.29100    -0.66800   -12.91300
H    8.93700    -0.51400   -13.65900
H    -3.87000   5.96000    -7.53000
C    -2.97500   6.57300    -7.67400
H    -2.36800   6.52900    -6.77200
C    -2.16800   6.02300    -8.85600
H    -2.54100   6.43000    -9.79700
H    -2.26400   4.93300    -8.90300
C    -0.64400   6.30700    -8.76100
O    -0.17500   6.49000    -7.61300
O    -0.00100   6.27800    -9.81600
C    -3.45600   7.97500    -7.99400
O    -4.20600   8.19500    -8.93500
N    -3.04800   8.98900    -7.20500
C    -3.44900   10.35300   -7.51800
H    -2.96100   10.67200   -8.44600
H    -4.53000   10.39500   -7.67700
C    -2.97300   11.17500   -6.32500
H    -2.73800   12.20100   -6.60000
H    -3.73700   11.18600   -5.54500
C    -1.75100   10.39300   -5.85000
H    -1.47600   10.60900   -4.81900
H    -0.89400   10.60800   -6.49000
C    -2.18900   8.94300    -6.04100
H    -1.33700   8.28100    -6.20500
H    -2.75300   8.58700    -5.16800
H    -0.44900   2.49100    -16.83100
C    0.62400    2.66300    -16.86700
H    0.90800    3.22100    -15.97700
C    1.37300    1.33100    -16.91700
H    1.09900    0.79900    -17.83100
H    2.44800    1.52500    -16.94400
C    1.03900    0.48800    -15.71700
C    -0.04900   -0.37600   -15.73800
H    -0.64000   -0.46700   -16.63900
C    -0.38800   -1.12200   -14.62800
H    -1.23600   -1.79000   -14.64300
C    0.36600    -1.02400   -13.46000
O    0.00200    -1.76700   -12.39200
H    0.58800    -1.56700   -11.63400
C    1.46400    -0.17000   -13.43700
H    2.07000    -0.10900   -12.54500
C    1.78300    0.58200    -14.55000
H    2.62900    1.25300    -14.51000
H    0.84900    3.26200    -17.75000
H    -0.11200   7.68000    -19.54800
C    0.78900    7.12800    -19.82600
H    0.56300    6.06200    -19.78700
C    1.24500    7.55000    -21.21900
H    2.03000    6.87600    -21.56700
H    1.67900    8.54900    -21.13900
C    0.09000    7.54600    -22.22300
H    -0.32800   6.54200    -22.30500
H    -0.69500   8.22900    -21.89300
C    0.57600    7.96700    -23.59900
O    0.68000    7.21100    -24.53800
N    0.88200    9.28300    -23.69100
H    0.86400    9.88900    -22.89200
H    1.27700    9.63000    -24.54900
C    1.86700    7.49900    -18.78300
O    2.54400    8.49600    -18.90400
N    2.01600    6.65700    -17.72100
H    1.38000    5.88200    -17.61200
C    2.88000    6.97600    -16.58400
H    2.44100    6.58100    -15.66700
H    2.95300    8.06400    -16.50600
C    4.32700    6.45300    -16.68400
O    5.19900    6.95600    -16.00100
N    4.54700    5.41700    -17.51300
H    3.78100    5.06400    -18.06500
C    5.84400    4.77300    -17.68400
H    6.54500    5.31200    -17.04800
C    5.79900    3.29200    -17.32000
H    5.16000    2.76600    -18.03600
H    6.81000    2.89300    -17.42600
C    5.29200    3.00500    -15.90200
H    4.24700    3.33000    -15.83100
C    5.35700    1.50000    -15.65200
H    4.97000    1.25400    -14.66700
H    4.77500    0.95100    -16.39200
H    6.38800    1.15700    -15.70900
C    6.10000    3.75400    -14.84600
H    7.15400    3.49200    -14.91500
H    5.99700    4.82800    -14.95900
H    5.74800    3.49300    -13.85100
H    6.16000    4.88700    -18.72700
H    11.45400   5.90600    -16.43700
C    11.12100   6.03000    -15.40800
H    11.49000   6.98500    -15.04000
C    9.59400    5.98400    -15.32500
H    9.25800    5.01000    -15.69900
C    9.12800    6.13300    -13.88000
H    9.53500    5.33700    -13.25900
H    9.45200    7.08800    -13.47400
H    8.04300    6.08800    -13.82800
C    8.97200    7.07500    -16.19400
H    9.33400    8.05400    -15.88500
H    9.23100    6.93100    -17.24100
H    7.88900    7.07400    -16.09900
H    11.56100   5.23700    -14.80700
H    12.90100   2.14000    -10.51900
C    12.01300   2.19500    -9.89300
H    11.99500   3.17200    -9.41400
C    10.75700   1.98100    -10.72300
H    9.86900    2.03500    -10.09600
H    10.77500   1.00500    -11.20200
H    10.67700   2.74200    -11.49700
H    12.09000   1.43600    -9.11700
H    5.32800    -2.01100   0.29300
C    6.29600    -1.57800   0.04800
H    7.03300    -1.96200   0.74900
C    6.69100    -1.92500   -1.38200
H    6.76700    -3.00900   -1.49500
H    7.67000    -1.49900   -1.61100
C    5.67300    -1.39200   -2.37600
H    5.60100    -0.30500   -2.31000
H    4.68800    -1.82900   -2.19700
S    6.16200    -1.80500   -4.08800
C    4.79400    -0.98400   -4.94500
H    3.87400    -1.54100   -4.78500
H    4.69900    0.03200    -4.57900
H    5.03900    -0.96400   -6.00000
H    6.23000    -0.49900   0.17400
H    9.19300    3.00600    -2.53400
C    10.07400   2.54600    -2.97700
H    10.73000   2.20800    -2.17800
C    9.66600    1.37300    -3.87200
H    10.56500   0.92000    -4.29800
H    9.15900    0.61600    -3.26900
C    8.75500    1.82800    -4.97900
C    9.27700    2.37500    -6.14400
H    10.35000   2.45300    -6.26300
C    8.44000    2.82000    -7.15100
H    8.86400    3.24700    -8.04800
C    7.06700    2.72100    -7.00900
H    6.41300    3.06700    -7.79600
C    6.53300    2.17700    -5.85300
H    5.46200    2.09700    -5.73800
C    7.37500    1.73900    -4.84600
H    6.96000    1.31900    -3.94100
H    10.59500   3.30200    -3.56000
H    10.14900   6.25000    -7.84700
C    10.70100   6.27800    -8.78500
H    11.15600   5.30200    -8.94300
C    9.76700    6.62900    -9.94100
H    10.35100   6.64000    -10.86800
C    8.65900    5.58800    -10.07700
H    8.07100    5.54000    -9.16300
H    9.07600    4.60300    -10.27300
H    7.99500    5.84400    -10.90100
C    9.16600    8.01500    -9.73000
H    8.56900    8.02800    -8.82000
H    8.52100    8.28100    -10.56500
H    9.95200    8.76200    -9.64300
H    11.49400   7.01700    -8.69700
H    12.88700   10.78300   -13.15900
C    12.26200   10.47900   -13.99600
H    12.83200   9.80300    -14.62900
C    11.00100   9.79500    -13.48300
H    11.27500   8.89600    -12.92600
H    10.37400   9.49700    -14.32700
C    10.17500   10.69800   -12.58100
H    9.97000    11.65300   -13.06700
H    9.23100    10.22100   -12.31600
S    11.05600   11.05400   -11.01700
C    9.72600    11.93700   -10.15900
H    9.43300    12.80800   -10.73800
H    8.87800    11.27200   -10.01600
H    10.12200   12.24700   -9.19800
H    12.00700   11.36300   -14.57600
H    10.19800   11.10300   -6.74000
C    9.61600    10.62800   -5.95200
H    9.63200    11.28200   -5.08300
C    8.19300    10.36600   -6.42800
H    8.23700    9.80700    -7.36600
H    7.69300    11.31400   -6.63900
C    7.35100    9.57300    -5.42400
H    7.90900    8.67000    -5.14600
C    7.07700    10.37900   -4.15700
H    8.00100    10.67100   -3.66500
H    6.51200    11.27800   -4.39800
H    6.49600    9.78500    -3.45500
C    6.03500    9.15000    -6.07100
H    6.21900    8.50100    -6.92500
H    5.47800    10.02000   -6.41400
H    5.41300    8.61100    -5.36400
H    10.10600   9.69300    -5.68800
H    6.96300    6.83000    -3.31100
C    6.11400    6.29900    -2.88600
H    5.28100    6.99400    -2.80500
C    5.72700    5.11200    -3.76600
H    6.57800    4.42300    -3.82100
C    4.53500    4.36500    -3.17200
H    4.24700    3.53700    -3.81600
H    4.77700    3.97100    -2.18500
H    3.68300    5.03500    -3.07200
C    5.40000    5.58100    -5.17900
H    5.13100    4.73300    -5.80400
H    6.25900    6.07600    -5.62700
H    4.56800    6.28200    -5.16500
H    6.38100    5.96800    -1.88400
H    3.10600    0.50100    -2.53400
C    2.17800    1.06200    -2.61700
H    2.42500    2.11700    -2.70500
C    1.38300    0.61400    -3.83100
H    1.17600    -0.45800   -3.80300
H    0.41900    1.13000    -3.87000
C    2.07500    0.92500    -5.14000
O    3.03100    1.65400    -5.26200
O    1.49600    0.29500    -6.14200
H    1.82600    0.58500    -7.04400
H    1.59900    0.91100    -1.70900
H    -4.64700   -1.46700   -5.33700
C    -3.63900   -1.08600   -5.18600
H    -3.07700   -1.81200   -4.60200
C    -2.95100   -0.83100   -6.52100
H    -2.84900   -1.77000   -7.07300
H    -3.56200   -0.15500   -7.12400
C    -1.56900   -0.22800   -6.32500
H    -0.99900   -0.80200   -5.59600
H    -1.00500   -0.19100   -7.25500
S    -1.63800   1.48000    -5.68200
C    -1.56800   2.40400    -7.23900
H    -2.44900   2.18400    -7.83700
H    -0.66200   2.13100    -7.77300
H    -1.53900   3.45800    -6.98500
H    -3.69600   -0.16000   -4.61900
H    -1.16100   4.15500    -4.43800
C    -0.17600   4.51300    -4.14700
H    0.14800    3.93400    -3.28300
C    0.80500    4.36900    -5.29600
H    1.80900    4.65000    -4.98400
H    0.50900    4.99900    -6.13100
H    0.83500    3.33700    -5.63300
H    -0.26700   5.55600    -3.84700
H    1.59900    9.23200    -2.21100
C    2.37900    9.97300    -2.37600
H    2.90400    10.14200   -1.43700
C    3.34500    9.49300    -3.45800
H    4.12800    10.24000   -3.59700
H    3.81400    8.56500    -3.12100
C    2.65000    9.25700    -4.76000
C    1.94700    8.14000    -5.12300
H    1.78200    7.23700    -4.56700
N    1.42900    8.28000    -6.37200
H    0.85100    7.59000    -6.86800
C    1.78600    9.49700    -6.85400
C    1.50900    10.08700   -8.08200
H    0.92600    9.56100    -8.82300
C    2.00500    11.35100   -8.30900
H    1.81100    11.84400   -9.25200
C    2.76000    12.02000   -7.33800
H    3.12600    13.01400   -7.55500
C    3.04300    11.44000   -6.12200
H    3.62600    11.97000   -5.38200
C    2.55800    10.15800   -5.86100
H    1.90500    10.90400   -2.68200
H    9.40700    14.80400   -3.96600
C    9.09100    15.08100   -4.97000
H    9.87800    14.79200   -5.66100
C    7.77500    14.39400   -5.31600
H    7.04800    14.61500   -4.53100
H    7.92700    13.31400   -5.33100
C    7.18700    14.83500   -6.66100
H    7.10100    15.92900   -6.65700
C    8.07500    14.42200   -7.83200
H    8.21900    13.34400   -7.83300
H    7.61000    14.70300   -8.77400
H    9.04900    14.90300   -7.77900
C    5.79200    14.24000   -6.83900
H    5.83900    13.15300   -6.85500
H    5.13400    14.54200   -6.02700
H    5.35300    14.57200   -7.77700
H    8.97900    16.16300   -5.00700
$end

$rem
JOBTYPE  SP
METHOD  WB97X-V
BASIS  6-31G(D)
SYMMETRY  FALSE
SYM_IGNORE  TRUE
MEM_TOTAL  64000
MEM_STATIC  4000
BASIS_LIN_DEP_THRESH  6
THRESH  14
SCF_CONVERGENCE  8
FD_MAT_VEC_PROD  FALSE
XC_GRID  000075000302
NL_GRID  1
MAX_SCF_CYCLES  200
ENV_METHOD  WB97X-V
GEN_SCFMAN_EMBED  TRUE
SPADE_PARTITION  TRUE
EMBEDDING_EARLY_STOP  TRUE
$end

--------------------------------------------------------------
 ----------------------------------------------------------------
             Standard Nuclear Orientation (Angstroms)
    I     Atom           X                Y                Z
 ----------------------------------------------------------------
    1      C       2.0300000000     2.1510000000    -9.0930000000
    2      O       1.9510000000     0.9890000000    -8.6380000000
    3      C       2.5070000000     3.2530000000    -8.3400000000
    4      C       2.6700000000     4.4890000000    -8.8830000000
    5      C       2.5720000000     4.7420000000   -10.3470000000
    6      C       2.4980000000     3.4390000000   -11.1470000000
    7      C       1.5380000000     2.4660000000   -10.4770000000
    8      C       2.8430000000     5.6810000000    -8.0320000000
    9      C       3.8810000000     6.6800000000    -8.5350000000
   10      C       3.7000000000     6.9690000000   -10.0230000000
   11      C       3.7430000000     5.6410000000   -10.7990000000
   12      C       4.8150000000     7.8720000000   -10.5390000000
   13      C       4.7390000000     8.1260000000   -12.0510000000
   14      C       4.8590000000     6.7850000000   -12.7650000000
   15      C       3.7320000000     5.8560000000   -12.3160000000
   16      C       4.9730000000     9.2800000000    -9.9620000000
   17      C       5.8710000000     9.9920000000   -10.9930000000
   18      C       5.9510000000     9.0650000000   -12.2240000000
   19      C       3.4730000000     8.8630000000   -12.4960000000
   20      O       5.9680000000     9.8220000000   -13.4100000000
   21      H       2.6890000000     3.0960000000    -7.2860000000
   22      H       1.6320000000     5.3090000000   -10.4770000000
   23      H       3.4930000000     2.9840000000   -11.2050000000
   24      H       2.1490000000     3.6340000000   -12.1610000000
   25      H       0.5590000000     2.9470000000   -10.3780000000
   26      H       1.4120000000     1.5540000000   -11.0620000000
   27      H       3.0480000000     5.4010000000    -7.0000000000
   28      H       1.8490000000     6.1600000000    -8.0530000000
   29      H       4.8820000000     6.2710000000    -8.3640000000
   30      H       3.7970000000     7.6040000000    -7.9630000000
   31      H       2.7240000000     7.4380000000   -10.1670000000
   32      H       4.6820000000     5.1300000000   -10.5430000000
   33      H       5.7600000000     7.3410000000   -10.3580000000
   34      H       5.8180000000     6.3240000000   -12.5110000000
   35      H       4.8300000000     6.9160000000   -13.8480000000
   36      H       2.7660000000     6.2650000000   -12.6130000000
   37      H       3.8590000000     4.8980000000   -12.8220000000
   38      H       5.4290000000     9.2720000000    -8.9750000000
   39      H       4.0020000000     9.7660000000    -9.8720000000
   40      H       6.8650000000    10.1800000000   -10.5880000000
   41      H       5.4590000000    10.9500000000   -11.3060000000
   42      H       6.8720000000     8.4560000000   -12.1780000000
   43      H       2.5780000000     8.4030000000   -12.0900000000
   44      H       3.4990000000     9.8990000000   -12.1780000000
   45      H       3.4070000000     8.8490000000   -13.5830000000
   46      H       5.8510000000     9.2150000000   -14.1500000000
   47      H       6.8420000000    -6.3800000000    -9.1980000000
   48      C       6.2150000000    -5.5510000000    -9.5380000000
   49      H       5.7570000000    -5.8210000000   -10.4890000000
   50      C       5.1280000000    -5.2600000000    -8.4980000000
   51      H       4.5490000000    -6.1760000000    -8.3420000000
   52      H       5.5860000000    -4.9870000000    -7.5440000000
   53      C       4.2150000000    -4.1560000000    -8.9540000000
   54      C       3.3740000000    -4.3360000000   -10.0450000000
   55      H       3.3630000000    -5.2850000000   -10.5630000000
   56      C       2.5430000000    -3.3240000000   -10.4790000000
   57      H       1.8910000000    -3.4730000000   -11.3260000000
   58      C       2.5350000000    -2.1000000000    -9.8150000000
   59      O       1.7020000000    -1.1220000000   -10.2550000000
   60      H       1.7610000000    -0.3350000000    -9.6520000000
   61      C       3.3730000000    -1.9110000000    -8.7240000000
   62      H       3.3690000000    -0.9610000000    -8.2100000000
   63      C       4.2010000000    -2.9330000000    -8.3040000000
   64      H       4.8440000000    -2.7800000000    -7.4500000000
   65      C       7.1170000000    -4.3350000000    -9.8200000000
   66      O       7.1120000000    -3.7840000000   -10.9030000000
   67      N       7.9390000000    -3.9440000000    -8.8160000000
   68      H       7.9220000000    -4.4410000000    -7.9390000000
   69      C       8.9210000000    -2.8660000000    -8.9340000000
   70      H       8.6250000000    -2.2820000000    -9.8060000000
   71      C       9.0030000000    -1.9890000000    -7.6840000000
   72      H       9.3250000000    -2.6190000000    -6.8440000000
   73      C      10.0660000000    -0.9130000000    -7.9000000000
   74      H      10.1140000000    -0.2570000000    -7.0350000000
   75      H       9.8310000000    -0.3110000000    -8.7730000000
   76      H      11.0440000000    -1.3650000000    -8.0520000000
   77      C       7.6530000000    -1.3770000000    -7.2920000000
   78      H       6.9970000000    -2.1820000000    -6.9560000000
   79      H       7.8170000000    -0.7180000000    -6.4370000000
   80      C       6.9600000000    -0.5980000000    -8.4020000000
   81      H       6.0750000000    -0.1040000000    -8.0090000000
   82      H       6.6500000000    -1.2590000000    -9.2060000000
   83      H       7.6130000000     0.1730000000    -8.8020000000
   84      H       9.9070000000    -3.3050000000    -9.1330000000
   85      H       7.9560000000    -1.9740000000   -13.4810000000
   86      C       7.9240000000    -0.8880000000   -13.5190000000
   87      H       7.3230000000    -0.5900000000   -14.3750000000
   88      C       7.3180000000    -0.3460000000   -12.2260000000
   89      H       7.9340000000    -0.6960000000   -11.3910000000
   90      C       7.3200000000     1.1800000000   -12.2170000000
   91      H       8.3250000000     1.5680000000   -12.3690000000
   92      H       6.6840000000     1.5590000000   -13.0110000000
   93      H       6.9470000000     1.5560000000   -11.2670000000
   94      C       5.9030000000    -0.8880000000   -12.0400000000
   95      H       5.4310000000    -0.4420000000   -11.1670000000
   96      H       5.9320000000    -1.9660000000   -11.9000000000
   97      H       5.2910000000    -0.6680000000   -12.9130000000
   98      H       8.9370000000    -0.5140000000   -13.6590000000
   99      H      -3.8700000000     5.9600000000    -7.5300000000
  100      C      -2.9750000000     6.5730000000    -7.6740000000
  101      H      -2.3680000000     6.5290000000    -6.7720000000
  102      C      -2.1680000000     6.0230000000    -8.8560000000
  103      H      -2.5410000000     6.4300000000    -9.7970000000
  104      H      -2.2640000000     4.9330000000    -8.9030000000
  105      C      -0.6440000000     6.3070000000    -8.7610000000
  106      O      -0.1750000000     6.4900000000    -7.6130000000
  107      O      -0.0010000000     6.2780000000    -9.8160000000
  108      C      -3.4560000000     7.9750000000    -7.9940000000
  109      O      -4.2060000000     8.1950000000    -8.9350000000
  110      N      -3.0480000000     8.9890000000    -7.2050000000
  111      C      -3.4490000000    10.3530000000    -7.5180000000
  112      H      -2.9610000000    10.6720000000    -8.4460000000
  113      H      -4.5300000000    10.3950000000    -7.6770000000
  114      C      -2.9730000000    11.1750000000    -6.3250000000
  115      H      -2.7380000000    12.2010000000    -6.6000000000
  116      H      -3.7370000000    11.1860000000    -5.5450000000
  117      C      -1.7510000000    10.3930000000    -5.8500000000
  118      H      -1.4760000000    10.6090000000    -4.8190000000
  119      H      -0.8940000000    10.6080000000    -6.4900000000
  120      C      -2.1890000000     8.9430000000    -6.0410000000
  121      H      -1.3370000000     8.2810000000    -6.2050000000
  122      H      -2.7530000000     8.5870000000    -5.1680000000
  123      H      -0.4490000000     2.4910000000   -16.8310000000
  124      C       0.6240000000     2.6630000000   -16.8670000000
  125      H       0.9080000000     3.2210000000   -15.9770000000
  126      C       1.3730000000     1.3310000000   -16.9170000000
  127      H       1.0990000000     0.7990000000   -17.8310000000
  128      H       2.4480000000     1.5250000000   -16.9440000000
  129      C       1.0390000000     0.4880000000   -15.7170000000
  130      C      -0.0490000000    -0.3760000000   -15.7380000000
  131      H      -0.6400000000    -0.4670000000   -16.6390000000
  132      C      -0.3880000000    -1.1220000000   -14.6280000000
  133      H      -1.2360000000    -1.7900000000   -14.6430000000
  134      C       0.3660000000    -1.0240000000   -13.4600000000
  135      O       0.0020000000    -1.7670000000   -12.3920000000
  136      H       0.5880000000    -1.5670000000   -11.6340000000
  137      C       1.4640000000    -0.1700000000   -13.4370000000
  138      H       2.0700000000    -0.1090000000   -12.5450000000
  139      C       1.7830000000     0.5820000000   -14.5500000000
  140      H       2.6290000000     1.2530000000   -14.5100000000
  141      H       0.8490000000     3.2620000000   -17.7500000000
  142      H      -0.1120000000     7.6800000000   -19.5480000000
  143      C       0.7890000000     7.1280000000   -19.8260000000
  144      H       0.5630000000     6.0620000000   -19.7870000000
  145      C       1.2450000000     7.5500000000   -21.2190000000
  146      H       2.0300000000     6.8760000000   -21.5670000000
  147      H       1.6790000000     8.5490000000   -21.1390000000
  148      C       0.0900000000     7.5460000000   -22.2230000000
  149      H      -0.3280000000     6.5420000000   -22.3050000000
  150      H      -0.6950000000     8.2290000000   -21.8930000000
  151      C       0.5760000000     7.9670000000   -23.5990000000
  152      O       0.6800000000     7.2110000000   -24.5380000000
  153      N       0.8820000000     9.2830000000   -23.6910000000
  154      H       0.8640000000     9.8890000000   -22.8920000000
  155      H       1.2770000000     9.6300000000   -24.5490000000
  156      C       1.8670000000     7.4990000000   -18.7830000000
  157      O       2.5440000000     8.4960000000   -18.9040000000
  158      N       2.0160000000     6.6570000000   -17.7210000000
  159      H       1.3800000000     5.8820000000   -17.6120000000
  160      C       2.8800000000     6.9760000000   -16.5840000000
  161      H       2.4410000000     6.5810000000   -15.6670000000
  162      H       2.9530000000     8.0640000000   -16.5060000000
  163      C       4.3270000000     6.4530000000   -16.6840000000
  164      O       5.1990000000     6.9560000000   -16.0010000000
  165      N       4.5470000000     5.4170000000   -17.5130000000
  166      H       3.7810000000     5.0640000000   -18.0650000000
  167      C       5.8440000000     4.7730000000   -17.6840000000
  168      H       6.5450000000     5.3120000000   -17.0480000000
  169      C       5.7990000000     3.2920000000   -17.3200000000
  170      H       5.1600000000     2.7660000000   -18.0360000000
  171      H       6.8100000000     2.8930000000   -17.4260000000
  172      C       5.2920000000     3.0050000000   -15.9020000000
  173      H       4.2470000000     3.3300000000   -15.8310000000
  174      C       5.3570000000     1.5000000000   -15.6520000000
  175      H       4.9700000000     1.2540000000   -14.6670000000
  176      H       4.7750000000     0.9510000000   -16.3920000000
  177      H       6.3880000000     1.1570000000   -15.7090000000
  178      C       6.1000000000     3.7540000000   -14.8460000000
  179      H       7.1540000000     3.4920000000   -14.9150000000
  180      H       5.9970000000     4.8280000000   -14.9590000000
  181      H       5.7480000000     3.4930000000   -13.8510000000
  182      H       6.1600000000     4.8870000000   -18.7270000000
  183      H      11.4540000000     5.9060000000   -16.4370000000
  184      C      11.1210000000     6.0300000000   -15.4080000000
  185      H      11.4900000000     6.9850000000   -15.0400000000
  186      C       9.5940000000     5.9840000000   -15.3250000000
  187      H       9.2580000000     5.0100000000   -15.6990000000
  188      C       9.1280000000     6.1330000000   -13.8800000000
  189      H       9.5350000000     5.3370000000   -13.2590000000
  190      H       9.4520000000     7.0880000000   -13.4740000000
  191      H       8.0430000000     6.0880000000   -13.8280000000
  192      C       8.9720000000     7.0750000000   -16.1940000000
  193      H       9.3340000000     8.0540000000   -15.8850000000
  194      H       9.2310000000     6.9310000000   -17.2410000000
  195      H       7.8890000000     7.0740000000   -16.0990000000
  196      H      11.5610000000     5.2370000000   -14.8070000000
  197      H      12.9010000000     2.1400000000   -10.5190000000
  198      C      12.0130000000     2.1950000000    -9.8930000000
  199      H      11.9950000000     3.1720000000    -9.4140000000
  200      C      10.7570000000     1.9810000000   -10.7230000000
  201      H       9.8690000000     2.0350000000   -10.0960000000
  202      H      10.7750000000     1.0050000000   -11.2020000000
  203      H      10.6770000000     2.7420000000   -11.4970000000
  204      H      12.0900000000     1.4360000000    -9.1170000000
  205      H       5.3280000000    -2.0110000000     0.2930000000
  206      C       6.2960000000    -1.5780000000     0.0480000000
  207      H       7.0330000000    -1.9620000000     0.7490000000
  208      C       6.6910000000    -1.9250000000    -1.3820000000
  209      H       6.7670000000    -3.0090000000    -1.4950000000
  210      H       7.6700000000    -1.4990000000    -1.6110000000
  211      C       5.6730000000    -1.3920000000    -2.3760000000
  212      H       5.6010000000    -0.3050000000    -2.3100000000
  213      H       4.6880000000    -1.8290000000    -2.1970000000
  214      S       6.1620000000    -1.8050000000    -4.0880000000
  215      C       4.7940000000    -0.9840000000    -4.9450000000
  216      H       3.8740000000    -1.5410000000    -4.7850000000
  217      H       4.6990000000     0.0320000000    -4.5790000000
  218      H       5.0390000000    -0.9640000000    -6.0000000000
  219      H       6.2300000000    -0.4990000000     0.1740000000
  220      H       9.1930000000     3.0060000000    -2.5340000000
  221      C      10.0740000000     2.5460000000    -2.9770000000
  222      H      10.7300000000     2.2080000000    -2.1780000000
  223      C       9.6660000000     1.3730000000    -3.8720000000
  224      H      10.5650000000     0.9200000000    -4.2980000000
  225      H       9.1590000000     0.6160000000    -3.2690000000
  226      C       8.7550000000     1.8280000000    -4.9790000000
  227      C       9.2770000000     2.3750000000    -6.1440000000
  228      H      10.3500000000     2.4530000000    -6.2630000000
  229      C       8.4400000000     2.8200000000    -7.1510000000
  230      H       8.8640000000     3.2470000000    -8.0480000000
  231      C       7.0670000000     2.7210000000    -7.0090000000
  232      H       6.4130000000     3.0670000000    -7.7960000000
  233      C       6.5330000000     2.1770000000    -5.8530000000
  234      H       5.4620000000     2.0970000000    -5.7380000000
  235      C       7.3750000000     1.7390000000    -4.8460000000
  236      H       6.9600000000     1.3190000000    -3.9410000000
  237      H      10.5950000000     3.3020000000    -3.5600000000
  238      H      10.1490000000     6.2500000000    -7.8470000000
  239      C      10.7010000000     6.2780000000    -8.7850000000
  240      H      11.1560000000     5.3020000000    -8.9430000000
  241      C       9.7670000000     6.6290000000    -9.9410000000
  242      H      10.3510000000     6.6400000000   -10.8680000000
  243      C       8.6590000000     5.5880000000   -10.0770000000
  244      H       8.0710000000     5.5400000000    -9.1630000000
  245      H       9.0760000000     4.6030000000   -10.2730000000
  246      H       7.9950000000     5.8440000000   -10.9010000000
  247      C       9.1660000000     8.0150000000    -9.7300000000
  248      H       8.5690000000     8.0280000000    -8.8200000000
  249      H       8.5210000000     8.2810000000   -10.5650000000
  250      H       9.9520000000     8.7620000000    -9.6430000000
  251      H      11.4940000000     7.0170000000    -8.6970000000
  252      H      12.8870000000    10.7830000000   -13.1590000000
  253      C      12.2620000000    10.4790000000   -13.9960000000
  254      H      12.8320000000     9.8030000000   -14.6290000000
  255      C      11.0010000000     9.7950000000   -13.4830000000
  256      H      11.2750000000     8.8960000000   -12.9260000000
  257      H      10.3740000000     9.4970000000   -14.3270000000
  258      C      10.1750000000    10.6980000000   -12.5810000000
  259      H       9.9700000000    11.6530000000   -13.0670000000
  260      H       9.2310000000    10.2210000000   -12.3160000000
  261      S      11.0560000000    11.0540000000   -11.0170000000
  262      C       9.7260000000    11.9370000000   -10.1590000000
  263      H       9.4330000000    12.8080000000   -10.7380000000
  264      H       8.8780000000    11.2720000000   -10.0160000000
  265      H      10.1220000000    12.2470000000    -9.1980000000
  266      H      12.0070000000    11.3630000000   -14.5760000000
  267      H      10.1980000000    11.1030000000    -6.7400000000
  268      C       9.6160000000    10.6280000000    -5.9520000000
  269      H       9.6320000000    11.2820000000    -5.0830000000
  270      C       8.1930000000    10.3660000000    -6.4280000000
  271      H       8.2370000000     9.8070000000    -7.3660000000
  272      H       7.6930000000    11.3140000000    -6.6390000000
  273      C       7.3510000000     9.5730000000    -5.4240000000
  274      H       7.9090000000     8.6700000000    -5.1460000000
  275      C       7.0770000000    10.3790000000    -4.1570000000
  276      H       8.0010000000    10.6710000000    -3.6650000000
  277      H       6.5120000000    11.2780000000    -4.3980000000
  278      H       6.4960000000     9.7850000000    -3.4550000000
  279      C       6.0350000000     9.1500000000    -6.0710000000
  280      H       6.2190000000     8.5010000000    -6.9250000000
  281      H       5.4780000000    10.0200000000    -6.4140000000
  282      H       5.4130000000     8.6110000000    -5.3640000000
  283      H      10.1060000000     9.6930000000    -5.6880000000
  284      H       6.9630000000     6.8300000000    -3.3110000000
  285      C       6.1140000000     6.2990000000    -2.8860000000
  286      H       5.2810000000     6.9940000000    -2.8050000000
  287      C       5.7270000000     5.1120000000    -3.7660000000
  288      H       6.5780000000     4.4230000000    -3.8210000000
  289      C       4.5350000000     4.3650000000    -3.1720000000
  290      H       4.2470000000     3.5370000000    -3.8160000000
  291      H       4.7770000000     3.9710000000    -2.1850000000
  292      H       3.6830000000     5.0350000000    -3.0720000000
  293      C       5.4000000000     5.5810000000    -5.1790000000
  294      H       5.1310000000     4.7330000000    -5.8040000000
  295      H       6.2590000000     6.0760000000    -5.6270000000
  296      H       4.5680000000     6.2820000000    -5.1650000000
  297      H       6.3810000000     5.9680000000    -1.8840000000
  298      H       3.1060000000     0.5010000000    -2.5340000000
  299      C       2.1780000000     1.0620000000    -2.6170000000
  300      H       2.4250000000     2.1170000000    -2.7050000000
  301      C       1.3830000000     0.6140000000    -3.8310000000
  302      H       1.1760000000    -0.4580000000    -3.8030000000
  303      H       0.4190000000     1.1300000000    -3.8700000000
  304      C       2.0750000000     0.9250000000    -5.1400000000
  305      O       3.0310000000     1.6540000000    -5.2620000000
  306      O       1.4960000000     0.2950000000    -6.1420000000
  307      H       1.8260000000     0.5850000000    -7.0440000000
  308      H       1.5990000000     0.9110000000    -1.7090000000
  309      H      -4.6470000000    -1.4670000000    -5.3370000000
  310      C      -3.6390000000    -1.0860000000    -5.1860000000
  311      H      -3.0770000000    -1.8120000000    -4.6020000000
  312      C      -2.9510000000    -0.8310000000    -6.5210000000
  313      H      -2.8490000000    -1.7700000000    -7.0730000000
  314      H      -3.5620000000    -0.1550000000    -7.1240000000
  315      C      -1.5690000000    -0.2280000000    -6.3250000000
  316      H      -0.9990000000    -0.8020000000    -5.5960000000
  317      H      -1.0050000000    -0.1910000000    -7.2550000000
  318      S      -1.6380000000     1.4800000000    -5.6820000000
  319      C      -1.5680000000     2.4040000000    -7.2390000000
  320      H      -2.4490000000     2.1840000000    -7.8370000000
  321      H      -0.6620000000     2.1310000000    -7.7730000000
  322      H      -1.5390000000     3.4580000000    -6.9850000000
  323      H      -3.6960000000    -0.1600000000    -4.6190000000
  324      H      -1.1610000000     4.1550000000    -4.4380000000
  325      C      -0.1760000000     4.5130000000    -4.1470000000
  326      H       0.1480000000     3.9340000000    -3.2830000000
  327      C       0.8050000000     4.3690000000    -5.2960000000
  328      H       1.8090000000     4.6500000000    -4.9840000000
  329      H       0.5090000000     4.9990000000    -6.1310000000
  330      H       0.8350000000     3.3370000000    -5.6330000000
  331      H      -0.2670000000     5.5560000000    -3.8470000000
  332      H       1.5990000000     9.2320000000    -2.2110000000
  333      C       2.3790000000     9.9730000000    -2.3760000000
  334      H       2.9040000000    10.1420000000    -1.4370000000
  335      C       3.3450000000     9.4930000000    -3.4580000000
  336      H       4.1280000000    10.2400000000    -3.5970000000
  337      H       3.8140000000     8.5650000000    -3.1210000000
  338      C       2.6500000000     9.2570000000    -4.7600000000
  339      C       1.9470000000     8.1400000000    -5.1230000000
  340      H       1.7820000000     7.2370000000    -4.5670000000
  341      N       1.4290000000     8.2800000000    -6.3720000000
  342      H       0.8510000000     7.5900000000    -6.8680000000
  343      C       1.7860000000     9.4970000000    -6.8540000000
  344      C       1.5090000000    10.0870000000    -8.0820000000
  345      H       0.9260000000     9.5610000000    -8.8230000000
  346      C       2.0050000000    11.3510000000    -8.3090000000
  347      H       1.8110000000    11.8440000000    -9.2520000000
  348      C       2.7600000000    12.0200000000    -7.3380000000
  349      H       3.1260000000    13.0140000000    -7.5550000000
  350      C       3.0430000000    11.4400000000    -6.1220000000
  351      H       3.6260000000    11.9700000000    -5.3820000000
  352      C       2.5580000000    10.1580000000    -5.8610000000
  353      H       1.9050000000    10.9040000000    -2.6820000000
  354      H       9.4070000000    14.8040000000    -3.9660000000
  355      C       9.0910000000    15.0810000000    -4.9700000000
  356      H       9.8780000000    14.7920000000    -5.6610000000
  357      C       7.7750000000    14.3940000000    -5.3160000000
  358      H       7.0480000000    14.6150000000    -4.5310000000
  359      H       7.9270000000    13.3140000000    -5.3310000000
  360      C       7.1870000000    14.8350000000    -6.6610000000
  361      H       7.1010000000    15.9290000000    -6.6570000000
  362      C       8.0750000000    14.4220000000    -7.8320000000
  363      H       8.2190000000    13.3440000000    -7.8330000000
  364      H       7.6100000000    14.7030000000    -8.7740000000
  365      H       9.0490000000    14.9030000000    -7.7790000000
  366      C       5.7920000000    14.2400000000    -6.8390000000
  367      H       5.8390000000    13.1530000000    -6.8550000000
  368      H       5.1340000000    14.5420000000    -6.0270000000
  369      H       5.3530000000    14.5720000000    -7.7770000000
  370      H       8.9790000000    16.1630000000    -5.0070000000
 ----------------------------------------------------------------
 Nuclear Repulsion Energy =       42774.12487021 hartrees
 There are      579 alpha and      579 beta electrons
 Requested basis set is 6-31G(d)
 There are 1033 shells and 2637 basis functions

 Total QAlloc Memory Limit  64000 MB
 Mega-Array Size      3911 MB
 MEM_STATIC part      4000 MB

 A cutoff of  1.0D-14 yielded 117531 shell pairs
 There are    731004 function pairs
 Smallest overlap matrix eigenvalue = 3.33E-04

 Scale SEOQF with 1.000000e-02/1.000000e-02/1.000000e-03

 Standard Electronic Orientation quadrupole field applied
 Nucleus-field energy     =     0.0000003719 hartrees
 Guess from superposition of atomic densities
 Warning:  Energy on first SCF cycle will be non-variational
 SAD guess density has 1157.000003 electrons

 -----------------------------------------------------------------------
  General SCF calculation program by
  Eric Jon Sundstrom, Paul Horn, Yuezhi Mao, Dmitri Zuev, Alec White,
  David Stuck, Shaama M.S., Shane Yost, Joonho Lee, David Small,
  Daniel Levine, Susi Lehtola, Hugh Burton, Evgeny Epifanovsky,
  Bang C. Huynh
 -----------------------------------------------------------------------
=================================================
        Doing projection-based embedding         
      F. Manby et al. JCTC, 8, 2564 (2012)       
=================================================

****************************************************
   Low-level SCF calculation for the whole system   
****************************************************
----------------------------------------------
 Summary of the low-level theory: 
 Exchange:     0.1670 Hartree-Fock + 1.0000 wB97X-V + LR-HF
 Correlation:  1.0000 wB97X-V
 Using Euler-Maclaurin-Lebedev (75,302) quadrature formula
 Nonlocal Correlation:  VV10 with C = 0.0100 and b = 6.00 and scale = 1.00000
 Grid used for NLC:  SG-1 standard quadrature
----------------------------------------------
 using 32 threads for integral computing
 -------------------------------------------------------
 OpenMP Integral computing Module                
 Release: version 1.0, May 2013, Q-Chem Inc. Pittsburgh 
 -------------------------------------------------------
 A restricted SCF calculation will be
 performed using DIIS
 SCF converges when DIIS error is below 1.0e-08
 ---------------------------------------
  Cycle       Energy         DIIS error
 ---------------------------------------
    1   -7364.1000338786      1.52e-02  
    2   -7320.6046140255      1.37e-03  
    3   -7320.8369735122      1.44e-03  
    4   -7322.1114218486      2.41e-04  
    5   -7322.1483616795      9.76e-05  
    6   -7322.1550179995      2.53e-05  
    7   -7322.1554941288      6.85e-06  
    8   -7322.1555448819      2.75e-06  
    9   -7322.1555533070      1.28e-06  
   10   -7322.1555554988      4.58e-07  
   11   -7322.1555558262      1.77e-07  
   12   -7322.1555558945      7.07e-08  
   13   -7322.1555559046      3.11e-08  
   14   -7322.1555559073      1.59e-08  
   15   -7322.1555559078      6.27e-09  Convergence criterion met
 ---------------------------------------
 SCF time:   CPU 94874.77s  wall 3185.00s 
 SCF   energy in the final basis set =    -7322.1555559078
 Total energy in the final basis set =    -7322.1555559078

****************************************************
             Start embedding calculation            
****************************************************
----------------------------------------------
 Summary of the high-level theory: 
 Exchange:     0.1670 Hartree-Fock + 1.0000 wB97X-V + LR-HF
 Correlation:  1.0000 wB97X-V
 Using Euler-Maclaurin-Lebedev (75,302) quadrature formula
 Nonlocal Correlation:  VV10 with C = 0.0100 and b = 6.00 and scale = 1.00000
 Grid used for NLC:  SG-1 standard quadrature
----------------------------------------------
Doing R-in-R Embedding Calculation
Number of fragments: 2
Embedded fragment(s): 1 
NOcc for each fragment
           75
          504
NBasis for each fragment
          352
         2285
Variational space of the embedded problem: 
NOcc (active)  = 75
NOcc (fixed)   = 504
NVir (total)   = 2058
Read converged orbitals from disk
=========================================================
       Doing SPADE partition for the orbital space       
     D. Claudino and N. Mayhall JCTC 15, 1053 (2019)     
=========================================================
SPADE singular values:
 1.0000 1.0000 1.0000 1.0000 1.0000 1.0000 1.0000 1.0000 1.0000 1.0000
 1.0000 1.0000 1.0000 1.0000 1.0000 1.0000 1.0000 1.0000 1.0000 1.0000
 1.0000 1.0000 1.0000 1.0000 1.0000 1.0000 1.0000 1.0000 1.0000 1.0000
 1.0000 1.0000 1.0000 1.0000 1.0000 1.0000 1.0000 1.0000 1.0000 1.0000
 1.0000 1.0000 1.0000 1.0000 1.0000 1.0000 0.9999 0.9999 0.9999 0.9999
 0.9999 0.9999 0.9999 0.9998 0.9997 0.9997 0.9997 0.9996 0.9995 0.9994
 0.9993 0.9992 0.9992 0.9991 0.9989 0.9986 0.9985 0.9983 0.9981 0.9979
 0.9978 0.9974 0.9973 0.9727 0.9717 0.1864 0.1317 0.1210 0.0952 0.0735
 0.0714 0.0676 0.0655 0.0644 0.0627 0.0587 0.0545 0.0494 0.0487 0.0423
 0.0369 0.0365 0.0355 0.0321 0.0316 0.0302 0.0296 0.0262 0.0248 0.0228
 0.0213 0.0200 0.0175 0.0169 0.0151 0.0142 0.0133 0.0127 0.0124 0.0118
 0.0111 0.0109 0.0089 0.0083 0.0079 0.0075 0.0072 0.0070 0.0067 0.0063
 0.0057 0.0054 0.0050 0.0048 0.0044 0.0042 0.0040 0.0037 0.0035 0.0035
 0.0034 0.0031 0.0030 0.0029 0.0027 0.0025 0.0023 0.0023 0.0021 0.0020
 0.0020 0.0019 0.0018 0.0017 0.0016 0.0016 0.0015 0.0014 0.0013 0.0013
 0.0013 0.0012 0.0011 0.0011 0.0011 0.0010 0.0010 0.0009 0.0009 0.0009
 0.0008 0.0008 0.0008 0.0008 0.0008 0.0007 0.0007 0.0007 0.0007 0.0006
 0.0006 0.0006 0.0006 0.0006 0.0006 0.0005 0.0005 0.0005 0.0005 0.0005
 0.0005 0.0005 0.0004 0.0004 0.0004 0.0004 0.0004 0.0004 0.0004 0.0004
 0.0004 0.0003 0.0003 0.0003 0.0003 0.0003 0.0003 0.0003 0.0003 0.0003
 0.0003 0.0003 0.0003 0.0003 0.0002 0.0002 0.0002 0.0002 0.0002 0.0002
 0.0002 0.0002 0.0002 0.0002 0.0002 0.0002 0.0002 0.0002 0.0002 0.0002
 0.0001 0.0001 0.0001 0.0001 0.0001 0.0001 0.0001 0.0001 0.0001 0.0001
 0.0001 0.0001 0.0001 0.0001 0.0001 0.0001 0.0001 0.0001 0.0001 0.0001
 0.0001 0.0001 0.0001 0.0001 0.0001 0.0001 0.0001 0.0001 0.0001 0.0001
 0.0001 0.0001 0.0001 0.0001 0.0001 0.0000 0.0000 0.0000 0.0000 0.0000
 0.0000 0.0000 0.0000 0.0000 0.0000 0.0000 0.0000 0.0000 0.0000 0.0000
 0.0000 0.0000 0.0000 0.0000 0.0000 0.0000 0.0000 0.0000 0.0000 0.0000
 0.0000 0.0000 0.0000 0.0000 0.0000 0.0000 0.0000 0.0000 0.0000 0.0000
 0.0000 0.0000 0.0000 0.0000 0.0000 0.0000 0.0000 0.0000 0.0000 0.0000
 0.0000 0.0000 0.0000 0.0000 0.0000 0.0000 0.0000 0.0000 0.0000 0.0000
 0.0000 0.0000 0.0000 0.0000 0.0000 0.0000 0.0000 0.0000 0.0000 0.0000
 0.0000 0.0000 0.0000 0.0000 0.0000 0.0000 0.0000 0.0000 0.0000 0.0000
 0.0000 0.0000 0.0000 0.0000 0.0000 0.0000 0.0000 0.0000 0.0000 0.0000
 0.0000 0.0000 0.0000 0.0000 0.0000 0.0000 0.0000 0.0000 0.0000 0.0000
 0.0000 0.0000
Early stop requested; no embedded SCF will be performed

 504 environment occs will be part of frozen-core in future post-HF calculations
 
 --------------------------------------------------------------
 
                    Orbital Energies (a.u.)
 --------------------------------------------------------------
 
 Alpha MOs
 -- Occupied --
-88.8108 -88.8088 -88.7946 -19.1972 -19.1922 -19.1801 -19.1684 -19.1608
-19.1557 -19.1515 -19.1363 -19.0937 -19.0761 -19.0634 -14.4296 -14.4153
-14.4107 -14.3952 -14.3630 -14.3600 -10.3565 -10.3480 -10.3460 -10.3430
-10.3251 -10.2922 -10.2827 -10.2812 -10.2770 -10.2741 -10.2664 -10.2626
-10.2591 -10.2576 -10.2565 -10.2548 -10.2521 -10.2489 -10.2424 -10.2405
-10.2396 -10.2383 -10.2382 -10.2379 -10.2376 -10.2349 -10.2327 -10.2323
-10.2318 -10.2314 -10.2309 -10.2299 -10.2295 -10.2292 -10.2292 -10.2286
-10.2285 -10.2258 -10.2246 -10.2243 -10.2240 -10.2232 -10.2231 -10.2229
-10.2224 -10.2223 -10.2221 -10.2218 -10.2213 -10.2205 -10.2204 -10.2201
-10.2193 -10.2190 -10.2189 -10.2186 -10.2186 -10.2180 -10.2178 -10.2175
-10.2175 -10.2172 -10.2147 -10.2145 -10.2144 -10.2138 -10.2136 -10.2136
-10.2118 -10.2105 -10.2105 -10.2099 -10.2098 -10.2096 -10.2094 -10.2091
-10.2087 -10.2082 -10.2078 -10.2078 -10.2077 -10.2067 -10.2044 -10.2041
-10.2023 -10.2016 -10.2001 -10.1996 -10.1993 -10.1986 -10.1983 -10.1972
-10.1969 -10.1966 -10.1961 -10.1919 -10.1916 -10.1878 -10.1872 -10.1865
-10.1864 -10.1863 -10.1835 -10.1765 -10.1716  -7.9771  -7.9755  -7.9608
 -5.9351  -5.9335  -5.9310  -5.9294  -5.9236  -5.9219  -5.9188  -5.9146
 -5.9074  -1.1611  -1.1431  -1.1323  -1.1291  -1.1261  -1.1109  -1.1084
 -1.0715  -1.0679  -1.0575  -1.0302  -1.0270  -1.0133  -1.0012  -0.9963
 -0.9889  -0.9617  -0.9381  -0.9374  -0.9338  -0.9124  -0.9042  -0.9038
 -0.8989  -0.8968  -0.8954  -0.8927  -0.8860  -0.8856  -0.8843  -0.8796
 -0.8733  -0.8684  -0.8682  -0.8673  -0.8670  -0.8602  -0.8526  -0.8510
 -0.8500  -0.8497  -0.8442  -0.8393  -0.8285  -0.8273  -0.8225  -0.8192
 -0.8170  -0.8160  -0.8125  -0.8095  -0.8065  -0.8045  -0.8027  -0.8014
 -0.7999  -0.7967  -0.7920  -0.7874  -0.7812  -0.7729  -0.7678  -0.7646
 -0.7616  -0.7599  -0.7597  -0.7593  -0.7563  -0.7547  -0.7528  -0.7499
 -0.7456  -0.7451  -0.7433  -0.7375  -0.7366  -0.7309  -0.7269  -0.7187
 -0.7149  -0.7077  -0.7048  -0.7038  -0.7036  -0.6997  -0.6944  -0.6912
 -0.6886  -0.6881  -0.6853  -0.6836  -0.6833  -0.6798  -0.6764  -0.6682
 -0.6682  -0.6660  -0.6633  -0.6610  -0.6555  -0.6540  -0.6523  -0.6434
 -0.6424  -0.6412  -0.6390  -0.6388  -0.6365  -0.6323  -0.6288  -0.6275
 -0.6271  -0.6244  -0.6232  -0.6211  -0.6185  -0.6135  -0.6099  -0.6094
 -0.6054  -0.5993  -0.5935  -0.5920  -0.5821  -0.5821  -0.5735  -0.5705
 -0.5703  -0.5634  -0.5594  -0.5485  -0.5475  -0.5456  -0.5443  -0.5437
 -0.5435  -0.5431  -0.5416  -0.5344  -0.5334  -0.5331  -0.5325  -0.5287
 -0.5275  -0.5260  -0.5250  -0.5225  -0.5222  -0.5219  -0.5204  -0.5201
 -0.5178  -0.5175  -0.5168  -0.5155  -0.5133  -0.5129  -0.5123  -0.5117
 -0.5092  -0.5084  -0.5075  -0.5069  -0.5048  -0.5035  -0.5021  -0.5013
 -0.5009  -0.4988  -0.4980  -0.4974  -0.4959  -0.4937  -0.4920  -0.4908
 -0.4907  -0.4895  -0.4893  -0.4885  -0.4884  -0.4868  -0.4852  -0.4828
 -0.4825  -0.4812  -0.4796  -0.4788  -0.4781  -0.4774  -0.4769  -0.4764
 -0.4761  -0.4746  -0.4741  -0.4732  -0.4716  -0.4712  -0.4710  -0.4709
 -0.4700  -0.4699  -0.4694  -0.4692  -0.4684  -0.4683  -0.4652  -0.4634
 -0.4622  -0.4617  -0.4615  -0.4610  -0.4601  -0.4598  -0.4579  -0.4576
 -0.4562  -0.4559  -0.4555  -0.4550  -0.4528  -0.4517  -0.4507  -0.4500
 -0.4493  -0.4456  -0.4454  -0.4447  -0.4443  -0.4437  -0.4417  -0.4406
 -0.4399  -0.4379  -0.4377  -0.4373  -0.4363  -0.4345  -0.4334  -0.4331
 -0.4320  -0.4309  -0.4299  -0.4294  -0.4288  -0.4266  -0.4261  -0.4253
 -0.4253  -0.4246  -0.4240  -0.4234  -0.4220  -0.4218  -0.4201  -0.4191
 -0.4181  -0.4177  -0.4172  -0.4139  -0.4134  -0.4129  -0.4128  -0.4119
 -0.4115  -0.4100  -0.4084  -0.4079  -0.4065  -0.4053  -0.4045  -0.4023
 -0.4020  -0.4003  -0.3997  -0.3993  -0.3989  -0.3980  -0.3975  -0.3969
 -0.3965  -0.3964  -0.3951  -0.3947  -0.3945  -0.3939  -0.3901  -0.3894
 -0.3876  -0.3862  -0.3854  -0.3848  -0.3843  -0.3839  -0.3828  -0.3821
 -0.3819  -0.3810  -0.3780  -0.3768  -0.3759  -0.3754  -0.3751  -0.3743
 -0.3730  -0.3714  -0.3708  -0.3708  -0.3700  -0.3698  -0.3683  -0.3674
 -0.3659  -0.3653  -0.3649  -0.3648  -0.3644  -0.3643  -0.3630  -0.3626
 -0.3617  -0.3611  -0.3603  -0.3601  -0.3585  -0.3557  -0.3548  -0.3539
 -0.3534  -0.3532  -0.3518  -0.3515  -0.3510  -0.3506  -0.3503  -0.3498
 -0.3466  -0.3455  -0.3436  -0.3432  -0.3410  -0.3402  -0.3322  -0.3265
 -0.3259  -0.3130  -0.3110  -0.3075  -0.3056  -0.2936  -0.2902  -0.2901
 -0.2844  -0.2837  -0.2815  -0.2711  -0.2608  -0.2602  -0.2572  -0.2483
 -0.2458  -0.2443  -0.2430  -0.2395  -0.2371  -0.2257  -0.2238  -0.1998
-10.2747 -18.1808 -10.3050 -10.1463 -10.0986  -9.9909 -10.4059  -9.9086
-10.0760  -9.9675 -10.0180 -10.0072  -8.9560  -9.9692  -9.6645  -9.7205
 -8.8709  -3.6079  -3.3355  -1.7602  -5.9425  -2.3063  -1.8960  -8.5269
 -1.4283  -1.0760  -1.0832  -0.9508  -2.0875 -14.1596  -0.9518  -1.3677
 -0.7001  -0.8754  -0.6619  -0.8303  -0.8054  -0.9087  -1.1384  -0.7680
 -0.6421  -0.6658  -0.6214  -0.6322  -0.5155  -0.6049  -0.6496  -0.5520
 -0.5053  -0.4773  -0.4904  -0.4594  -0.5110  -0.4569  -1.8182  -0.4347
 -0.4401  -0.4368  -0.4638  -0.4389  -0.4159  -0.4071  -0.4541  -0.4069
 -0.4679  -0.4469  -0.3997  -0.3981  -0.4031  -0.4421  -0.4388  -0.3788
 -0.3819  -0.6289  -0.4014
 -- Virtual --
  0.0870   0.1410   0.1415   0.1435   0.1443   0.1449   0.1495   0.1507
  0.1567   0.1612   0.1681   0.1689   0.1720   0.1730   0.1746   0.1800
  0.1808   0.1834   0.1860   0.1893   0.1930   0.1939   0.1941   0.1964
  0.1998   0.2016   0.2031   0.2083   0.2093   0.2094   0.2113   0.2142
  0.2153   0.2170   0.2190   0.2211   0.2231   0.2236   0.2260   0.2285
  0.2293   0.2304   0.2312   0.2343   0.2372   0.2384   0.2396   0.2411
  0.2418   0.2427   0.2441   0.2454   0.2460   0.2466   0.2473   0.2478
  0.2486   0.2501   0.2523   0.2525   0.2532   0.2544   0.2549   0.2561
  0.2567   0.2576   0.2588   0.2589   0.2602   0.2608   0.2611   0.2631
  0.2646   0.2655   0.2663   0.2676   0.2681   0.2697   0.2708   0.2724
  0.2734   0.2742   0.2744   0.2754   0.2769   0.2788   0.2793   0.2799
  0.2809   0.2825   0.2825   0.2836   0.2845   0.2856   0.2862   0.2869
  0.2882   0.2890   0.2898   0.2906   0.2911   0.2915   0.2921   0.2929
  0.2941   0.2943   0.2952   0.2959   0.2971   0.2985   0.2997   0.2999
  0.3005   0.3016   0.3022   0.3026   0.3031   0.3035   0.3051   0.3054
  0.3057   0.3066   0.3070   0.3081   0.3091   0.3100   0.3109   0.3118
  0.3124   0.3132   0.3138   0.3144   0.3152   0.3156   0.3166   0.3170
  0.3180   0.3191   0.3193   0.3203   0.3207   0.3212   0.3213   0.3225
  0.3234   0.3237   0.3244   0.3249   0.3253   0.3260   0.3268   0.3271
  0.3283   0.3287   0.3302   0.3309   0.3317   0.3326   0.3330   0.3339
  0.3345   0.3349   0.3357   0.3361   0.3364   0.3371   0.3382   0.3389
  0.3394   0.3406   0.3413   0.3415   0.3420   0.3428   0.3433   0.3436
  0.3442   0.3448   0.3453   0.3466   0.3470   0.3482   0.3488   0.3500
  0.3506   0.3511   0.3514   0.3520   0.3532   0.3546   0.3546   0.3556
  0.3562   0.3565   0.3569   0.3574   0.3589   0.3597   0.3609   0.3613
  0.3616   0.3621   0.3640   0.3649   0.3660   0.3667   0.3676   0.3677
  0.3693   0.3704   0.3712   0.3721   0.3727   0.3741   0.3749   0.3753
  0.3757   0.3765   0.3773   0.3779   0.3795   0.3802   0.3812   0.3819
  0.3820   0.3823   0.3832   0.3839   0.3850   0.3853   0.3867   0.3875
  0.3883   0.3887   0.3894   0.3903   0.3907   0.3919   0.3926   0.3932
  0.3938   0.3955   0.3961   0.3965   0.3971   0.3972   0.3977   0.3991
  0.4003   0.4007   0.4019   0.4024   0.4027   0.4042   0.4047   0.4051
  0.4057   0.4071   0.4082   0.4083   0.4090   0.4093   0.4102   0.4114
  0.4122   0.4134   0.4148   0.4155   0.4162   0.4163   0.4174   0.4183
  0.4192   0.4199   0.4201   0.4211   0.4218   0.4219   0.4228   0.4240
  0.4249   0.4261   0.4263   0.4279   0.4292   0.4294   0.4308   0.4313
  0.4330   0.4334   0.4341   0.4353   0.4377   0.4379   0.4391   0.4408
  0.4416   0.4426   0.4437   0.4443   0.4465   0.4470   0.4481   0.4494
  0.4499   0.4519   0.4528   0.4539   0.4543   0.4555   0.4566   0.4579
  0.4584   0.4591   0.4604   0.4622   0.4628   0.4634   0.4637   0.4655
  0.4667   0.4680   0.4695   0.4697   0.4706   0.4717   0.4751   0.4752
  0.4772   0.4802   0.4833   0.4840   0.4866   0.4879   0.4932   0.4943
  0.4952   0.4960   0.4985   0.5001   0.5025   0.5027   0.5051   0.5062
  0.5098   0.5127   0.5163   0.5165   0.5203   0.5229   0.5238   0.5265
  0.5289   0.5312   0.5332   0.5341   0.5355   0.5359   0.5390   0.5424
  0.5430   0.5454   0.5484   0.5505   0.5530   0.5559   0.5593   0.5639
  0.5687   0.5718   0.5784   0.5808   0.5841   0.5863   0.5866   0.5892
  0.5928   0.5954   0.6008   0.6072   0.6095   0.6105   0.6131   0.6188
  0.6230   0.6250   0.6302   0.6334   0.6342   0.6348   0.6377   0.6399
  0.6437   0.6461   0.6492   0.6498   0.6515   0.6531   0.6538   0.6552
  0.6563   0.6569   0.6582   0.6598   0.6613   0.6616   0.6633   0.6644
  0.6661   0.6665   0.6672   0.6682   0.6709   0.6712   0.6724   0.6737
  0.6756   0.6766   0.6777   0.6780   0.6790   0.6801   0.6805   0.6814
  0.6827   0.6835   0.6838   0.6850   0.6859   0.6861   0.6866   0.6874
  0.6886   0.6894   0.6902   0.6917   0.6931   0.6936   0.6950   0.6956
  0.6974   0.6983   0.6987   0.7003   0.7015   0.7018   0.7025   0.7037
  0.7043   0.7062   0.7073   0.7077   0.7082   0.7093   0.7108   0.7112
  0.7125   0.7131   0.7142   0.7153   0.7159   0.7166   0.7174   0.7189
  0.7204   0.7220   0.7234   0.7244   0.7254   0.7267   0.7282   0.7289
  0.7309   0.7310   0.7320   0.7337   0.7350   0.7355   0.7376   0.7379
  0.7402   0.7404   0.7424   0.7430   0.7444   0.7463   0.7472   0.7481
  0.7498   0.7507   0.7516   0.7526   0.7549   0.7551   0.7554   0.7565
  0.7572   0.7585   0.7602   0.7607   0.7611   0.7630   0.7631   0.7644
  0.7659   0.7672   0.7679   0.7682   0.7695   0.7701   0.7713   0.7725
  0.7733   0.7748   0.7762   0.7769   0.7784   0.7792   0.7813   0.7823
  0.7832   0.7838   0.7849   0.7857   0.7877   0.7887   0.7897   0.7899
  0.7903   0.7915   0.7920   0.7947   0.7951   0.7994   0.8009   0.8020
  0.8024   0.8046   0.8048   0.8060   0.8081   0.8094   0.8099   0.8117
  0.8121   0.8136   0.8152   0.8155   0.8170   0.8173   0.8180   0.8196
  0.8199   0.8210   0.8222   0.8226   0.8240   0.8251   0.8259   0.8266
  0.8274   0.8283   0.8287   0.8305   0.8316   0.8326   0.8328   0.8335
  0.8351   0.8359   0.8379   0.8385   0.8402   0.8406   0.8417   0.8419
  0.8422   0.8436   0.8448   0.8450   0.8473   0.8480   0.8498   0.8511
  0.8520   0.8529   0.8534   0.8546   0.8549   0.8553   0.8565   0.8573
  0.8577   0.8587   0.8600   0.8606   0.8622   0.8628   0.8645   0.8652
  0.8667   0.8675   0.8685   0.8698   0.8713   0.8724   0.8733   0.8747
  0.8757   0.8776   0.8790   0.8793   0.8803   0.8820   0.8830   0.8837
  0.8845   0.8854   0.8879   0.8891   0.8909   0.8919   0.8924   0.8931
  0.8938   0.8944   0.8957   0.8977   0.8980   0.9000   0.9003   0.9022
  0.9030   0.9044   0.9052   0.9058   0.9069   0.9076   0.9086   0.9102
  0.9119   0.9131   0.9135   0.9142   0.9152   0.9157   0.9172   0.9179
  0.9197   0.9209   0.9219   0.9224   0.9243   0.9259   0.9276   0.9283
  0.9288   0.9311   0.9320   0.9331   0.9347   0.9359   0.9362   0.9368
  0.9382   0.9398   0.9414   0.9416   0.9428   0.9430   0.9464   0.9468
  0.9478   0.9494   0.9509   0.9517   0.9528   0.9541   0.9543   0.9559
  0.9572   0.9604   0.9613   0.9626   0.9646   0.9656   0.9695   0.9715
  0.9731   0.9742   0.9752   0.9777   0.9786   0.9799   0.9823   0.9824
  0.9852   0.9854   0.9876   0.9893   0.9913   0.9933   0.9945   0.9960
  0.9966   0.9989   1.0003   1.0010   1.0015   1.0029   1.0034   1.0055
  1.0060   1.0067   1.0084   1.0094   1.0101   1.0105   1.0128   1.0131
  1.0143   1.0152   1.0157   1.0162   1.0173   1.0179   1.0189   1.0201
  1.0206   1.0224   1.0232   1.0244   1.0253   1.0262   1.0269   1.0280
  1.0292   1.0309   1.0310   1.0328   1.0340   1.0355   1.0358   1.0362
  1.0374   1.0380   1.0392   1.0396   1.0403   1.0406   1.0408   1.0421
  1.0434   1.0440   1.0454   1.0462   1.0474   1.0487   1.0492   1.0498
  1.0508   1.0511   1.0515   1.0530   1.0539   1.0540   1.0549   1.0557
  1.0569   1.0570   1.0585   1.0593   1.0602   1.0611   1.0616   1.0625
  1.0634   1.0638   1.0646   1.0649   1.0662   1.0670   1.0681   1.0687
  1.0693   1.0697   1.0701   1.0710   1.0717   1.0728   1.0732   1.0738
  1.0753   1.0757   1.0773   1.0777   1.0780   1.0785   1.0798   1.0802
  1.0812   1.0816   1.0823   1.0830   1.0836   1.0842   1.0850   1.0869
  1.0874   1.0881   1.0887   1.0895   1.0899   1.0906   1.0917   1.0919
  1.0924   1.0932   1.0943   1.0947   1.0956   1.0964   1.0966   1.0978
  1.0992   1.0995   1.1006   1.1008   1.1019   1.1031   1.1036   1.1040
  1.1050   1.1060   1.1066   1.1073   1.1082   1.1089   1.1097   1.1107
  1.1112   1.1121   1.1126   1.1134   1.1139   1.1146   1.1151   1.1165
  1.1170   1.1181   1.1195   1.1200   1.1218   1.1226   1.1238   1.1243
  1.1251   1.1264   1.1269   1.1286   1.1298   1.1307   1.1314   1.1318
  1.1332   1.1339   1.1355   1.1364   1.1373   1.1381   1.1383   1.1390
  1.1397   1.1402   1.1417   1.1427   1.1431   1.1436   1.1444   1.1450
  1.1464   1.1479   1.1486   1.1493   1.1503   1.1509   1.1516   1.1527
  1.1530   1.1553   1.1557   1.1572   1.1584   1.1588   1.1593   1.1598
  1.1608   1.1617   1.1623   1.1645   1.1655   1.1675   1.1677   1.1693
  1.1697   1.1713   1.1716   1.1732   1.1734   1.1746   1.1759   1.1769
  1.1773   1.1778   1.1792   1.1808   1.1820   1.1837   1.1845   1.1863
  1.1869   1.1887   1.1891   1.1919   1.1932   1.1941   1.1943   1.1960
  1.1966   1.1983   1.2002   1.2006   1.2022   1.2029   1.2034   1.2052
  1.2060   1.2079   1.2105   1.2117   1.2120   1.2146   1.2151   1.2168
  1.2187   1.2192   1.2220   1.2231   1.2251   1.2261   1.2275   1.2278
  1.2298   1.2299   1.2324   1.2331   1.2353   1.2369   1.2381   1.2394
  1.2408   1.2418   1.2429   1.2451   1.2477   1.2484   1.2506   1.2509
  1.2516   1.2531   1.2568   1.2588   1.2596   1.2610   1.2616   1.2621
  1.2649   1.2664   1.2671   1.2700   1.2705   1.2735   1.2745   1.2765
  1.2775   1.2796   1.2807   1.2816   1.2832   1.2847   1.2862   1.2877
  1.2900   1.2903   1.2939   1.2944   1.2960   1.2983   1.3012   1.3017
  1.3047   1.3052   1.3067   1.3086   1.3104   1.3124   1.3124   1.3141
  1.3160   1.3196   1.3205   1.3225   1.3232   1.3249   1.3256   1.3269
  1.3295   1.3309   1.3340   1.3346   1.3349   1.3365   1.3383   1.3402
  1.3419   1.3460   1.3476   1.3493   1.3541   1.3554   1.3568   1.3588
  1.3616   1.3630   1.3656   1.3692   1.3710   1.3741   1.3743   1.3748
  1.3781   1.3803   1.3825   1.3852   1.3861   1.3879   1.3884   1.3916
  1.3941   1.3972   1.4012   1.4038   1.4055   1.4085   1.4096   1.4119
  1.4177   1.4189   1.4200   1.4213   1.4232   1.4237   1.4260   1.4284
  1.4300   1.4324   1.4350   1.4378   1.4386   1.4402   1.4425   1.4432
  1.4487   1.4495   1.4522   1.4549   1.4584   1.4620   1.4634   1.4649
  1.4692   1.4705   1.4719   1.4739   1.4781   1.4796   1.4805   1.4871
  1.4914   1.4934   1.4973   1.5046   1.5052   1.5059   1.5076   1.5106
  1.5119   1.5139   1.5198   1.5232   1.5255   1.5270   1.5288   1.5292
  1.5312   1.5334   1.5367   1.5377   1.5382   1.5393   1.5412   1.5420
  1.5449   1.5478   1.5498   1.5532   1.5560   1.5583   1.5590   1.5630
  1.5657   1.5666   1.5699   1.5701   1.5715   1.5725   1.5734   1.5776
  1.5826   1.5831   1.5848   1.5897   1.5933   1.5941   1.5946   1.5950
  1.5966   1.5984   1.6009   1.6012   1.6027   1.6057   1.6088   1.6095
  1.6103   1.6116   1.6123   1.6143   1.6158   1.6170   1.6184   1.6208
  1.6223   1.6235   1.6251   1.6257   1.6281   1.6296   1.6307   1.6322
  1.6341   1.6348   1.6358   1.6372   1.6381   1.6416   1.6419   1.6435
  1.6472   1.6477   1.6491   1.6505   1.6511   1.6525   1.6534   1.6549
  1.6577   1.6588   1.6608   1.6638   1.6645   1.6650   1.6676   1.6686
  1.6702   1.6737   1.6754   1.6764   1.6788   1.6793   1.6807   1.6820
  1.6826   1.6837   1.6854   1.6858   1.6879   1.6898   1.6908   1.6944
  1.6946   1.6962   1.6977   1.6999   1.7014   1.7031   1.7036   1.7049
  1.7085   1.7122   1.7151   1.7169   1.7191   1.7246   1.7264   1.7285
  1.7327   1.7341   1.7399   1.7423   1.7447   1.7463   1.7500   1.7591
  1.7604   1.7637   1.7733   1.7748   1.7759   1.7792   1.7822   1.7887
  1.7901   1.7907   1.7924   1.7957   1.7958   1.8005   1.8015   1.8062
  1.8085   1.8096   1.8115   1.8164   1.8203   1.8248   1.8276   1.8313
  1.8345   1.8367   1.8404   1.8414   1.8450   1.8454   1.8476   1.8543
  1.8560   1.8614   1.8645   1.8674   1.8700   1.8721   1.8740   1.8766
  1.8778   1.8785   1.8795   1.8821   1.8839   1.8842   1.8858   1.8864
  1.8875   1.8888   1.8905   1.8913   1.8928   1.8989   1.9003   1.9013
  1.9031   1.9042   1.9052   1.9079   1.9099   1.9112   1.9131   1.9156
  1.9168   1.9172   1.9178   1.9194   1.9219   1.9229   1.9260   1.9278
  1.9308   1.9330   1.9361   1.9386   1.9393   1.9410   1.9420   1.9426
  1.9444   1.9474   1.9504   1.9528   1.9575   1.9607   1.9626   1.9631
  1.9651   1.9657   1.9662   1.9673   1.9703   1.9725   1.9739   1.9741
  1.9770   1.9773   1.9835   1.9843   1.9848   1.9860   1.9869   1.9881
  1.9909   1.9918   1.9926   1.9936   1.9946   1.9952   1.9960   1.9998
  2.0010   2.0022   2.0039   2.0051   2.0061   2.0094   2.0111   2.0140
  2.0151   2.0171   2.0185   2.0195   2.0227   2.0237   2.0263   2.0287
  2.0328   2.0342   2.0368   2.0394   2.0424   2.0446   2.0467   2.0481
  2.0498   2.0517   2.0542   2.0550   2.0559   2.0570   2.0588   2.0606
  2.0618   2.0626   2.0645   2.0663   2.0690   2.0702   2.0720   2.0747
  2.0766   2.0785   2.0799   2.0821   2.0821   2.0846   2.0852   2.0890
  2.0916   2.0925   2.0959   2.0970   2.0985   2.0998   2.1003   2.1009
  2.1015   2.1019   2.1045   2.1048   2.1077   2.1094   2.1105   2.1124
  2.1142   2.1143   2.1158   2.1179   2.1189   2.1218   2.1221   2.1246
  2.1262   2.1273   2.1279   2.1289   2.1295   2.1325   2.1330   2.1345
  2.1353   2.1360   2.1370   2.1375   2.1384   2.1394   2.1403   2.1414
  2.1420   2.1432   2.1437   2.1460   2.1464   2.1483   2.1493   2.1513
  2.1526   2.1543   2.1561   2.1585   2.1611   2.1618   2.1641   2.1647
  2.1658   2.1664   2.1676   2.1705   2.1726   2.1734   2.1745   2.1760
  2.1770   2.1775   2.1793   2.1810   2.1810   2.1817   2.1832   2.1839
  2.1852   2.1863   2.1885   2.1910   2.1916   2.1930   2.1935   2.1945
  2.1960   2.1971   2.1980   2.1999   2.2012   2.2025   2.2032   2.2042
  2.2056   2.2063   2.2067   2.2084   2.2094   2.2105   2.2111   2.2150
  2.2165   2.2176   2.2187   2.2198   2.2239   2.2246   2.2257   2.2271
  2.2289   2.2322   2.2324   2.2356   2.2361   2.2375   2.2390   2.2413
  2.2440   2.2444   2.2457   2.2478   2.2488   2.2541   2.2588   2.2614
  2.2629   2.2635   2.2648   2.2672   2.2683   2.2691   2.2702   2.2712
  2.2731   2.2746   2.2811   2.2813   2.2817   2.2844   2.2851   2.2879
  2.2900   2.2907   2.2935   2.2968   2.2973   2.2994   2.3013   2.3014
  2.3022   2.3042   2.3051   2.3064   2.3075   2.3078   2.3098   2.3112
  2.3141   2.3199   2.3226   2.3256   2.3260   2.3287   2.3291   2.3302
  2.3309   2.3319   2.3329   2.3346   2.3362   2.3391   2.3404   2.3420
  2.3433   2.3499   2.3505   2.3530   2.3540   2.3569   2.3588   2.3592
  2.3594   2.3598   2.3608   2.3626   2.3677   2.3707   2.3715   2.3749
  2.3787   2.3790   2.3800   2.3819   2.3872   2.3882   2.3921   2.3921
  2.3970   2.3979   2.4005   2.4025   2.4094   2.4110   2.4181   2.4213
  2.4220   2.4233   2.4248   2.4260   2.4272   2.4282   2.4287   2.4297
  2.4317   2.4321   2.4332   2.4334   2.4338   2.4346   2.4352   2.4365
  2.4384   2.4398   2.4405   2.4411   2.4417   2.4427   2.4449   2.4474
  2.4477   2.4499   2.4515   2.4526   2.4530   2.4548   2.4562   2.4568
  2.4583   2.4596   2.4600   2.4617   2.4626   2.4644   2.4654   2.4659
  2.4663   2.4681   2.4687   2.4696   2.4701   2.4716   2.4727   2.4730
  2.4740   2.4766   2.4780   2.4798   2.4800   2.4838   2.4853   2.4861
  2.4883   2.4891   2.4908   2.4915   2.4929   2.4942   2.4945   2.4980
  2.4991   2.4998   2.5005   2.5014   2.5038   2.5043   2.5052   2.5056
  2.5087   2.5095   2.5100   2.5107   2.5118   2.5124   2.5136   2.5150
  2.5171   2.5184   2.5192   2.5204   2.5262   2.5270   2.5286   2.5294
  2.5296   2.5317   2.5325   2.5349   2.5360   2.5367   2.5394   2.5421
  2.5444   2.5465   2.5491   2.5498   2.5517   2.5548   2.5552   2.5559
  2.5611   2.5637   2.5643   2.5658   2.5671   2.5722   2.5748   2.5756
  2.5778   2.5814   2.5862   2.5874   2.5894   2.5898   2.5952   2.5961
  2.5973   2.6032   2.6080   2.6101   2.6127   2.6146   2.6151   2.6164
  2.6209   2.6262   2.6298   2.6323   2.6345   2.6359   2.6396   2.6461
  2.6511   2.6576   2.6592   2.6615   2.6645   2.6705   2.6716   2.6746
  2.6762   2.6790   2.6832   2.6834   2.6856   2.6867   2.6901   2.6916
  2.6917   2.6936   2.6948   2.6964   2.6982   2.6999   2.7015   2.7017
  2.7033   2.7046   2.7063   2.7082   2.7090   2.7128   2.7149   2.7158
  2.7182   2.7272   2.7293   2.7312   2.7327   2.7337   2.7406   2.7430
  2.7463   2.7486   2.7518   2.7531   2.7548   2.7565   2.7581   2.7587
  2.7618   2.7653   2.7683   2.7730   2.7767   2.7818   2.7849   2.7890
  2.7912   2.7931   2.7959   2.7968   2.7984   2.7998   2.7999   2.8013
  2.8053   2.8137   2.8153   2.8161   2.8187   2.8243   2.8260   2.8265
  2.8269   2.8325   2.8359   2.8406   2.8420   2.8426   2.8452   2.8460
  2.8522   2.8546   2.8551   2.8565   2.8582   2.8661   2.8675   2.8700
  2.8727   2.8762   2.8778   2.8786   2.8798   2.8812   2.8828   2.8864
  2.8879   2.8902   2.8907   2.8924   2.8979   2.9002   2.9046   2.9071
  2.9090   2.9100   2.9113   2.9139   2.9163   2.9181   2.9193   2.9198
  2.9214   2.9231   2.9271   2.9349   2.9356   2.9370   2.9436   2.9457
  2.9488   2.9499   2.9510   2.9513   2.9520   2.9557   2.9581   2.9593
  2.9683   2.9706   2.9738   2.9751   2.9830   2.9942   2.9949   2.9965
  2.9991   3.0046   3.0073   3.0214   3.0268   3.0301   3.0439   3.0577
  3.0616   3.0828   3.0842   3.0907   3.0925   3.0938   3.1012   3.1063
  3.1073   3.1155   3.1210   3.1223   3.1299   3.1417   3.1482   3.1590
  3.1614   3.1701   3.1707   3.1837   3.1929   3.2057   3.2094   3.2138
  3.2210   3.2411   3.2458   3.2478   3.2485   3.2518   3.2651   3.2863
  3.2932   3.2993   3.3023   3.3211   3.3308   3.3312   3.3451   3.3477
  3.3817   3.3858   3.4114   3.4429   3.4833   3.6286   3.6361   3.6414
  3.6798   3.9649   4.1249   4.1303   4.1317   4.1329   4.1376   4.1810
  4.2076   4.2218   4.2289   4.2442   4.2612   4.2615   4.2631   4.2855
  4.2946   4.2997   4.3169   4.3221   4.3254   4.3287   4.3348   4.3352
  4.3363   4.3405   4.3445   4.3503   4.3545   4.3581   4.3601   4.3624
  4.3631   4.3657   4.3698   4.3721   4.3744   4.3761   4.3802   4.3865
  4.3916   4.3946   4.3966   4.4022   4.4043   4.4098   4.4112   4.4156
  4.4262   4.4319   4.4331   4.4389   4.4427   4.4470   4.4522   4.4530
  4.4562   4.4607   4.4614   4.4654   4.4686   4.4764   4.4766   4.4780
  4.4806   4.4822   4.4969   4.5015   4.5034   4.5062   4.5068   4.5112
  4.5150   4.5238   4.5294   4.5325   4.5349   4.5385   4.5410   4.5438
  4.5467   4.5490   4.5516   4.5558   4.5613   4.5637   4.5659   4.5665
  4.5741   4.5746   4.5817   4.5843   4.5911   4.5940   4.5957   4.6033
  4.6096   4.6166   4.6210   4.6285   4.6362   4.6388   4.6431   4.6450
  4.6526   4.6568   4.6690   4.6725   4.6807   4.6831   4.6841   4.6945
  4.7049   4.7067   4.7077   4.7121   4.7191   4.7345   4.7538   4.7570
  4.7655   4.7689   4.7707   4.7842   4.7855   4.7871   4.7914   4.7964
  4.7982   4.8032   4.8119   4.8170   4.8235   4.8298   4.8332   4.8612
  4.8898   4.9142   4.9181   4.9444   4.9694   4.9720   4.9874   5.0234
  5.0358   5.0636
 --------------------------------------------------------------
 
          Ground-State Mulliken Net Atomic Charges

     Atom                 Charge (a.u.)
  ----------------------------------------
      1 C                     0.485386
      2 O                    -0.623892
      3 C                    -0.297379
      4 C                     0.179998
      5 C                    -0.212791
      6 C                    -0.316616
      7 C                    -0.393534
      8 C                    -0.397387
      9 C                    -0.294929
     10 C                    -0.138356
     11 C                    -0.128289
     12 C                    -0.126708
     13 C                    -0.023177
     14 C                    -0.325929
     15 C                    -0.306454
     16 C                    -0.309103
     17 C                    -0.333131
     18 C                     0.143434
     19 C                    -0.475730
     20 O                    -0.655262
     21 H                     0.196119
     22 H                     0.263932
     23 H                     0.147620
     24 H                     0.162975
     25 H                     0.209769
     26 H                     0.174694
     27 H                     0.165867
     28 H                     0.249230
     29 H                     0.129646
     30 H                     0.181365
     31 H                     0.171299
     32 H                     0.121249
     33 H                     0.123763
     34 H                     0.135866
     35 H                     0.172018
     36 H                     0.149938
     37 H                     0.141643
     38 H                     0.156625
     39 H                     0.167564
     40 H                     0.147339
     41 H                     0.163583
     42 H                     0.114863
     43 H                     0.172237
     44 H                     0.164720
     45 H                     0.137249
     46 H                     0.406472
     47 H                     0.154114
     48 C                    -0.382083
     49 H                     0.187630
     50 C                    -0.361607
     51 H                     0.163856
     52 H                     0.152882
     53 C                     0.108931
     54 C                    -0.184682
     55 H                     0.144307
     56 C                    -0.207007
     57 H                     0.168863
     58 C                     0.357238
     59 O                    -0.743492
     60 H                     0.475780
     61 C                    -0.220394
     62 H                     0.164952
     63 C                    -0.191267
     64 H                     0.152437
     65 C                     0.594511
     66 O                    -0.503258
     67 N                    -0.629479
     68 H                     0.329959
     69 C                    -0.134608
     70 H                     0.209491
     71 C                    -0.151767
     72 H                     0.131514
     73 C                    -0.474612
     74 H                     0.167408
     75 H                     0.162112
     76 H                     0.142751
     77 C                    -0.284721
     78 H                     0.134791
     79 H                     0.178226
     80 C                    -0.490992
     81 H                     0.156848
     82 H                     0.181418
     83 H                     0.153851
     84 H                     0.148753
     85 H                     0.169054
     86 C                    -0.465927
     87 H                     0.142714
     88 C                    -0.116918
[...]
          361         362         363         364         365         366
    1  -0.0847244   0.9690626   1.0230231  -0.2193646   2.4966181  -0.8481436
    2   3.9960226   1.6604908  -0.0300824   2.2222465   2.4639620   1.7026143
    3   0.0975201  -0.8854825  -0.4988477  -2.2309842  -0.4178281  -0.0019984
          367         368         369         370
    1  -0.2250610  -1.5735293  -1.1926589   0.7996969
    2   0.0531746   2.3886615   2.3803731   3.4275295
    3  -0.0382101   1.6640185  -1.7566831   0.7917592
 EField
            1           2           3           4           5           6
    1   0.0016056   0.0060606  -0.0009346  -0.0106261  -0.0153219  -0.0045943
    2   0.0319202   0.0501173   0.0225993   0.0180671   0.0164209   0.0137051
    3  -0.0073100  -0.0165818   0.0014174  -0.0007439   0.0048809   0.0020075
            7           8           9          10          11          12
    1  -0.0032575  -0.0164362  -0.0117914  -0.0117162  -0.0098449  -0.0065317
    2   0.0198609   0.0093655   0.0023065   0.0002101   0.0051091  -0.0007479
    3  -0.0065972  -0.0034785   0.0010642   0.0039942   0.0047397   0.0028603
           13          14          15          16          17          18
    1  -0.0035672  -0.0017295  -0.0032815  -0.0070421  -0.0054691  -0.0048206
    2  -0.0020401   0.0023322   0.0039577  -0.0019105  -0.0031427  -0.0032477
    3   0.0011345  -0.0027198   0.0054561   0.0039376   0.0024511  -0.0001311
           19          20          21          22          23          24
    1  -0.0012848  -0.0039058   0.0030339  -0.0276396  -0.0018702  -0.0041606
    2  -0.0033822  -0.0050674   0.0175152   0.0243272   0.0097313   0.0088412
    3   0.0040987  -0.0012207   0.0095405   0.0168576  -0.0001546   0.0051778
           25          26          27          28          29          30
    1  -0.0023157  -0.0045697  -0.0089164  -0.0279580  -0.0088963  -0.0103699
    2   0.0206216   0.0152602   0.0076695   0.0047754   0.0034733   0.0006664
    3  -0.0031364  -0.0141946  -0.0060098  -0.0098321   0.0009292   0.0007560
           31          32          33          34          35          36
    1  -0.0147759  -0.0062085  -0.0058165  -0.0054401   0.0045857  -0.0035200
    2  -0.0065947   0.0057068   0.0003297   0.0030620   0.0049701   0.0023531
    3   0.0066236   0.0017891   0.0016665  -0.0014318  -0.0109459   0.0109132
           37          38          39          40          41          42
    1  -0.0014732  -0.0081629  -0.0068568  -0.0075641  -0.0043143  -0.0068342
    2   0.0056633  -0.0009861  -0.0028437  -0.0035623  -0.0038092  -0.0024992
    3   0.0047964   0.0023737   0.0069157   0.0019886   0.0024279  -0.0015403
           43          44          45          46          47          48
    1  -0.0031296  -0.0015497   0.0025155  -0.0040941   0.0202783  -0.0007107
    2  -0.0044508  -0.0043049  -0.0027738  -0.0084018  -0.0312071   0.0005083
    3   0.0077804   0.0039176   0.0034891  -0.0038784   0.0079558  -0.0026698
           49          50          51          52          53          54
    1  -0.0103909  -0.0010469  -0.0179462   0.0124211  -0.0005354   0.0017224
    2  -0.0074425  -0.0003280  -0.0299818   0.0060903   0.0026474   0.0053385
    3  -0.0337086   0.0001728   0.0083711   0.0339788  -0.0025665   0.0032827
           55          56          57          58          59          60
    1  -0.0000163   0.0048708  -0.0256687   0.0231168  -0.0610111  -0.0059404
    2  -0.0377399  -0.0055637  -0.0089661  -0.0338059  -0.0114684  -0.0013215
    3  -0.0218499   0.0009314  -0.0367182   0.0044656  -0.0930082  -0.0175236
           61          62          63          64          65          66
    1   0.0089217   0.0175673   0.0001568   0.0287403  -0.0070748  -0.0013098
    2  -0.0157681   0.0216468  -0.0073246   0.0033833  -0.0053533   0.0458994
    3  -0.0030340   0.0232569  -0.0066372   0.0341219  -0.0094891  -0.1030687
           67          68          69          70          71          72
    1  -0.0006436  -0.0013937   0.0115552  -0.0078724  -0.0026027   0.0116826
    2   0.0045136  -0.0234224   0.0170530   0.0175073   0.0028225  -0.0181719
    3  -0.0062116   0.0392939  -0.0027903  -0.0314162   0.0001545   0.0292102
           73          74          75          76          77          78
    1  -0.0016820   0.0021662  -0.0062960   0.0365301   0.0036068  -0.0202511
    2  -0.0000706   0.0261549   0.0254533  -0.0131967   0.0020603  -0.0266667
    3   0.0010948   0.0292518  -0.0309336  -0.0056426   0.0011912   0.0139201
           79          80          81          82          83          84
    1   0.0042720   0.0031430  -0.0256819  -0.0105696   0.0226784   0.0314387
    2   0.0216652  -0.0006781   0.0212223  -0.0218809   0.0314022  -0.0132155
    3   0.0316492  -0.0010482   0.0111744  -0.0322315  -0.0158910  -0.0104165
           85          86          87          88          89          90
    1   0.0015688  -0.0021185  -0.0210524  -0.0001074   0.0197561  -0.0000345
    2  -0.0384724   0.0009639   0.0104326   0.0004754  -0.0125710  -0.0037071
    3   0.0006729   0.0040137  -0.0318615  -0.0007355   0.0269287  -0.0016107
           91          92          93          94          95          96
    1   0.0351998  -0.0225121  -0.0129857   0.0053622  -0.0159589   0.0023380
    2   0.0172658   0.0176502   0.0174430  -0.0022094   0.0144525  -0.0383361
    3  -0.0052350  -0.0290924   0.0327293  -0.0013910   0.0285291   0.0057848
           97          98          99         100         101         102
    1  -0.0230150   0.0360260  -0.0272123   0.0067051   0.0275171   0.0097909
    2   0.0081358   0.0127056  -0.0175629  -0.0018472  -0.0041100   0.0056236
    3  -0.0330073  -0.0068248   0.0041343  -0.0003804   0.0255460  -0.0043530
          103         104         105         106         107         108
    1  -0.0081171  -0.0002394   0.0086591   0.0421919   0.0637037   0.0001428
    2   0.0126595  -0.0314966  -0.0013425   0.0086026  -0.0049524  -0.0104329
    3  -0.0302097  -0.0057511  -0.0080020   0.0792426  -0.0892569  -0.0062177
          109         110         111         112         113         114
    1  -0.0667683  -0.0006537  -0.0045424   0.0153521  -0.0328168   0.0025177
    2   0.0171051  -0.0043259   0.0134432   0.0063658  -0.0021734  -0.0020044
    3  -0.0868565  -0.0036476  -0.0056076  -0.0324545  -0.0094809  -0.0003241
          115         116         117         118         119         120
    1   0.0085351  -0.0251579   0.0026473   0.0129702   0.0328532   0.0162570
    2   0.0348519   0.0014788  -0.0001642   0.0065726   0.0045853  -0.0032640
    3  -0.0090439   0.0253397  -0.0027727   0.0334554  -0.0206152   0.0115221
          121         122         123         124         125         126
    1   0.0302911  -0.0166500  -0.0374821  -0.0000251   0.0078042   0.0003068
    2  -0.0242424  -0.0131177  -0.0034915  -0.0023934   0.0203974  -0.0002290
    3  -0.0087630   0.0268601   0.0036319   0.0023621   0.0342427   0.0015095
          127         128         129         130         131         132
    1  -0.0053349   0.0362870  -0.0017051   0.0059299  -0.0229183   0.0037458
    2  -0.0177574   0.0046011  -0.0008110   0.0021976  -0.0032334   0.0049642
    3  -0.0307042  -0.0028322   0.0045235   0.0073465  -0.0348273  -0.0016663
          133         134         135         136         137         138
    1  -0.0327535   0.0061934  -0.0850555   0.0229467  -0.0023847   0.0235053
    2  -0.0252108   0.0166128  -0.0736003   0.0102421   0.0038424   0.0053100
    3  -0.0003799  -0.0249231   0.0070897   0.0338837  -0.0071126   0.0300012
          139         140         141         142         143         144
    1  -0.0073251   0.0335759   0.0061952  -0.0316026   0.0013347  -0.0110651
    2  -0.0031653   0.0278578   0.0214224   0.0167245   0.0008798  -0.0363827
    3  -0.0024232   0.0010349  -0.0310667   0.0099070  -0.0020889  -0.0013672
          145         146         147         148         149         150
    1   0.0032441   0.0285458   0.0200318   0.0004222  -0.0155665  -0.0300876
    2   0.0028100  -0.0198009   0.0289340  -0.0031844  -0.0313957   0.0203507
    3   0.0002339  -0.0116803   0.0077837  -0.0004651  -0.0072708   0.0126637
          151         152         153         154         155         156
    1  -0.0032740   0.0083826  -0.0102493   0.0000453   0.0181639  -0.0019268
    2  -0.0140406  -0.0742739  -0.0043530   0.0306303   0.0139592   0.0079611
    3   0.0033327  -0.0871465  -0.0047272   0.0378867  -0.0403073  -0.0097265
          157         158         159         160         161         162
    1   0.0642161   0.0092203  -0.0303769   0.0115768  -0.0130298   0.0055396
    2   0.0944593  -0.0004504  -0.0329428   0.0109240  -0.0090905   0.0338299
    3  -0.0125172  -0.0057805   0.0057540   0.0141112   0.0359475   0.0055719
          163         164         165         166         167         168
    1  -0.0023276   0.0783794   0.0047839  -0.0368152   0.0182412   0.0227096
    2   0.0090757   0.0536616   0.0028276  -0.0106736  -0.0064256   0.0214012
    3   0.0088114   0.0690334   0.0047453  -0.0242907   0.0021993   0.0209935
          169         170         171         172         173         174
    1  -0.0020120  -0.0187975   0.0335168   0.0010146  -0.0345923  -0.0001994
    2   0.0013674  -0.0205791  -0.0153983   0.0010714   0.0131725   0.0044918
    3   0.0060716  -0.0236500  -0.0042037   0.0017114   0.0037241  -0.0000541
          175         176         177         178         179         180
    1  -0.0122193  -0.0197511   0.0358542  -0.0027829   0.0386615  -0.0036575
    2  -0.0106408  -0.0210127  -0.0139545   0.0029015  -0.0065726   0.0437529
    3   0.0342223  -0.0234617  -0.0000795  -0.0012032   0.0013670  -0.0006689
          181         182         183         184         185         186
    1  -0.0109914   0.0123453   0.0130077  -0.0055955   0.0141551  -0.0012391
    2  -0.0050169   0.0074630  -0.0038272   0.0001162   0.0339127   0.0016251
    3   0.0375002  -0.0308593  -0.0350857   0.0005513   0.0132913   0.0004472
          187         188         189         190         191         192
    1  -0.0125458  -0.0013647   0.0116504   0.0093102  -0.0416449  -0.0023194
    2  -0.0316641  -0.0001688  -0.0266126   0.0345339  -0.0002337  -0.0023797
    3  -0.0114133  -0.0037309   0.0248730   0.0174039   0.0044308   0.0033940
          193         194         195         196         197         198
    1   0.0095590   0.0067645  -0.0430338   0.0168580   0.0322291  -0.0003374
    2   0.0347471  -0.0026037   0.0031831  -0.0268516  -0.0011808   0.0005903
    3   0.0094492  -0.0372014   0.0032902   0.0208816  -0.0197677   0.0001284
          199         200         201         202         203         204
    1   0.0012568  -0.0003676  -0.0331080  -0.0023788  -0.0060558   0.0044325
    2   0.0334889   0.0006125   0.0019297  -0.0337237   0.0261765  -0.0251717
    3   0.0172257   0.0001088   0.0188327  -0.0185658  -0.0280998   0.0277429
          205         206         207         208         209         210
    1  -0.0332332   0.0004586   0.0244881   0.0018746   0.0051950   0.0342057
    2  -0.0139474   0.0001901  -0.0121154  -0.0005213  -0.0357052   0.0125123
    3   0.0117046  -0.0006477   0.0269361   0.0015328  -0.0040035  -0.0081727
          211         212         213         214         215         216
    1  -0.0014361  -0.0036530  -0.0330175   0.0368880  -0.0066989  -0.0320451
    2   0.0021813   0.0378169  -0.0127681  -0.0203858   0.0080349  -0.0194646
    3   0.0113852   0.0040211   0.0083298  -0.0121259  -0.0015894   0.0061387
          217         218         219         220         221         222
    1  -0.0048990   0.0105832  -0.0025705  -0.0297163  -0.0008459   0.0233855
    2   0.0403781   0.0044302   0.0376361   0.0188570   0.0005487  -0.0091838
    3   0.0100075  -0.0359703   0.0075919   0.0154715  -0.0008826   0.0290541
          223         224         225         226         227         228
    1  -0.0002502   0.0287620  -0.0148396  -0.0029065  -0.0085264   0.0411896
    2   0.0005113  -0.0180736  -0.0276689   0.0028586  -0.0004106   0.0040006
    3   0.0002761  -0.0129713   0.0178060  -0.0033613   0.0007290  -0.0051779
          229         230         231         232         233         234
    1  -0.0033550   0.0156774   0.0048203  -0.0253204   0.0054706  -0.0423856
    2  -0.0012871   0.0188975   0.0000623   0.0175792   0.0038866   0.0013915
    3   0.0059699  -0.0353591   0.0057818  -0.0308161  -0.0001159   0.0061439
          235         236         237         238         239         240
    1   0.0035784  -0.0162506   0.0173885  -0.0193340  -0.0035845   0.0163185
    2   0.0043566  -0.0173867   0.0289751  -0.0010668   0.0013963  -0.0334114
    3  -0.0065313   0.0347950  -0.0188158   0.0343115  -0.0034869  -0.0037148
          241         242         243         244         245         246
    1  -0.0017876   0.0181497   0.0013344  -0.0255414   0.0116329  -0.0276304
    2   0.0004564   0.0008132   0.0040644  -0.0016203  -0.0360831   0.0080277
    3   0.0007112  -0.0311656  -0.0002236   0.0325998  -0.0078660  -0.0289780
          247         248         249         250         251         252
    1   0.0017297  -0.0250251  -0.0259173   0.0256810   0.0279466   0.0235688
    2  -0.0030370   0.0021701   0.0107617   0.0287300   0.0257213   0.0125146
    3   0.0000807   0.0325641  -0.0282220   0.0014106   0.0045332   0.0270532
          253         254         255         256         257         258
    1  -0.0003081   0.0216004   0.0017547   0.0068243  -0.0198673  -0.0051632
    2  -0.0003426  -0.0221147  -0.0017417  -0.0330336  -0.0138214  -0.0036273
    3   0.0014232  -0.0225378  -0.0013013   0.0172680  -0.0270462  -0.0096948
          259         260         261         262         263         264
    1  -0.0082924  -0.0318506   0.0403398  -0.0095189  -0.0120868  -0.0320361
    2   0.0317636  -0.0169056  -0.0120283   0.0043752   0.0323169  -0.0231964
    3  -0.0170936   0.0080258   0.0111928   0.0053746  -0.0170965   0.0085465
          265         266         267         268         269         270
    1   0.0102124  -0.0061665   0.0216369  -0.0032154   0.0018821  -0.0039896
    2   0.0125959   0.0318318   0.0156505  -0.0009203   0.0226106  -0.0034236
    3   0.0361953  -0.0206658  -0.0261932  -0.0009586   0.0303344   0.0020009
          271         272         273         274         275         276
    1  -0.0020946  -0.0200008  -0.0022949   0.0167891  -0.0007166   0.0310858
    2  -0.0175175   0.0302585   0.0004833  -0.0302475  -0.0034128   0.0112780
    3  -0.0327807  -0.0100855  -0.0029991   0.0082508  -0.0040754   0.0189329
          277         278         279         280         281         282
    1  -0.0218066  -0.0219270  -0.0013610  -0.0010085  -0.0269469  -0.0293058
    2   0.0321108  -0.0197368   0.0003832  -0.0236358   0.0267158  -0.0205657
    3  -0.0076370   0.0244491   0.0002968  -0.0333080  -0.0154571   0.0201921
          283         284         285         286         287         288
    1   0.0180753   0.0290400  -0.0026498  -0.0289494  -0.0011634   0.0269498
    2  -0.0322506   0.0212569  -0.0031334   0.0263325   0.0011991  -0.0218064
    3   0.0091734  -0.0150707  -0.0043204   0.0017893  -0.0019396  -0.0042325
          289         290         291         292         293         294
    1   0.0025429  -0.0144162   0.0061595  -0.0330165  -0.0021571  -0.0135447
    2   0.0024066  -0.0273491  -0.0130515   0.0240008   0.0001330  -0.0257922
    3  -0.0049952  -0.0231758   0.0339379   0.0014919   0.0011471  -0.0262881
          295         296         297         298         299         300
    1   0.0269457  -0.0342230   0.0091949   0.0348955   0.0017204   0.0116285
    2   0.0196380   0.0274543  -0.0092757  -0.0158571   0.0044548   0.0388799
    3  -0.0204210  -0.0069814   0.0350031   0.0065229   0.0017143  -0.0019628
          301         302         303         304         305         306
    1  -0.0025044  -0.0105267  -0.0343907   0.0063432   0.0889872  -0.0786800
    2   0.0036153  -0.0351983   0.0177522   0.0126010   0.0755023  -0.0720200
    3   0.0080224   0.0054247  -0.0002051   0.0289682  -0.0033937   0.0245178
          307         308         309         310         311         312
    1   0.0052252  -0.0188109  -0.0361166  -0.0007584   0.0165813  -0.0031007
    2   0.0095072  -0.0028480  -0.0127008   0.0025321  -0.0259224   0.0010721
    3   0.0226519   0.0342350  -0.0023485  -0.0003650   0.0231450   0.0011633
          313         314         315         316         317         318
    1  -0.0014306  -0.0228780  -0.0058251   0.0208511   0.0140264  -0.0035568
    2  -0.0306578   0.0220743  -0.0104573  -0.0201667  -0.0024680   0.0162232
    3  -0.0193739  -0.0210654  -0.0023927   0.0241875  -0.0261500   0.0441631
          319         320         321         322         323         324
    1  -0.0018549  -0.0322869   0.0269874   0.0028454  -0.0045587  -0.0348890
    2   0.0124135  -0.0000413   0.0047909   0.0458687   0.0336560  -0.0093786
    3  -0.0109393  -0.0238134  -0.0216363   0.0034535   0.0203601  -0.0087047
          325         326         327         328         329         330
    1   0.0012760   0.0096856   0.0004771   0.0400443  -0.0062674   0.0049745
    2   0.0026775  -0.0174999   0.0074337   0.0116312   0.0297014  -0.0283284
    3  -0.0030543   0.0304823  -0.0078448   0.0037162  -0.0383345  -0.0139674
          331         332         333         334         335         336
    1  -0.0044359  -0.0279178   0.0006006   0.0166412  -0.0005321   0.0294071
    2   0.0377876  -0.0242952  -0.0011064   0.0062447  -0.0008927   0.0211820
    3   0.0090779   0.0040920  -0.0036284   0.0328084  -0.0007555  -0.0056479
          337         338         339         340         341         342
    1   0.0187507  -0.0032309   0.0119021  -0.0065300  -0.0067989  -0.0231147
    2  -0.0285794  -0.0050634   0.0088964  -0.0393424  -0.0152087  -0.0402015
    3   0.0077687  -0.0050252   0.0080133   0.0194341  -0.0135898  -0.0340329
          343         344         345         346         347         348
    1   0.0079107   0.0045927  -0.0204070   0.0019177  -0.0074216  -0.0022678
    2   0.0133186   0.0021122  -0.0267676  -0.0085621   0.0141455  -0.0096205
    3  -0.0066623  -0.0006304  -0.0314621   0.0056390  -0.0356241   0.0022429
          349         350         351         352         353         354
    1   0.0141909  -0.0041818   0.0225986   0.0000703  -0.0181220   0.0124417
    2   0.0353579  -0.0039653   0.0200412  -0.0032160   0.0309513  -0.0085154
    3  -0.0079582  -0.0100964   0.0273679  -0.0027010  -0.0114776   0.0341163
          355         356         357         358         359         360
    1  -0.0023849   0.0289890  -0.0015080  -0.0254406   0.0020839  -0.0003794
    2  -0.0016445  -0.0095825   0.0001313   0.0035314  -0.0389531  -0.0020659
    3  -0.0007778  -0.0232843  -0.0035904   0.0266135   0.0014310   0.0017173
          361         362         363         364         365         366
    1  -0.0032255  -0.0029902   0.0051380  -0.0152492   0.0343771   0.0030267
    2   0.0351589   0.0003205  -0.0394989   0.0082451   0.0154509  -0.0000774
    3   0.0002826   0.0033171  -0.0014796  -0.0340801  -0.0000220   0.0002626
          367         368         369         370
    1  -0.0028534  -0.0257319  -0.0184715  -0.0021753
    2  -0.0406316   0.0082563   0.0089058   0.0380555
    3  -0.0013880   0.0276578  -0.0326519  -0.0006697
  --- DONE ESP SUMMARY ---
 Total job time:  13.50s(wall), 142.95s(cpu) 
 Fri Aug  9 14:49:56 2024

        *************************************************************
        *                                                           *
        *  Thank you very much for using Q-Chem.  Have a nice day.  *
        *                                                           *
        *************************************************************


