
Running Job 1 of 2 19nt_mm_min_distance_cutoff3_nowat_optimized_spade_wb97x-v_631gd.in
qchem 19nt_mm_min_distance_cutoff3_nowat_optimized_spade_wb97x-v_631gd.in_4187776.0 ./qchem4187776/ 1
srun -n 1 /cm/shared/apps/spack/0.17.3/cpu/b/opt/spack/linux-rocky8-zen2/gcc-10.2.0/qchem-6.0-rytxnwjazd34ekd2gqyi5ufsaimxsd3r/exe/qcprog.exe 19nt_mm_min_distance_cutoff3_nowat_optimized_spade_wb97x-v_631gd.in_4187776.0 ./qchem4187776/

                  Welcome to Q-Chem
     A Quantum Leap Into The Future Of Chemistry


 Q-Chem 6.0, Q-Chem, Inc., Pleasanton, CA (2022)

 License issued to: University of California, San Diego (site)

 E. Epifanovsky,  A. T. B. Gilbert,  Xintian Feng,  Joonho Lee,  Yuezhi Mao,  
 N. Mardirossian,  P. Pokhilko,  A. White,  M. Wormit,  M. P. Coons,  
 A. L. Dempwolff,  Zhengting Gan,  D. Hait,  P. R. Horn,  L. D. Jacobson,  
 I. Kaliman,  J. Kussmann,  A. W. Lange,  Ka Un Lao,  D. S. Levine,  Jie Liu,  
 S. C. McKenzie,  A. F. Morrison,  K. Nanda,  F. Plasser,  D. R. Rehn,  
 M. L. Vidal,  Zhi-Qiang You,  Ying Zhu,  B. Alam,  B. Albrecht,  
 A. Aldossary,  E. Alguire,  J. H. Andersen,  V. Athavale,  D. Barton,  
 K. Begam,  A. Behn,  N. Bellonzi,  Y. A. Bernard,  E. J. Berquist,  
 H. Burton,  A. Carreras,  K. Carter-Fenk,  Romit Chakraborty,  
 Chandrima Chakravarty,  Junhan Chen,  A. D. Chien,  K. D. Closser,  
 V. Cofer-Shabica,  L. Cunha,  S. Dasgupta,  Jia Deng,  M. de Wergifosse,  
 M. Diedenhofen,  Hainam Do,  S. Ehlert,  Po-Tung Fang,  S. Fatehi,  
 Qingguo Feng,  T. Friedhoff,  B. Ganoe,  J. Gayvert,  Qinghui Ge,  
 G. Gidofalvi,  M. Goldey,  J. Gomes,  C. Gonzalez-Espinoza,  S. Gulania,  
 A. Gunina,  J. A. Gyamfi,  M. W. D. Hanson-Heine,  P. H. P. Harbach,  
 A. W. Hauser,  M. F. Herbst,  M. Hernandez Vera,  M. Hodecker,  
 Z. C. Holden,  S. Houck,  Xunkun Huang,  Kerwin Hui,  B. C. Huynh,  
 K. Ikeda,  M. Ivanov,  Hyunjun Ji,  Zuxin Jin,  Hanjie Jiang,  B. Kaduk,  
 S. Kaehler,  R. Kang,  K. Khistyaev,  Jaehoon Kim,  Yongbin Kim,  
 P. Klunzinger,  Z. Koczor-Benda,  Joong Hoon Koh,  D. Kosenkov,  
 Saikiran Kotaru,  L. Koulias,  T. Kowalczyk,  C. M. Krauter,  K. Kue,  
 A. Kunitsa,  T. Kus,  A. Landau,  K. V. Lawler,  D. Lefrancois,  S. Lehtola,  
 Rain Li,  Shaozhi Li,  Yi-Pei Li,  Jiashu Liang,  M. Liebenthal,  
 Hung-Hsuan Lin,  You-Sheng Lin,  Fenglai Liu,  Kuan-Yu Liu,  
 M. Loipersberger,  A. Luenser,  C. Malbon,  A. Manjanath,  P. Manohar,  
 E. Mansoor,  S. F. Manzer,  Shan-Ping Mao,  A. V. Marenich,  T. Markovich,  
 S. Mason,  F. Matz,  S. A. Maurer,  P. F. McLaughlin,  M. F. S. J. Menger,  
 J.-M. Mewes,  S. A. Mewes,  P. Morgante,  Mohammad Mostafanejad,  
 J. W. Mullinax,  K. J. Oosterbaan,  G. Paran,  V. Parravicini,  
 Alexander C. Paul,  Suranjan K. Paul,  F. Pavosevic,  Zheng Pei,  S. Prager,  
 E. I. Proynov,  E. Ramos,  B. Rana,  A. E. Rask,  A. Rettig,  R. M. Richard,  
 F. Rob,  E. Rossomme,  T. Scheele,  M. Scheurer,  M. Schneider,  
 P. E. Schneider,  N. Sergueev,  S. M. Sharada,  Hengyuan Shen,  
 W. Skomorowski,  D. W. Small,  C. J. Stein,  Yingli Su,  Yu-Chuan Su,  
 E. J. Sundstrom,  Zhen Tao,  J. Thirman,  Hung-Yi Tsai,  T. Tsuchimochi,  
 N. M. Tubman,  C. Utku,  S. P. Veccham,  O. Vydrov,  J. Wenzel,  
 Jonathan Wong,  J. Witte,  A. Yamada,  Chou-Hsun Yang,  Kun Yao,  
 S. Yeganeh,  S. R. Yost,  A. Zech,  F. Zeller,  Igor Ying Zhang,  
 Xing Zhang,  Yu Zhang,  D. Zuev,  A. Aspuru-Guzik,  A. T. Bell,  
 N. A. Besley,  K. B. Bravaya,  B. R. Brooks,  D. Casanova,  Jeng-Da Chai,  
 Hsing-Ta Chen,  S. Coriani,  C. J. Cramer,  A. E. DePrince, III,  
 R. A. DiStasio Jr.,  A. Dreuw,  B. D. Dunietz,  T. R. Furlani,  
 W. A. Goddard III,  S. Grimme,  S. Hammes-Schiffer,  T. Head-Gordon,  
 W. J. Hehre,  Chao-Ping Hsu,  T.-C. Jagau,  Yousung Jung,  A. Klamt,  
 Jing Kong,  D. S. Lambrecht,  Xiangyuan Li,  WanZhen Liang,  N. J. Mayhall,  
 C. W. McCurdy,  J. B. Neaton,  T. Neudecker,  C. Ochsenfeld,  
 J. A. Parkhill,  R. Peverati,  V. A. Rassolov,  Haisheng Ren,  Yihan Shao,  
 L. V. Slipchenko,  R. P. Steele,  J. E. Subotnik,  A. J. W. Thom,  
 A. Tkatchenko,  D. G. Truhlar,  T. Van Voorhis,  Fan Wang,  
 T. A. Wesolowski,  K. B. Whaley,  H. L. Woodcock III,  P. M. Zimmerman,  
 S. Faraji,  P. M. W. Gill,  M. Head-Gordon,  J. M. Herbert,  A. I. Krylov

 Contributors to earlier versions of Q-Chem not listed above: 
 R. D. Adamson,  B. Austin,  R. Baer,  J. Baker,  G. J. O. Beran,  
 K. Brandhorst,  S. T. Brown,  E. F. C. Byrd,  Arup K. Chakraborty,  
 G. K. L. Chan,  Chun-Min Chang,  Yunqing Chen,  C.-L. Cheng,  
 Siu Hung Chien,  D. M. Chipman,  D. L. Crittenden,  H. Dachsel,  
 R. J. Doerksen,  A. D. Dutoi,  R. G. Edgar,  J. Fosso-Tande,  
 L. Fusti-Molnar,  D. Ghosh,  A. Ghysels,  A. Golubeva-Zadorozhnaya,  
 J. Gonthier,  M. S. Gordon,  S. R. Gwaltney,  G. Hawkins,  J. E. Herr,  
 A. Heyden,  S. Hirata,  E. G. Hohenstein,  G. Kedziora,  F. J. Keil,  
 C. Kelley,  Jihan Kim,  R. A. King,  R. Z. Khaliullin,  P. P. Korambath,  
 W. Kurlancheek,  A. Laurent,  A. M. Lee,  M. S. Lee,  S. V. Levchenko,  
 Ching Yeh Lin,  D. Liotard,  E. Livshits,  R. C. Lochan,  I. Lotan,  
 L. A. Martinez-Martinez,  P. E. Maslen,  N. Nair,  D. P. O'Neill,  
 D. Neuhauser,  E. Neuscamman,  C. M. Oana,  R. Olivares-Amaya,  R. Olson,  
 T. M. Perrine,  B. Peters,  P. A. Pieniazek,  A. Prociuk,  Y. M. Rhee,  
 J. Ritchie,  M. A. Rohrdanz,  E. Rosta,  N. J. Russ,  H. F. Schaefer III,  
 M. W. Schmidt,  N. E. Schultz,  S. Sharma,  N. Shenvi,  C. D. Sherrill,  
 A. C. Simmonett,  A. Sodt,  T. Stein,  D. Stuck,  K. S. Thanthiriwatte,  
 V. Vanovschi,  L. Vogt,  Tao Wang,  A. Warshel,  M. A. Watson,  
 C. F. Williams,  Q. Wu,  X. Xu,  Jun Yang,  W. Zhang,  Yan Zhao

   Please cite Q-Chem as follows:
  "Software for the frontiers of quantum chemistry:
   An overview of developments in the Q-Chem 5 package"
   J. Chem. Phys. 155, 084801 (2021)
   https://doi.org/10.1063/5.0055522 (open access)

 Q-Chem 6.0.2 for Intel X86 EM64T Linux

 Parts of Q-Chem use Armadillo 9.900.5 (Nocturnal Misbehaviour).
 http://arma.sourceforge.net/

 Q-Chem begins on Tue Aug  6 12:59:09 2024  

 Host: 
0

     Scratch files written to ./qchem4187776//
 Dec722 |scratch|qcdevops|jenkins|workspace|build_RNUM    
 Processing $rem in /cm/shared/apps/spack/0.17.3/cpu/b/opt/spack/linux-rocky8-zen2/gcc-10.2.0/qchem-6.0-rytxnwjazd34ekd2gqyi5ufsaimxsd3r/config/preferences:
 Processing $rem in /home/hklem/.qchemrc:
 No nuclear gradient supported for projection-based embedding or EMFT. Set max ideriv = 0.

 Checking the input file for inconsistencies... 	...done.

--------------------------------------------------------------
User input:
--------------------------------------------------------------
$molecule
-1 1
--
0 1
C    -3.48100   0.94200    1.19700
O    -4.72000   1.04800    1.11000
C    -2.80600   -0.32100   1.06000
C    -1.48500   -0.46500   1.34100
C    -0.58400   0.72500    1.59900
C    -1.21900   2.02700    1.10700
C    -2.66600   2.15900    1.55200
C    -0.89400   -1.82100   1.53200
C    0.53700    -1.97300   1.01300
C    1.42800    -0.82600   1.49200
C    0.82400    0.50800    0.99800
C    2.86800    -0.94300   1.00500
C    3.75600    0.25200    1.40900
C    3.17600    1.52400    0.79700
C    1.72300    1.73500    1.23300
C    3.70800    -2.16100   1.41200
C    5.16600    -1.71500   1.11800
C    5.09200    -0.20800   0.79700
C    3.90800    0.41300    2.93200
O    6.25300    0.45500    1.27000
H    -3.42300   -1.19100   0.85600
H    -0.46500   0.77500    2.69600
H    -1.16900   2.05200    0.00900
H    -0.65400   2.89200    1.46900
H    -2.71900   2.26100    2.64600
H    -3.14800   3.04800    1.13500
H    -1.55000   -2.58300   1.10300
H    -0.90800   -1.98400   2.63000
H    0.53300    -1.99500   -0.08600
H    0.93200    -2.93500   1.35100
H    1.41600    -0.83800   2.59200
H    0.69700    0.40600    -0.09300
H    2.82700    -0.93300   -0.09900
H    3.21700    1.44700    -0.29900
H    3.76400    2.40600    1.08000
H    1.69700    2.02000    2.29400
H    1.32300    2.58900    0.67800
H    3.43100    -3.06700   0.87200
H    3.56400    -2.38300   2.47400
H    5.60200    -2.27600   0.28500
H    5.82300    -1.86000   1.98100
H    5.02000    -0.06900   -0.29600
H    4.46500    -0.41500   3.37900
H    4.44000    1.34100    3.16500
H    2.93700    0.46500    3.43300
H    6.08000    1.40500    1.22000
--
-1 1
H    -8.21700   6.78800    -4.33900
C    -7.63800   6.32300    -3.53200
H    -6.86000   7.02700    -3.21700
C    -8.53100   5.94200    -2.34900
H    -9.04300   6.83800    -1.97500
H    -9.31700   5.25900    -2.69500
C    -7.75200   5.29800    -1.22700
C    -7.39700   6.00900    -0.08000
H    -7.70800   7.04700    0.02100
C    -6.66400   5.41900    0.94200
H    -6.40100   5.97300    1.83800
C    -6.26300   4.08600    0.83600
O    -5.57700   3.54500    1.86400
H    -5.34900   2.61400    1.64600
C    -6.59100   3.36300    -0.31700
H    -6.28000   2.32600    -0.41000
C    -7.32800   3.97100    -1.32500
H    -7.58600   3.39100    -2.21000
H    -7.13500   5.43900    -3.93900
H    -2.05800   8.08200    -2.46300
C    -1.55100   7.26900    -1.93100
H    -1.36800   7.60300    -0.90200
C    -2.39900   5.99100    -1.93600
H    -2.56600   5.70200    -2.98300
C    -1.66800   4.83500    -1.24600
H    -0.69400   4.63400    -1.71000
H    -1.49100   5.06500    -0.18700
H    -2.26100   3.91500    -1.29000
C    -3.76600   6.22700    -1.28700
H    -4.39700   5.33200    -1.32900
H    -4.30900   7.04000    -1.78300
H    -3.65300   6.49800    -0.23000
H    -0.57800   7.10300    -2.40800
H    -3.72500   -3.99700   7.85600
C    -3.27000   -4.06200   6.85900
H    -4.01200   -4.44400   6.15400
C    -2.75500   -2.70200   6.38500
H    -1.99600   -2.30200   7.06500
H    -3.58500   -1.98100   6.37400
C    -2.16000   -2.74500   4.96300
O    -2.75900   -3.49900   4.14100
O    -1.15100   -2.04000   4.73100
H    -2.45400   -4.79200   6.90600
H    3.17900    4.84800    6.69500
C    3.48300    4.14400    5.91600
H    2.72800    3.35900    5.82400
H    4.42200    3.66600    6.20800
C    3.67800    4.78800    4.54200
O    3.99600    4.11900    3.56700
N    3.49500    6.13900    4.48100
H    3.18200    6.61300    5.31400
C    3.61200    6.93300    3.26000
H    4.09100    6.29000    2.51900
C    2.26600    7.45700    2.75500
H    1.83000    8.11100    3.52400
H    2.46000    8.09800    1.88300
C    1.24100    6.38300    2.36800
H    1.07400    5.74200    3.24500
C    -0.09200   7.04100    2.00200
H    -0.85600   6.28900    1.78200
H    -0.46700   7.67300    2.81600
H    0.02000    7.67200    1.11100
C    1.74100    5.49600    1.22400
H    2.04500    6.10500    0.36200
H    2.58900    4.87800    1.53500
H    0.94600    4.82300    0.88500
H    4.28800    7.77400    3.45500
H    6.96100    6.18300    -1.45100
C    6.12700    5.62700    -1.89500
H    6.53800    4.75700    -2.41400
C    5.11000    5.19600    -0.82900
H    4.65400    6.10600    -0.41100
C    3.99600    4.35300    -1.45500
H    3.48800    4.89400    -2.26200
H    4.41200    3.43100    -1.88200
H    3.24300    4.06200    -0.71500
C    5.77500    4.44200    0.32700
H    6.12200    3.45500    -0.00900
H    6.64600    4.98600    0.71100
H    5.08300    4.28800    1.16300
H    5.65500    6.26800    -2.64800
H    -3.27900   -2.33400   -7.69000
C    -2.23000   -2.55300   -7.46500
H    -1.71900   -2.76200   -8.41100
C    -1.55500   -1.38300   -6.74700
H    -0.49300   -1.62500   -6.60000
H    -1.56800   -0.50400   -7.40700
C    -2.13800   -0.98700   -5.40200
C    -1.51800   0.03300    -4.67000
H    -0.64300   0.52800    -5.08900
C    -1.98500   0.41000    -3.41600
H    -1.47200   1.19300    -2.86300
C    -3.09600   -0.22800   -2.86400
H    -3.46900   0.03600    -1.88000
C    -3.73000   -1.23400   -3.58500
H    -4.58400   -1.73900   -3.14300
C    -3.25500   -1.60600   -4.84200
H    -3.75900   -2.40500   -5.37900
H    -2.19700   -3.46300   -6.85600
H    2.65700    0.16400    -5.21800
C    3.38000    0.12100    -4.39400
H    4.10600    0.93000    -4.53300
C    2.65900    0.23200    -3.04800
H    3.41900    0.23100    -2.25100
C    1.87800    1.54400    -2.94200
H    1.08400    1.58100    -3.69900
H    2.52900    2.41300    -3.09400
H    1.40500    1.64500    -1.95800
C    1.74200    -0.96900   -2.83600
H    0.98300    -1.02000   -3.62500
H    1.21000    -0.90900   -1.88200
H    2.30400    -1.91100   -2.84800
H    3.92200    -0.82800   -4.47500
H    9.82700    1.59400    -3.06500
C    9.54700    2.27100    -2.25100
H    10.08200   3.21500    -2.39500
C    8.04000    2.51000    -2.21100
H    7.71400    2.96700    -3.15500
H    7.82300    3.23900    -1.42300
C    7.18700    1.27200    -1.93400
H    7.47300    0.80100    -0.98700
H    6.13300    1.56500    -1.84800
S    7.33300    0.05600    -3.28700
C    6.31700    -1.27800   -2.60100
H    6.73600    -1.64700   -1.66000
H    5.28700    -0.95000   -2.43500
H    6.30800    -2.09100   -3.33000
H    9.89400    1.82300    -1.31300
H    6.09700    -4.39500   -3.44600
C    5.09000    -4.82000   -3.50800
H    5.20300    -5.90000   -3.64900
C    4.27700    -4.49500   -2.25500
H    4.25900    -3.40500   -2.11000
H    4.78500    -4.90700   -1.37100
C    2.82800    -5.00700   -2.26800
H    2.31700    -4.56000   -3.13500
C    2.75200    -6.53000   -2.40700
H    3.20400    -6.88700   -3.33900
H    3.26700    -7.01700   -1.56900
H    1.70900    -6.86500   -2.39700
C    2.11200    -4.55100   -0.99900
H    2.09300    -3.45800   -0.92900
H    2.61500    -4.93600   -0.10500
H    1.07600    -4.90400   -0.95300
H    4.60700    -4.41500   -4.40500
H    -0.76200   -5.70800   -4.08600
C    -1.20000   -5.63600   -3.08300
H    -0.41000   -5.86500   -2.35700
C    -1.77700   -4.24400   -2.82400
H    -2.57600   -4.06100   -3.55500
C    -2.38300   -4.14400   -1.42300
H    -2.84900   -3.16500   -1.26200
H    -3.15200   -4.91000   -1.26400
H    -1.61200   -4.29000   -0.65500
C    -0.70700   -3.17300   -3.02300
H    -1.11100   -2.17400   -2.84100
H    -0.30500   -3.19300   -4.04400
H    0.12700    -3.33100   -2.33000
H    -1.96800   -6.41400   -2.99000
H    -7.34300   -3.29400   -2.26100
C    -7.24300   -3.81600   -1.30500
H    -6.25400   -4.28400   -1.28900
C    -7.40500   -2.85400   -0.13700
H    -8.40100   -2.39500   -0.13000
H    -7.30700   -3.37600   0.82100
C    -6.38400   -1.73600   -0.13300
O    -5.51400   -1.59300   -0.96900
O    -6.54600   -0.92900   0.90900
H    -5.82400   -0.24800   0.91100
H    -7.99900   -4.60600   -1.25800
H    -4.68400   -4.98500   3.37600
C    -5.02300   -5.07300   2.34000
H    -6.11900   -5.13700   2.32800
C    -4.52100   -3.86800   1.54900
H    -4.76700   -3.93700   0.48400
H    -3.43700   -3.76900   1.64500
H    -4.94800   -2.94300   1.94700
H    -4.63500   -6.01400   1.93200
H    -1.27000   -9.02400   1.40300
C    -0.29900   -8.95700   0.90100
H    -0.23900   -9.76000   0.15500
C    -0.12600   -7.57500   0.25800
H    0.83000    -7.54300   -0.28200
H    -0.90900   -7.42500   -0.49600
C    -0.17600   -6.46600   1.26400
C    -1.29100   -5.77600   1.67200
H    -2.30900   -5.86100   1.31400
N    -0.98600   -4.88500   2.66000
H    -1.67100   -4.28600   3.18000
C    0.35100    -4.98000   2.92800
C    1.13300    -4.25400   3.83700
H    0.67500    -3.47800   4.44600
C    2.48300    -4.55400   3.89000
H    3.12200    -4.01100   4.58300
C    3.05200    -5.54400   3.06100
H    4.11800    -5.74800   3.13100
C    2.27600    -6.25200   2.16000
H    2.72300    -7.01100   1.52000
C    0.90100    -5.97200   2.07500
H    0.47600    -9.12900   1.65600
$end

$rem
JOBTYPE  SP
METHOD  WB97X-V
BASIS  6-31G(D)
SYMMETRY  FALSE
SYM_IGNORE  TRUE
MEM_TOTAL  12000
MEM_STATIC  4000
BASIS_LIN_DEP_THRESH  6
THRESH  14
SCF_CONVERGENCE  8
FD_MAT_VEC_PROD  FALSE
XC_GRID  000075000302
NL_GRID  1
MAX_SCF_CYCLES  200
ENV_METHOD  WB97X-V
GEN_SCFMAN_EMBED  TRUE
SPADE_PARTITION  TRUE
EMBEDDING_EARLY_STOP  TRUE
$end

--------------------------------------------------------------
 ----------------------------------------------------------------
             Standard Nuclear Orientation (Angstroms)
    I     Atom           X                Y                Z
 ----------------------------------------------------------------
    1      C      -3.4810000000     0.9420000000     1.1970000000
    2      O      -4.7200000000     1.0480000000     1.1100000000
    3      C      -2.8060000000    -0.3210000000     1.0600000000
    4      C      -1.4850000000    -0.4650000000     1.3410000000
    5      C      -0.5840000000     0.7250000000     1.5990000000
    6      C      -1.2190000000     2.0270000000     1.1070000000
    7      C      -2.6660000000     2.1590000000     1.5520000000
    8      C      -0.8940000000    -1.8210000000     1.5320000000
    9      C       0.5370000000    -1.9730000000     1.0130000000
   10      C       1.4280000000    -0.8260000000     1.4920000000
   11      C       0.8240000000     0.5080000000     0.9980000000
   12      C       2.8680000000    -0.9430000000     1.0050000000
   13      C       3.7560000000     0.2520000000     1.4090000000
   14      C       3.1760000000     1.5240000000     0.7970000000
   15      C       1.7230000000     1.7350000000     1.2330000000
   16      C       3.7080000000    -2.1610000000     1.4120000000
   17      C       5.1660000000    -1.7150000000     1.1180000000
   18      C       5.0920000000    -0.2080000000     0.7970000000
   19      C       3.9080000000     0.4130000000     2.9320000000
   20      O       6.2530000000     0.4550000000     1.2700000000
   21      H      -3.4230000000    -1.1910000000     0.8560000000
   22      H      -0.4650000000     0.7750000000     2.6960000000
   23      H      -1.1690000000     2.0520000000     0.0090000000
   24      H      -0.6540000000     2.8920000000     1.4690000000
   25      H      -2.7190000000     2.2610000000     2.6460000000
   26      H      -3.1480000000     3.0480000000     1.1350000000
   27      H      -1.5500000000    -2.5830000000     1.1030000000
   28      H      -0.9080000000    -1.9840000000     2.6300000000
   29      H       0.5330000000    -1.9950000000    -0.0860000000
   30      H       0.9320000000    -2.9350000000     1.3510000000
   31      H       1.4160000000    -0.8380000000     2.5920000000
   32      H       0.6970000000     0.4060000000    -0.0930000000
   33      H       2.8270000000    -0.9330000000    -0.0990000000
   34      H       3.2170000000     1.4470000000    -0.2990000000
   35      H       3.7640000000     2.4060000000     1.0800000000
   36      H       1.6970000000     2.0200000000     2.2940000000
   37      H       1.3230000000     2.5890000000     0.6780000000
   38      H       3.4310000000    -3.0670000000     0.8720000000
   39      H       3.5640000000    -2.3830000000     2.4740000000
   40      H       5.6020000000    -2.2760000000     0.2850000000
   41      H       5.8230000000    -1.8600000000     1.9810000000
   42      H       5.0200000000    -0.0690000000    -0.2960000000
   43      H       4.4650000000    -0.4150000000     3.3790000000
   44      H       4.4400000000     1.3410000000     3.1650000000
   45      H       2.9370000000     0.4650000000     3.4330000000
   46      H       6.0800000000     1.4050000000     1.2200000000
   47      H      -8.2170000000     6.7880000000    -4.3390000000
   48      C      -7.6380000000     6.3230000000    -3.5320000000
   49      H      -6.8600000000     7.0270000000    -3.2170000000
   50      C      -8.5310000000     5.9420000000    -2.3490000000
   51      H      -9.0430000000     6.8380000000    -1.9750000000
   52      H      -9.3170000000     5.2590000000    -2.6950000000
   53      C      -7.7520000000     5.2980000000    -1.2270000000
   54      C      -7.3970000000     6.0090000000    -0.0800000000
   55      H      -7.7080000000     7.0470000000     0.0210000000
   56      C      -6.6640000000     5.4190000000     0.9420000000
   57      H      -6.4010000000     5.9730000000     1.8380000000
   58      C      -6.2630000000     4.0860000000     0.8360000000
   59      O      -5.5770000000     3.5450000000     1.8640000000
   60      H      -5.3490000000     2.6140000000     1.6460000000
   61      C      -6.5910000000     3.3630000000    -0.3170000000
   62      H      -6.2800000000     2.3260000000    -0.4100000000
   63      C      -7.3280000000     3.9710000000    -1.3250000000
   64      H      -7.5860000000     3.3910000000    -2.2100000000
   65      H      -7.1350000000     5.4390000000    -3.9390000000
   66      H      -2.0580000000     8.0820000000    -2.4630000000
   67      C      -1.5510000000     7.2690000000    -1.9310000000
   68      H      -1.3680000000     7.6030000000    -0.9020000000
   69      C      -2.3990000000     5.9910000000    -1.9360000000
   70      H      -2.5660000000     5.7020000000    -2.9830000000
   71      C      -1.6680000000     4.8350000000    -1.2460000000
   72      H      -0.6940000000     4.6340000000    -1.7100000000
   73      H      -1.4910000000     5.0650000000    -0.1870000000
   74      H      -2.2610000000     3.9150000000    -1.2900000000
   75      C      -3.7660000000     6.2270000000    -1.2870000000
   76      H      -4.3970000000     5.3320000000    -1.3290000000
   77      H      -4.3090000000     7.0400000000    -1.7830000000
   78      H      -3.6530000000     6.4980000000    -0.2300000000
   79      H      -0.5780000000     7.1030000000    -2.4080000000
   80      H      -3.7250000000    -3.9970000000     7.8560000000
   81      C      -3.2700000000    -4.0620000000     6.8590000000
   82      H      -4.0120000000    -4.4440000000     6.1540000000
   83      C      -2.7550000000    -2.7020000000     6.3850000000
   84      H      -1.9960000000    -2.3020000000     7.0650000000
   85      H      -3.5850000000    -1.9810000000     6.3740000000
   86      C      -2.1600000000    -2.7450000000     4.9630000000
   87      O      -2.7590000000    -3.4990000000     4.1410000000
   88      O      -1.1510000000    -2.0400000000     4.7310000000
   89      H      -2.4540000000    -4.7920000000     6.9060000000
   90      H       3.1790000000     4.8480000000     6.6950000000
   91      C       3.4830000000     4.1440000000     5.9160000000
   92      H       2.7280000000     3.3590000000     5.8240000000
   93      H       4.4220000000     3.6660000000     6.2080000000
   94      C       3.6780000000     4.7880000000     4.5420000000
   95      O       3.9960000000     4.1190000000     3.5670000000
   96      N       3.4950000000     6.1390000000     4.4810000000
   97      H       3.1820000000     6.6130000000     5.3140000000
   98      C       3.6120000000     6.9330000000     3.2600000000
   99      H       4.0910000000     6.2900000000     2.5190000000
  100      C       2.2660000000     7.4570000000     2.7550000000
  101      H       1.8300000000     8.1110000000     3.5240000000
  102      H       2.4600000000     8.0980000000     1.8830000000
  103      C       1.2410000000     6.3830000000     2.3680000000
  104      H       1.0740000000     5.7420000000     3.2450000000
  105      C      -0.0920000000     7.0410000000     2.0020000000
  106      H      -0.8560000000     6.2890000000     1.7820000000
  107      H      -0.4670000000     7.6730000000     2.8160000000
  108      H       0.0200000000     7.6720000000     1.1110000000
  109      C       1.7410000000     5.4960000000     1.2240000000
  110      H       2.0450000000     6.1050000000     0.3620000000
  111      H       2.5890000000     4.8780000000     1.5350000000
  112      H       0.9460000000     4.8230000000     0.8850000000
  113      H       4.2880000000     7.7740000000     3.4550000000
  114      H       6.9610000000     6.1830000000    -1.4510000000
  115      C       6.1270000000     5.6270000000    -1.8950000000
  116      H       6.5380000000     4.7570000000    -2.4140000000
  117      C       5.1100000000     5.1960000000    -0.8290000000
  118      H       4.6540000000     6.1060000000    -0.4110000000
  119      C       3.9960000000     4.3530000000    -1.4550000000
  120      H       3.4880000000     4.8940000000    -2.2620000000
  121      H       4.4120000000     3.4310000000    -1.8820000000
  122      H       3.2430000000     4.0620000000    -0.7150000000
  123      C       5.7750000000     4.4420000000     0.3270000000
  124      H       6.1220000000     3.4550000000    -0.0090000000
  125      H       6.6460000000     4.9860000000     0.7110000000
  126      H       5.0830000000     4.2880000000     1.1630000000
  127      H       5.6550000000     6.2680000000    -2.6480000000
  128      H      -3.2790000000    -2.3340000000    -7.6900000000
  129      C      -2.2300000000    -2.5530000000    -7.4650000000
  130      H      -1.7190000000    -2.7620000000    -8.4110000000
  131      C      -1.5550000000    -1.3830000000    -6.7470000000
  132      H      -0.4930000000    -1.6250000000    -6.6000000000
  133      H      -1.5680000000    -0.5040000000    -7.4070000000
  134      C      -2.1380000000    -0.9870000000    -5.4020000000
  135      C      -1.5180000000     0.0330000000    -4.6700000000
  136      H      -0.6430000000     0.5280000000    -5.0890000000
  137      C      -1.9850000000     0.4100000000    -3.4160000000
  138      H      -1.4720000000     1.1930000000    -2.8630000000
  139      C      -3.0960000000    -0.2280000000    -2.8640000000
  140      H      -3.4690000000     0.0360000000    -1.8800000000
  141      C      -3.7300000000    -1.2340000000    -3.5850000000
  142      H      -4.5840000000    -1.7390000000    -3.1430000000
  143      C      -3.2550000000    -1.6060000000    -4.8420000000
  144      H      -3.7590000000    -2.4050000000    -5.3790000000
  145      H      -2.1970000000    -3.4630000000    -6.8560000000
  146      H       2.6570000000     0.1640000000    -5.2180000000
  147      C       3.3800000000     0.1210000000    -4.3940000000
  148      H       4.1060000000     0.9300000000    -4.5330000000
  149      C       2.6590000000     0.2320000000    -3.0480000000
  150      H       3.4190000000     0.2310000000    -2.2510000000
  151      C       1.8780000000     1.5440000000    -2.9420000000
  152      H       1.0840000000     1.5810000000    -3.6990000000
  153      H       2.5290000000     2.4130000000    -3.0940000000
  154      H       1.4050000000     1.6450000000    -1.9580000000
  155      C       1.7420000000    -0.9690000000    -2.8360000000
  156      H       0.9830000000    -1.0200000000    -3.6250000000
  157      H       1.2100000000    -0.9090000000    -1.8820000000
  158      H       2.3040000000    -1.9110000000    -2.8480000000
  159      H       3.9220000000    -0.8280000000    -4.4750000000
  160      H       9.8270000000     1.5940000000    -3.0650000000
  161      C       9.5470000000     2.2710000000    -2.2510000000
  162      H      10.0820000000     3.2150000000    -2.3950000000
  163      C       8.0400000000     2.5100000000    -2.2110000000
  164      H       7.7140000000     2.9670000000    -3.1550000000
  165      H       7.8230000000     3.2390000000    -1.4230000000
  166      C       7.1870000000     1.2720000000    -1.9340000000
  167      H       7.4730000000     0.8010000000    -0.9870000000
  168      H       6.1330000000     1.5650000000    -1.8480000000
  169      S       7.3330000000     0.0560000000    -3.2870000000
  170      C       6.3170000000    -1.2780000000    -2.6010000000
  171      H       6.7360000000    -1.6470000000    -1.6600000000
  172      H       5.2870000000    -0.9500000000    -2.4350000000
  173      H       6.3080000000    -2.0910000000    -3.3300000000
  174      H       9.8940000000     1.8230000000    -1.3130000000
  175      H       6.0970000000    -4.3950000000    -3.4460000000
  176      C       5.0900000000    -4.8200000000    -3.5080000000
  177      H       5.2030000000    -5.9000000000    -3.6490000000
  178      C       4.2770000000    -4.4950000000    -2.2550000000
  179      H       4.2590000000    -3.4050000000    -2.1100000000
  180      H       4.7850000000    -4.9070000000    -1.3710000000
  181      C       2.8280000000    -5.0070000000    -2.2680000000
  182      H       2.3170000000    -4.5600000000    -3.1350000000
  183      C       2.7520000000    -6.5300000000    -2.4070000000
  184      H       3.2040000000    -6.8870000000    -3.3390000000
  185      H       3.2670000000    -7.0170000000    -1.5690000000
  186      H       1.7090000000    -6.8650000000    -2.3970000000
  187      C       2.1120000000    -4.5510000000    -0.9990000000
  188      H       2.0930000000    -3.4580000000    -0.9290000000
  189      H       2.6150000000    -4.9360000000    -0.1050000000
  190      H       1.0760000000    -4.9040000000    -0.9530000000
  191      H       4.6070000000    -4.4150000000    -4.4050000000
  192      H      -0.7620000000    -5.7080000000    -4.0860000000
  193      C      -1.2000000000    -5.6360000000    -3.0830000000
  194      H      -0.4100000000    -5.8650000000    -2.3570000000
  195      C      -1.7770000000    -4.2440000000    -2.8240000000
  196      H      -2.5760000000    -4.0610000000    -3.5550000000
  197      C      -2.3830000000    -4.1440000000    -1.4230000000
  198      H      -2.8490000000    -3.1650000000    -1.2620000000
  199      H      -3.1520000000    -4.9100000000    -1.2640000000
  200      H      -1.6120000000    -4.2900000000    -0.6550000000
  201      C      -0.7070000000    -3.1730000000    -3.0230000000
  202      H      -1.1110000000    -2.1740000000    -2.8410000000
  203      H      -0.3050000000    -3.1930000000    -4.0440000000
  204      H       0.1270000000    -3.3310000000    -2.3300000000
  205      H      -1.9680000000    -6.4140000000    -2.9900000000
  206      H      -7.3430000000    -3.2940000000    -2.2610000000
  207      C      -7.2430000000    -3.8160000000    -1.3050000000
  208      H      -6.2540000000    -4.2840000000    -1.2890000000
  209      C      -7.4050000000    -2.8540000000    -0.1370000000
  210      H      -8.4010000000    -2.3950000000    -0.1300000000
  211      H      -7.3070000000    -3.3760000000     0.8210000000
  212      C      -6.3840000000    -1.7360000000    -0.1330000000
  213      O      -5.5140000000    -1.5930000000    -0.9690000000
  214      O      -6.5460000000    -0.9290000000     0.9090000000
  215      H      -5.8240000000    -0.2480000000     0.9110000000
  216      H      -7.9990000000    -4.6060000000    -1.2580000000
  217      H      -4.6840000000    -4.9850000000     3.3760000000
  218      C      -5.0230000000    -5.0730000000     2.3400000000
  219      H      -6.1190000000    -5.1370000000     2.3280000000
  220      C      -4.5210000000    -3.8680000000     1.5490000000
  221      H      -4.7670000000    -3.9370000000     0.4840000000
  222      H      -3.4370000000    -3.7690000000     1.6450000000
  223      H      -4.9480000000    -2.9430000000     1.9470000000
  224      H      -4.6350000000    -6.0140000000     1.9320000000
  225      H      -1.2700000000    -9.0240000000     1.4030000000
  226      C      -0.2990000000    -8.9570000000     0.9010000000
  227      H      -0.2390000000    -9.7600000000     0.1550000000
  228      C      -0.1260000000    -7.5750000000     0.2580000000
  229      H       0.8300000000    -7.5430000000    -0.2820000000
  230      H      -0.9090000000    -7.4250000000    -0.4960000000
  231      C      -0.1760000000    -6.4660000000     1.2640000000
  232      C      -1.2910000000    -5.7760000000     1.6720000000
  233      H      -2.3090000000    -5.8610000000     1.3140000000
  234      N      -0.9860000000    -4.8850000000     2.6600000000
  235      H      -1.6710000000    -4.2860000000     3.1800000000
  236      C       0.3510000000    -4.9800000000     2.9280000000
  237      C       1.1330000000    -4.2540000000     3.8370000000
  238      H       0.6750000000    -3.4780000000     4.4460000000
  239      C       2.4830000000    -4.5540000000     3.8900000000
  240      H       3.1220000000    -4.0110000000     4.5830000000
  241      C       3.0520000000    -5.5440000000     3.0610000000
  242      H       4.1180000000    -5.7480000000     3.1310000000
  243      C       2.2760000000    -6.2520000000     2.1600000000
  244      H       2.7230000000    -7.0110000000     1.5200000000
  245      C       0.9010000000    -5.9720000000     2.0750000000
  246      H       0.4760000000    -9.1290000000     1.6560000000
 ----------------------------------------------------------------
 Nuclear Repulsion Energy =       21393.89848869 hartrees
 There are      375 alpha and      375 beta electrons
 Requested basis set is 6-31G(d)
 There are 683 shells and 1731 basis functions

 Total QAlloc Memory Limit  12000 MB
 Mega-Array Size      3911 MB
 MEM_STATIC part      4000 MB

 A cutoff of  1.0D-14 yielded  74824 shell pairs
 There are    466707 function pairs
 Smallest overlap matrix eigenvalue = 3.48E-04

 Scale SEOQF with 1.000000e-02/1.000000e-02/1.000000e-02

 Standard Electronic Orientation quadrupole field applied
 Nucleus-field energy     =     0.0000000723 hartrees
 Guess from superposition of atomic densities
 Warning:  Energy on first SCF cycle will be non-variational
 SAD guess density has 749.000002 electrons

 -----------------------------------------------------------------------
  General SCF calculation program by
  Eric Jon Sundstrom, Paul Horn, Yuezhi Mao, Dmitri Zuev, Alec White,
  David Stuck, Shaama M.S., Shane Yost, Joonho Lee, David Small,
  Daniel Levine, Susi Lehtola, Hugh Burton, Evgeny Epifanovsky,
  Bang C. Huynh
 -----------------------------------------------------------------------
=================================================
        Doing projection-based embedding         
      F. Manby et al. JCTC, 8, 2564 (2012)       
=================================================

****************************************************
   Low-level SCF calculation for the whole system   
****************************************************
----------------------------------------------
 Summary of the low-level theory: 
 Exchange:     0.1670 Hartree-Fock + 1.0000 wB97X-V + LR-HF
 Correlation:  1.0000 wB97X-V
 Using Euler-Maclaurin-Lebedev (75,302) quadrature formula
 Nonlocal Correlation:  VV10 with C = 0.0100 and b = 6.00 and scale = 1.00000
 Grid used for NLC:  SG-1 standard quadrature
----------------------------------------------
 using 8 threads for integral computing
 -------------------------------------------------------
 OpenMP Integral computing Module                
 Release: version 1.0, May 2013, Q-Chem Inc. Pittsburgh 
 -------------------------------------------------------
 A restricted SCF calculation will be
 performed using DIIS
 SCF converges when DIIS error is below 1.0e-08
 ---------------------------------------
  Cycle       Energy         DIIS error
 ---------------------------------------
    1   -4426.9042041925      1.85e-02  
    2   -4399.5861650487      1.62e-03  
    3   -4399.8526569305      1.57e-03  
    4   -4400.5063047171      2.72e-04  
    5   -4400.5258088141      1.20e-04  
    6   -4400.5300483584      3.26e-05  
    7   -4400.5303741735      7.13e-06  
    8   -4400.5304008497      2.30e-06  
    9   -4400.5304048114      1.13e-06  
   10   -4400.5304057790      4.44e-07  
   11   -4400.5304059716      2.17e-07  
   12   -4400.5304060171      9.09e-08  
   13   -4400.5304060243      3.78e-08  
   14   -4400.5304060261      1.42e-08  
   15   -4400.5304060264      6.73e-09  Convergence criterion met
 ---------------------------------------
 SCF time:   CPU 44324.46s  wall 5713.00s 
 SCF   energy in the final basis set =    -4400.5304060264
 Total energy in the final basis set =    -4400.5304060264

****************************************************
             Start embedding calculation            
****************************************************
----------------------------------------------
 Summary of the high-level theory: 
 Exchange:     0.1670 Hartree-Fock + 1.0000 wB97X-V + LR-HF
 Correlation:  1.0000 wB97X-V
 Using Euler-Maclaurin-Lebedev (75,302) quadrature formula
 Nonlocal Correlation:  VV10 with C = 0.0100 and b = 6.00 and scale = 1.00000
 Grid used for NLC:  SG-1 standard quadrature
----------------------------------------------
Doing R-in-R Embedding Calculation
Number of fragments: 2
Embedded fragment(s): 1 
NOcc for each fragment
           75
          300
NBasis for each fragment
          352
         1379
Variational space of the embedded problem: 
NOcc (active)  = 75
NOcc (fixed)   = 300
NVir (total)   = 1356
Read converged orbitals from disk
=========================================================
       Doing SPADE partition for the orbital space       
     D. Claudino and N. Mayhall JCTC 15, 1053 (2019)     
=========================================================
SPADE singular values:
 1.0000 1.0000 1.0000 1.0000 1.0000 1.0000 1.0000 1.0000 1.0000 1.0000
 1.0000 1.0000 1.0000 1.0000 1.0000 1.0000 1.0000 1.0000 1.0000 1.0000
 1.0000 1.0000 1.0000 1.0000 1.0000 1.0000 1.0000 1.0000 1.0000 1.0000
 1.0000 1.0000 1.0000 1.0000 1.0000 1.0000 1.0000 1.0000 1.0000 1.0000
 1.0000 1.0000 1.0000 1.0000 0.9999 0.9999 0.9999 0.9999 0.9999 0.9999
 0.9998 0.9998 0.9996 0.9996 0.9995 0.9994 0.9993 0.9993 0.9992 0.9991
 0.9990 0.9989 0.9986 0.9985 0.9984 0.9983 0.9980 0.9980 0.9978 0.9974
 0.9969 0.9961 0.9947 0.9775 0.9740 0.1703 0.0905 0.0819 0.0815 0.0811
 0.0772 0.0749 0.0743 0.0721 0.0663 0.0617 0.0604 0.0588 0.0558 0.0548
 0.0507 0.0459 0.0431 0.0405 0.0381 0.0358 0.0328 0.0278 0.0267 0.0260
 0.0244 0.0238 0.0231 0.0210 0.0206 0.0196 0.0175 0.0151 0.0141 0.0134
 0.0123 0.0120 0.0107 0.0104 0.0099 0.0094 0.0081 0.0077 0.0075 0.0065
 0.0063 0.0060 0.0058 0.0055 0.0051 0.0046 0.0043 0.0042 0.0039 0.0037
 0.0036 0.0032 0.0031 0.0030 0.0029 0.0028 0.0028 0.0025 0.0024 0.0022
 0.0022 0.0021 0.0020 0.0020 0.0019 0.0019 0.0018 0.0018 0.0016 0.0014
 0.0014 0.0014 0.0013 0.0013 0.0012 0.0012 0.0011 0.0011 0.0011 0.0010
 0.0010 0.0010 0.0009 0.0009 0.0009 0.0008 0.0008 0.0008 0.0007 0.0007
 0.0007 0.0007 0.0007 0.0006 0.0006 0.0006 0.0006 0.0006 0.0006 0.0005
 0.0005 0.0005 0.0005 0.0005 0.0005 0.0005 0.0005 0.0004 0.0004 0.0004
 0.0004 0.0004 0.0004 0.0004 0.0004 0.0003 0.0003 0.0003 0.0003 0.0003
 0.0003 0.0003 0.0003 0.0003 0.0003 0.0002 0.0002 0.0002 0.0002 0.0002
 0.0002 0.0002 0.0002 0.0002 0.0002 0.0002 0.0002 0.0002 0.0002 0.0002
 0.0002 0.0002 0.0001 0.0001 0.0001 0.0001 0.0001 0.0001 0.0001 0.0001
 0.0001 0.0001 0.0001 0.0001 0.0001 0.0001 0.0001 0.0001 0.0001 0.0001
 0.0001 0.0001 0.0001 0.0001 0.0001 0.0001 0.0001 0.0001 0.0001 0.0001
 0.0001 0.0001 0.0001 0.0001 0.0001 0.0001 0.0001 0.0000 0.0000 0.0000
 0.0000 0.0000 0.0000 0.0000 0.0000 0.0000 0.0000 0.0000 0.0000 0.0000
 0.0000 0.0000 0.0000 0.0000 0.0000 0.0000 0.0000 0.0000 0.0000 0.0000
 0.0000 0.0000 0.0000 0.0000 0.0000 0.0000 0.0000 0.0000 0.0000 0.0000
 0.0000 0.0000 0.0000 0.0000 0.0000 0.0000 0.0000 0.0000 0.0000 0.0000
 0.0000 0.0000 0.0000 0.0000 0.0000 0.0000 0.0000 0.0000 0.0000 0.0000
 0.0000 0.0000 0.0000 0.0000 0.0000 0.0000 0.0000 0.0000 0.0000 0.0000
 0.0000 0.0000 0.0000 0.0000 0.0000 0.0000 0.0000 0.0000 0.0000 0.0000
 0.0000 0.0000 0.0000 0.0000 0.0000 0.0000 0.0000 0.0000 0.0000 0.0000
 0.0000 0.0000 0.0000 0.0000 0.0000 0.0000 0.0000 0.0000 0.0000 0.0000
 0.0000 0.0000
Early stop requested; no embedded SCF will be performed

 300 environment occs will be part of frozen-core in future post-HF calculations
 
 --------------------------------------------------------------
 
                    Orbital Energies (a.u.)
 --------------------------------------------------------------
 
 Alpha MOs
 -- Occupied --
-88.8049 -19.1787 -19.1681 -19.1528 -19.1375 -19.0463 -19.0427 -14.4123
-14.3366 -10.3457 -10.3309 -10.2759 -10.2685 -10.2482 -10.2450 -10.2432
-10.2399 -10.2391 -10.2383 -10.2351 -10.2318 -10.2253 -10.2249 -10.2235
-10.2229 -10.2226 -10.2206 -10.2185 -10.2183 -10.2177 -10.2175 -10.2175
-10.2161 -10.2161 -10.2159 -10.2147 -10.2146 -10.2142 -10.2135 -10.2135
-10.2120 -10.2099 -10.2096 -10.2090 -10.2082 -10.2078 -10.2069 -10.2069
-10.2068 -10.2050 -10.2050 -10.2047 -10.2040 -10.2026 -10.2017 -10.1996
-10.1973 -10.1966 -10.1957 -10.1947 -10.1887 -10.1884 -10.1848 -10.1805
-10.1801 -10.1795 -10.1768 -10.1755 -10.1739 -10.1728 -10.1714 -10.1678
-10.1667 -10.1629 -10.1583  -7.9715  -5.9295  -5.9253  -5.9179  -1.1451
 -1.1191  -1.1016  -1.0512  -1.0243  -1.0105  -0.9966  -0.9302  -0.9204
 -0.9194  -0.9013  -0.8918  -0.8857  -0.8767  -0.8746  -0.8736  -0.8695
 -0.8537  -0.8513  -0.8508  -0.8434  -0.8419  -0.8377  -0.8372  -0.8066
 -0.8038  -0.8008  -0.7962  -0.7857  -0.7847  -0.7829  -0.7787  -0.7776
 -0.7639  -0.7634  -0.7607  -0.7577  -0.7563  -0.7539  -0.7483  -0.7468
 -0.7442  -0.7367  -0.7353  -0.7271  -0.7204  -0.7199  -0.7189  -0.6980
 -0.6914  -0.6904  -0.6812  -0.6690  -0.6642  -0.6607  -0.6488  -0.6440
 -0.6409  -0.6389  -0.6357  -0.6343  -0.6300  -0.6291  -0.6232  -0.6211
 -0.6173  -0.6151  -0.6050  -0.6026  -0.5943  -0.5782  -0.5689  -0.5686
 -0.5571  -0.5480  -0.5407  -0.5365  -0.5316  -0.5292  -0.5289  -0.5254
 -0.5228  -0.5176  -0.5172  -0.5165  -0.5132  -0.5131  -0.5094  -0.5082
 -0.5059  -0.5047  -0.4962  -0.4952  -0.4935  -0.4931  -0.4915  -0.4910
 -0.4898  -0.4868  -0.4852  -0.4838  -0.4833  -0.4827  -0.4816  -0.4802
 -0.4793  -0.4765  -0.4717  -0.4714  -0.4697  -0.4691  -0.4678  -0.4654
 -0.4645  -0.4584  -0.4581  -0.4559  -0.4547  -0.4542  -0.4527  -0.4516
 -0.4498  -0.4496  -0.4485  -0.4468  -0.4458  -0.4438  -0.4431  -0.4430
 -0.4422  -0.4398  -0.4363  -0.4337  -0.4318  -0.4314  -0.4312  -0.4292
 -0.4276  -0.4256  -0.4247  -0.4242  -0.4226  -0.4219  -0.4200  -0.4193
 -0.4161  -0.4158  -0.4154  -0.4152  -0.4142  -0.4103  -0.4064  -0.4058
 -0.4041  -0.4036  -0.4028  -0.4007  -0.3978  -0.3951  -0.3924  -0.3899
 -0.3885  -0.3882  -0.3862  -0.3858  -0.3838  -0.3818  -0.3814  -0.3802
 -0.3796  -0.3793  -0.3770  -0.3768  -0.3746  -0.3744  -0.3719  -0.3719
 -0.3694  -0.3687  -0.3684  -0.3674  -0.3650  -0.3647  -0.3634  -0.3628
 -0.3621  -0.3611  -0.3600  -0.3597  -0.3573  -0.3562  -0.3548  -0.3516
 -0.3490  -0.3472  -0.3460  -0.3452  -0.3428  -0.3410  -0.3384  -0.3373
 -0.3360  -0.3351  -0.3291  -0.3276  -0.3257  -0.3153  -0.3104  -0.3072
 -0.2932  -0.2731  -0.2665  -0.2660  -0.2564  -0.2557  -0.2264  -0.2206
 -0.2118  -0.2046  -0.2017  -0.1782 -10.3230 -10.1930 -12.9565 -10.2529
-10.0640  -9.8783  -9.9545  -9.4497  -9.6479  -9.5756 -10.0473 -14.8361
 -9.7492  -9.9338  -9.6352  -9.4488  -9.7266  -9.9236  -8.9165  -2.3349
 -3.4454  -1.9090 -13.4945  -1.4705  -0.9800  -1.8194  -1.3933  -1.5119
 -0.9051  -0.7632  -1.0476  -1.2748  -1.1155  -0.8054  -0.7314  -1.0644
 -0.8481  -1.1196  -0.7074  -0.7829  -0.6282  -0.5918  -0.5939  -0.5942
 -0.6051  -0.5204  -0.5200  -0.5947  -0.4695  -0.4648  -1.6109  -0.4726
 -0.4783  -0.4530  -0.4810  -0.4512  -0.4460  -0.4720  -0.4639  -0.4826
 -0.4323  -0.4505  -0.4292  -0.3982  -0.4102  -0.3825  -0.4191  -0.4510
 -0.4017  -0.4140  -0.4291  -0.3549  -0.3796  -0.6038  -0.3805
 -- Virtual --
  0.0978   0.1530   0.1534   0.1591   0.1654   0.1707   0.1708   0.1714
  0.1743   0.1849   0.1949   0.1974   0.2034   0.2092   0.2112   0.2123
  0.2133   0.2183   0.2245   0.2288   0.2301   0.2311   0.2334   0.2380
  0.2391   0.2414   0.2427   0.2437   0.2455   0.2497   0.2512   0.2525
  0.2529   0.2557   0.2590   0.2606   0.2635   0.2653   0.2671   0.2679
  0.2692   0.2711   0.2726   0.2741   0.2745   0.2760   0.2769   0.2786
  0.2791   0.2797   0.2813   0.2823   0.2834   0.2857   0.2860   0.2866
  0.2890   0.2893   0.2911   0.2921   0.2944   0.2953   0.2973   0.2991
  0.3003   0.3013   0.3015   0.3031   0.3047   0.3066   0.3082   0.3083
  0.3093   0.3105   0.3121   0.3125   0.3136   0.3141   0.3157   0.3164
  0.3167   0.3180   0.3196   0.3201   0.3206   0.3217   0.3235   0.3256
  0.3260   0.3267   0.3277   0.3295   0.3300   0.3307   0.3317   0.3329
  0.3347   0.3353   0.3363   0.3369   0.3380   0.3394   0.3398   0.3405
  0.3418   0.3428   0.3434   0.3444   0.3455   0.3471   0.3481   0.3489
  0.3496   0.3502   0.3525   0.3530   0.3543   0.3552   0.3560   0.3562
  0.3585   0.3599   0.3616   0.3625   0.3642   0.3654   0.3669   0.3674
  0.3675   0.3686   0.3702   0.3713   0.3732   0.3734   0.3743   0.3750
  0.3762   0.3790   0.3792   0.3799   0.3822   0.3839   0.3843   0.3852
  0.3865   0.3883   0.3889   0.3903   0.3912   0.3918   0.3927   0.3938
  0.3960   0.3969   0.3970   0.3980   0.3993   0.4001   0.4005   0.4008
  0.4015   0.4034   0.4048   0.4052   0.4066   0.4082   0.4100   0.4113
  0.4132   0.4140   0.4153   0.4171   0.4191   0.4199   0.4208   0.4241
  0.4250   0.4258   0.4283   0.4299   0.4313   0.4317   0.4347   0.4357
  0.4373   0.4380   0.4395   0.4413   0.4419   0.4427   0.4447   0.4462
  0.4472   0.4496   0.4509   0.4523   0.4541   0.4552   0.4572   0.4587
  0.4592   0.4635   0.4645   0.4671   0.4676   0.4702   0.4722   0.4731
  0.4738   0.4749   0.4759   0.4798   0.4815   0.4843   0.4869   0.4877
  0.4883   0.4898   0.4932   0.4958   0.4987   0.5039   0.5046   0.5082
  0.5106   0.5143   0.5154   0.5171   0.5207   0.5239   0.5278   0.5295
  0.5337   0.5365   0.5406   0.5439   0.5488   0.5519   0.5549   0.5627
  0.5653   0.5688   0.5702   0.5729   0.5790   0.5865   0.5974   0.6060
  0.6087   0.6154   0.6252   0.6284   0.6327   0.6394   0.6411   0.6504
  0.6520   0.6527   0.6572   0.6598   0.6607   0.6619   0.6643   0.6682
  0.6687   0.6698   0.6711   0.6723   0.6729   0.6751   0.6762   0.6787
  0.6817   0.6832   0.6852   0.6866   0.6869   0.6900   0.6929   0.6957
  0.6967   0.6982   0.7005   0.7025   0.7045   0.7051   0.7057   0.7086
  0.7097   0.7100   0.7123   0.7138   0.7149   0.7160   0.7175   0.7218
  0.7226   0.7238   0.7264   0.7277   0.7280   0.7296   0.7329   0.7335
  0.7351   0.7369   0.7402   0.7430   0.7437   0.7446   0.7452   0.7477
  0.7513   0.7515   0.7522   0.7533   0.7555   0.7575   0.7595   0.7599
  0.7615   0.7633   0.7636   0.7676   0.7682   0.7693   0.7697   0.7730
  0.7743   0.7765   0.7774   0.7781   0.7793   0.7824   0.7833   0.7860
  0.7875   0.7887   0.7898   0.7916   0.7933   0.7938   0.7972   0.7976
  0.7980   0.8004   0.8024   0.8041   0.8055   0.8066   0.8076   0.8099
  0.8115   0.8128   0.8143   0.8177   0.8181   0.8197   0.8218   0.8237
  0.8254   0.8260   0.8307   0.8314   0.8348   0.8367   0.8386   0.8403
  0.8408   0.8439   0.8446   0.8476   0.8478   0.8487   0.8503   0.8512
  0.8540   0.8548   0.8553   0.8570   0.8578   0.8591   0.8603   0.8610
  0.8641   0.8651   0.8662   0.8691   0.8703   0.8714   0.8726   0.8742
  0.8752   0.8760   0.8779   0.8797   0.8801   0.8805   0.8823   0.8847
  0.8883   0.8890   0.8903   0.8932   0.8948   0.8953   0.8967   0.8989
  0.9012   0.9029   0.9050   0.9059   0.9094   0.9113   0.9126   0.9142
  0.9148   0.9168   0.9179   0.9214   0.9219   0.9232   0.9253   0.9269
  0.9293   0.9317   0.9326   0.9343   0.9373   0.9398   0.9413   0.9444
  0.9454   0.9481   0.9507   0.9512   0.9539   0.9558   0.9586   0.9595
  0.9599   0.9631   0.9656   0.9682   0.9689   0.9700   0.9734   0.9750
  0.9788   0.9797   0.9814   0.9838   0.9863   0.9882   0.9904   0.9919
  0.9929   0.9953   0.9960   0.9978   0.9992   1.0024   1.0044   1.0083
  1.0103   1.0107   1.0120   1.0146   1.0151   1.0176   1.0192   1.0214
  1.0214   1.0248   1.0270   1.0279   1.0288   1.0307   1.0324   1.0327
  1.0358   1.0366   1.0375   1.0396   1.0409   1.0417   1.0423   1.0440
  1.0450   1.0456   1.0472   1.0501   1.0502   1.0512   1.0520   1.0542
  1.0550   1.0552   1.0566   1.0577   1.0584   1.0591   1.0608   1.0615
  1.0632   1.0648   1.0665   1.0671   1.0683   1.0695   1.0701   1.0709
  1.0723   1.0737   1.0745   1.0755   1.0770   1.0780   1.0797   1.0811
  1.0826   1.0835   1.0838   1.0849   1.0864   1.0878   1.0886   1.0906
  1.0911   1.0933   1.0954   1.0961   1.0973   1.0978   1.0994   1.1009
  1.1025   1.1045   1.1057   1.1061   1.1068   1.1082   1.1090   1.1103
  1.1123   1.1131   1.1139   1.1148   1.1160   1.1167   1.1194   1.1210
  1.1216   1.1225   1.1232   1.1252   1.1259   1.1266   1.1271   1.1288
  1.1302   1.1317   1.1321   1.1341   1.1355   1.1369   1.1376   1.1392
  1.1411   1.1424   1.1450   1.1458   1.1476   1.1484   1.1494   1.1502
  1.1520   1.1537   1.1561   1.1583   1.1589   1.1598   1.1602   1.1627
  1.1656   1.1677   1.1680   1.1699   1.1724   1.1738   1.1753   1.1771
  1.1776   1.1785   1.1812   1.1832   1.1855   1.1866   1.1885   1.1891
  1.1897   1.1938   1.1944   1.1986   1.2006   1.2018   1.2027   1.2057
  1.2064   1.2094   1.2110   1.2149   1.2152   1.2156   1.2188   1.2206
  1.2213   1.2234   1.2275   1.2294   1.2304   1.2314   1.2371   1.2374
  1.2410   1.2439   1.2444   1.2466   1.2476   1.2499   1.2564   1.2588
  1.2611   1.2635   1.2640   1.2679   1.2684   1.2708   1.2752   1.2776
  1.2797   1.2832   1.2866   1.2890   1.2920   1.2922   1.2951   1.2968
  1.2976   1.3011   1.3039   1.3050   1.3115   1.3133   1.3154   1.3165
  1.3204   1.3238   1.3243   1.3292   1.3305   1.3340   1.3355   1.3422
  1.3425   1.3458   1.3489   1.3507   1.3522   1.3542   1.3566   1.3612
  1.3614   1.3628   1.3687   1.3707   1.3721   1.3737   1.3765   1.3800
  1.3858   1.3908   1.3918   1.3947   1.4001   1.4039   1.4071   1.4103
  1.4111   1.4175   1.4216   1.4254   1.4292   1.4303   1.4368   1.4387
  1.4403   1.4435   1.4470   1.4491   1.4498   1.4552   1.4596   1.4623
  1.4628   1.4688   1.4695   1.4749   1.4772   1.4807   1.4885   1.4917
  1.4958   1.4990   1.4995   1.5023   1.5055   1.5106   1.5160   1.5183
  1.5218   1.5252   1.5313   1.5339   1.5375   1.5449   1.5500   1.5525
  1.5543   1.5562   1.5584   1.5614   1.5637   1.5664   1.5698   1.5763
  1.5774   1.5854   1.5905   1.5930   1.5938   1.5972   1.5989   1.5994
  1.6005   1.6038   1.6056   1.6078   1.6100   1.6122   1.6143   1.6171
  1.6180   1.6196   1.6216   1.6229   1.6252   1.6288   1.6297   1.6319
  1.6346   1.6365   1.6388   1.6402   1.6414   1.6421   1.6427   1.6449
  1.6456   1.6483   1.6493   1.6509   1.6531   1.6554   1.6579   1.6605
  1.6631   1.6719   1.6774   1.6794   1.6798   1.6827   1.6870   1.6910
  1.6952   1.6964   1.6975   1.6998   1.7032   1.7090   1.7123   1.7138
  1.7146   1.7186   1.7225   1.7260   1.7306   1.7325   1.7379   1.7434
  1.7467   1.7517   1.7568   1.7690   1.7724   1.7760   1.7821   1.7866
  1.7898   1.7931   1.8023   1.8028   1.8041   1.8079   1.8157   1.8189
  1.8249   1.8285   1.8318   1.8333   1.8383   1.8420   1.8504   1.8548
  1.8586   1.8617   1.8660   1.8721   1.8727   1.8744   1.8785   1.8796
  1.8850   1.8877   1.8904   1.8916   1.8945   1.8978   1.8985   1.9060
  1.9065   1.9075   1.9107   1.9144   1.9174   1.9191   1.9226   1.9265
  1.9284   1.9299   1.9313   1.9327   1.9429   1.9447   1.9462   1.9490
  1.9569   1.9578   1.9608   1.9623   1.9639   1.9656   1.9665   1.9685
  1.9698   1.9706   1.9747   1.9830   1.9841   1.9876   1.9895   1.9923
  1.9970   1.9992   2.0011   2.0028   2.0045   2.0065   2.0121   2.0142
  2.0154   2.0185   2.0205   2.0246   2.0272   2.0296   2.0317   2.0331
  2.0362   2.0378   2.0388   2.0441   2.0459   2.0570   2.0572   2.0615
  2.0638   2.0649   2.0696   2.0722   2.0758   2.0782   2.0798   2.0808
  2.0832   2.0838   2.0863   2.0871   2.0961   2.1023   2.1055   2.1069
  2.1076   2.1116   2.1127   2.1137   2.1150   2.1166   2.1174   2.1188
  2.1193   2.1217   2.1234   2.1276   2.1281   2.1294   2.1300   2.1320
  2.1327   2.1356   2.1364   2.1383   2.1403   2.1459   2.1477   2.1506
  2.1516   2.1544   2.1560   2.1569   2.1596   2.1620   2.1633   2.1646
  2.1653   2.1667   2.1687   2.1723   2.1741   2.1759   2.1765   2.1787
  2.1816   2.1842   2.1870   2.1900   2.1904   2.1912   2.1951   2.1953
  2.1965   2.1993   2.2000   2.2028   2.2046   2.2072   2.2108   2.2127
  2.2146   2.2172   2.2185   2.2204   2.2222   2.2249   2.2256   2.2278
  2.2319   2.2344   2.2359   2.2381   2.2442   2.2476   2.2487   2.2510
  2.2535   2.2571   2.2586   2.2595   2.2634   2.2643   2.2680   2.2705
  2.2720   2.2739   2.2794   2.2817   2.2847   2.2888   2.2935   2.2950
  2.2979   2.3032   2.3039   2.3048   2.3078   2.3104   2.3113   2.3138
  2.3158   2.3167   2.3178   2.3212   2.3220   2.3244   2.3270   2.3290
  2.3320   2.3346   2.3367   2.3450   2.3476   2.3494   2.3537   2.3551
  2.3633   2.3661   2.3701   2.3734   2.3750   2.3778   2.3791   2.3795
  2.3871   2.3900   2.3927   2.3990   2.4029   2.4039   2.4100   2.4111
  2.4135   2.4148   2.4174   2.4186   2.4223   2.4234   2.4252   2.4286
  2.4296   2.4336   2.4344   2.4364   2.4369   2.4395   2.4404   2.4453
  2.4469   2.4478   2.4496   2.4523   2.4537   2.4561   2.4578   2.4595
  2.4605   2.4634   2.4647   2.4680   2.4706   2.4719   2.4735   2.4738
  2.4748   2.4785   2.4820   2.4838   2.4852   2.4858   2.4886   2.4903
  2.4911   2.4921   2.4933   2.4961   2.4986   2.5013   2.5025   2.5051
  2.5064   2.5078   2.5084   2.5102   2.5120   2.5134   2.5159   2.5209
  2.5251   2.5298   2.5327   2.5344   2.5372   2.5380   2.5398   2.5410
  2.5436   2.5461   2.5473   2.5534   2.5567   2.5626   2.5634   2.5655
  2.5692   2.5762   2.5788   2.5832   2.5867   2.5949   2.5981   2.6035
  2.6067   2.6116   2.6161   2.6170   2.6202   2.6211   2.6270   2.6370
  2.6471   2.6503   2.6541   2.6549   2.6632   2.6654   2.6737   2.6782
  2.6797   2.6821   2.6848   2.6849   2.6865   2.6908   2.6913   2.6928
  2.6951   2.7002   2.7038   2.7088   2.7096   2.7126   2.7159   2.7191
  2.7225   2.7250   2.7274   2.7296   2.7323   2.7332   2.7395   2.7450
  2.7480   2.7543   2.7553   2.7647   2.7661   2.7721   2.7830   2.7882
  2.7911   2.7920   2.7931   2.7946   2.8052   2.8077   2.8103   2.8129
  2.8165   2.8175   2.8243   2.8347   2.8419   2.8482   2.8495   2.8500
  2.8513   2.8549   2.8573   2.8583   2.8643   2.8650   2.8716   2.8719
  2.8755   2.8798   2.8817   2.8893   2.8949   2.8979   2.9001   2.9042
  2.9077   2.9164   2.9206   2.9266   2.9291   2.9303   2.9331   2.9368
  2.9394   2.9424   2.9437   2.9500   2.9508   2.9585   2.9707   2.9724
  2.9733   2.9828   2.9852   2.9911   2.9933   3.0028   3.0068   3.0097
  3.0325   3.0449   3.0531   3.0612   3.0776   3.0782   3.0858   3.0909
  3.0979   3.1029   3.1052   3.1113   3.1191   3.1316   3.1369   3.1727
  3.1829   3.2000   3.2062   3.2199   3.2291   3.2367   3.2449   3.2650
  3.2732   3.2769   3.3000   3.3072   3.3264   3.3312   3.3759   3.3821
  3.4051   3.4898   3.6106   3.6223   3.6738   4.1234   4.1375   4.1605
  4.2101   4.2502   4.2693   4.2722   4.3145   4.3223   4.3281   4.3334
  4.3381   4.3467   4.3519   4.3571   4.3615   4.3663   4.3669   4.3745
  4.3806   4.3813   4.3819   4.3862   4.3869   4.3936   4.4043   4.4117
  4.4138   4.4216   4.4232   4.4392   4.4405   4.4455   4.4502   4.4587
  4.4759   4.4770   4.4827   4.4863   4.4895   4.5010   4.5066   4.5138
  4.5199   4.5231   4.5241   4.5284   4.5321   4.5393   4.5430   4.5443
  4.5493   4.5508   4.5543   4.5578   4.5694   4.5774   4.5787   4.6003
  4.6106   4.6145   4.6225   4.6275   4.6371   4.6446   4.6539   4.6676
  4.6717   4.6771   4.6797   4.6925   4.6952   4.7005   4.7037   4.7090
  4.7346   4.7534   4.7560   4.7683   4.7769   4.7932   4.7956   4.8126
  4.8184   4.8261   4.8467   4.8648   4.9174   4.9226   4.9384   4.9633
  4.9754   5.0160   5.0495   5.0588
 --------------------------------------------------------------
 
          Ground-State Mulliken Net Atomic Charges

     Atom                 Charge (a.u.)
  ----------------------------------------
      1 C                     0.479618
      2 O                    -0.584254
      3 C                    -0.277196
      4 C                     0.171362
      5 C                    -0.181722
      6 C                    -0.317526
      7 C                    -0.398623
      8 C                    -0.405326
      9 C                    -0.313894
     10 C                    -0.130240
     11 C                    -0.141020
     12 C                    -0.134255
     13 C                    -0.020302
     14 C                    -0.310715
     15 C                    -0.304170
     16 C                    -0.306615
     17 C                    -0.326670
     18 C                     0.138853
     19 C                    -0.477476
     20 O                    -0.651354
     21 H                     0.194770
     22 H                     0.187307
     23 H                     0.156380
     24 H                     0.159400
     25 H                     0.197661
     26 H                     0.190471
     27 H                     0.177474
     28 H                     0.265246
     29 H                     0.140352
     30 H                     0.196711
     31 H                     0.159674
     32 H                     0.137970
     33 H                     0.124298
     34 H                     0.139948
     35 H                     0.149997
     36 H                     0.150651
     37 H                     0.147977
     38 H                     0.169267
     39 H                     0.166049
     40 H                     0.145161
     41 H                     0.163030
     42 H                     0.110717
     43 H                     0.158347
     44 H                     0.163138
     45 H                     0.158063
     46 H                     0.404828
     47 H                     0.140858
     48 C                    -0.455514
     49 H                     0.155212
     50 C                    -0.344498
     51 H                     0.144302
     52 H                     0.151606
     53 C                     0.105768
     54 C                    -0.199440
     55 H                     0.133714
     56 C                    -0.193462
     57 H                     0.148905
     58 C                     0.334963
     59 O                    -0.694030
     60 H                     0.461793
     61 C                    -0.236161
     62 H                     0.178378
     63 C                    -0.196922
     64 H                     0.145344
     65 H                     0.158713
     66 H                     0.144878
     67 C                    -0.460871
     68 H                     0.146986
     69 C                    -0.115495
     70 H                     0.140139
     71 C                    -0.465709
     72 H                     0.147196
     73 H                     0.148283
     74 H                     0.160380
     75 C                    -0.455936
     76 H                     0.174109
     77 H                     0.140000
     78 H                     0.143139
     79 H                     0.145098
     80 H                     0.113643
     81 C                    -0.458428
     82 H                     0.167907
     83 C                    -0.354787
     84 H                     0.135497
     85 H                     0.138412
     86 C                     0.581696
     87 O                    -0.615460
     88 O                    -0.595011
     89 H                     0.143870
     90 H                     0.150637
     91 C                    -0.556577
     92 H                     0.210548
     93 H                     0.200553
     94 C                     0.581789
     95 O                    -0.498679
     96 N                    -0.616967
     97 H                     0.332550
     98 C                    -0.164124
     99 H                     0.206275
    100 C                    -0.283003
    101 H                     0.133463
    102 H                     0.146179
    103 C                    -0.112617
    104 H                     0.144064
    105 C                    -0.469796
    106 H                     0.167304
    107 H                     0.145997
    108 H                     0.151010
    109 C                    -0.496047
    110 H                     0.142202
    111 H                     0.191106
    112 H                     0.165031
    113 H                     0.157297
    114 H                     0.142950
    115 C                    -0.465401
    116 H                     0.158569
    117 C                    -0.114807
    118 H                     0.132171
    119 C                    -0.471542
    120 H                     0.146569
    121 H                     0.150406
    122 H                     0.176371
    123 C                    -0.497489
    124 H                     0.139180
    125 H                     0.144584
    126 H                     0.201346
    127 H                     0.146956
    128 H                     0.155854
    129 C                    -0.476772
    130 H                     0.150485
    131 C                    -0.338157
    132 H                     0.161512
    133 H                     0.156013
    134 C                     0.117707
    135 C                    -0.197870
    136 H                     0.137053
    137 C                    -0.158222
    138 H                     0.143928
    139 C                    -0.168562
    140 H                     0.171945
    141 C                    -0.161179
    142 H                     0.190485
    143 C                    -0.200096
    144 H                     0.141479
    145 H                     0.164372
    146 H                     0.139289
    147 C                    -0.452508
    148 H                     0.157628
    149 C                    -0.136447
    150 H                     0.143316
    151 C                    -0.471906
    152 H                     0.149131
    153 H                     0.152419
    154 H                     0.157968
    155 C                    -0.475025
    156 H                     0.160428
    157 H                     0.171639
    158 H                     0.153158
    159 H                     0.148690
    160 H                     0.174540
    161 C                    -0.464317
    162 H                     0.146959
    163 C                    -0.309026
    164 H                     0.160211
    165 H                     0.163886
    166 C                    -0.446868
    167 H                     0.202492
    168 H                     0.174553
    169 S                     0.071954
    170 C                    -0.632723
    171 H                     0.197539
    172 H                     0.195995
    173 H                     0.194336
    174 H                     0.155885
    175 H                     0.148063
    176 C                    -0.472549
    177 H                     0.151938
    178 C                    -0.278176
    179 H                     0.141938
    180 H                     0.141954
    181 C                    -0.110613
    182 H                     0.132246
    183 C                    -0.472032
    184 H                     0.141408
    185 H                     0.144553
    186 H                     0.165307
    187 C                    -0.490976
    188 H                     0.152756
    189 H                     0.175069
    190 H                     0.175679
    191 H                     0.146594
    192 H                     0.134053
    193 C                    -0.469230
    194 H                     0.165251
    195 C                    -0.107058
    196 H                     0.128376
    197 C                    -0.476397
    198 H                     0.167807
    199 H                     0.134346
    200 H                     0.169639
    201 C                    -0.465864
    202 H                     0.171153
    203 H                     0.124758
    204 H                     0.159530
    205 H                     0.139697
    206 H                     0.159740
    207 C                    -0.465832
    208 H                     0.178970
    209 C                    -0.382547
    210 H                     0.175219
    211 H                     0.199581
    212 C                     0.584368
    213 O                    -0.478786
    214 O                    -0.615700
    215 H                     0.464986
    216 H                     0.144666
    217 H                     0.202030
    218 C                    -0.479345
    219 H                     0.122020
    220 C                    -0.479955
    221 H                     0.136782
    222 H                     0.180925
    223 H                     0.157883
    224 H                     0.131594
    225 H                     0.151344
    226 C                    -0.448957
    227 H                     0.128680
    228 C                    -0.341894
    229 H                     0.143180
    230 H                     0.145819
    231 C                     0.000650
    232 C                    -0.000840
    233 H                     0.161322
    234 N                    -0.723949
    235 H                     0.437056
    236 C                     0.249413
    237 C                    -0.193224
    238 H                     0.210137
    239 C                    -0.191730
    240 H                     0.127470
    241 C                    -0.172418
    242 H                     0.120080
    243 C                    -0.221439
    244 H                     0.124331
    245 C                     0.031253
    246 H                     0.154245
  ----------------------------------------
  Sum of atomic charges =    -1.000000

 -----------------------------------------------------------------
                    Cartesian Multipole Moments
 -----------------------------------------------------------------
    Charge (ESU x 10^10)
                -4.8032
    Dipole Moment (Debye)
         X       6.4354      Y      14.3281      Z      -6.6481
       Tot      17.0560
    Quadrupole Moments (Debye-Ang)
        XX    -729.7178     XY      23.7194     YY    -670.1936
        XZ      43.0037     YZ      68.9658     ZZ    -670.4736
    Octopole Moments (Debye-Ang^2)
       XXX    -108.6996    XXY     -67.0592    XYY     189.4084
       YYY     592.1847    XXZ      28.4387    XYZ      26.1019
       YYZ       3.0591    XZZ     102.3436    YZZ     365.7888
       ZZZ      -9.1488
    Hexadecapole Moments (Debye-Ang^3)
      XXXX  -73212.6880   XXXY    1493.6716   XXYY  -22331.7534
      XYYY    1157.3941   YYYY  -65825.8734   XXXZ    1709.6976
      XXYZ     313.4275   XYYZ     702.1038   YYYZ    2460.2684
      XXZZ  -17647.4319   XYZZ     261.4986   YYZZ  -16087.2464
      XZZZ    1352.0768   YZZZ    2164.8717   ZZZZ  -32476.9437
 -----------------------------------------------------------------
 Total job time:  5817.00s(wall), 44852.77s(cpu) 
 Tue Aug  6 14:36:06 2024

        *************************************************************
        *                                                           *
        *  Thank you very much for using Q-Chem.  Have a nice day.  *
        *                                                           *
        *************************************************************



Running Job 2 of 2 19nt_mm_min_distance_cutoff3_nowat_optimized_spade_wb97x-v_631gd.in
qchem 19nt_mm_min_distance_cutoff3_nowat_optimized_spade_wb97x-v_631gd.in_4187776.1 ./qchem4187776/ 1
srun -n 1 /cm/shared/apps/spack/0.17.3/cpu/b/opt/spack/linux-rocky8-zen2/gcc-10.2.0/qchem-6.0-rytxnwjazd34ekd2gqyi5ufsaimxsd3r/exe/qcprog.exe 19nt_mm_min_distance_cutoff3_nowat_optimized_spade_wb97x-v_631gd.in_4187776.1 ./qchem4187776/

                  Welcome to Q-Chem
     A Quantum Leap Into The Future Of Chemistry


 Q-Chem 6.0, Q-Chem, Inc., Pleasanton, CA (2022)

 License issued to: University of California, San Diego (site)

 E. Epifanovsky,  A. T. B. Gilbert,  Xintian Feng,  Joonho Lee,  Yuezhi Mao,  
 N. Mardirossian,  P. Pokhilko,  A. White,  M. Wormit,  M. P. Coons,  
 A. L. Dempwolff,  Zhengting Gan,  D. Hait,  P. R. Horn,  L. D. Jacobson,  
 I. Kaliman,  J. Kussmann,  A. W. Lange,  Ka Un Lao,  D. S. Levine,  Jie Liu,  
 S. C. McKenzie,  A. F. Morrison,  K. Nanda,  F. Plasser,  D. R. Rehn,  
 M. L. Vidal,  Zhi-Qiang You,  Ying Zhu,  B. Alam,  B. Albrecht,  
 A. Aldossary,  E. Alguire,  J. H. Andersen,  V. Athavale,  D. Barton,  
 K. Begam,  A. Behn,  N. Bellonzi,  Y. A. Bernard,  E. J. Berquist,  
 H. Burton,  A. Carreras,  K. Carter-Fenk,  Romit Chakraborty,  
 Chandrima Chakravarty,  Junhan Chen,  A. D. Chien,  K. D. Closser,  
 V. Cofer-Shabica,  L. Cunha,  S. Dasgupta,  Jia Deng,  M. de Wergifosse,  
 M. Diedenhofen,  Hainam Do,  S. Ehlert,  Po-Tung Fang,  S. Fatehi,  
 Qingguo Feng,  T. Friedhoff,  B. Ganoe,  J. Gayvert,  Qinghui Ge,  
 G. Gidofalvi,  M. Goldey,  J. Gomes,  C. Gonzalez-Espinoza,  S. Gulania,  
 A. Gunina,  J. A. Gyamfi,  M. W. D. Hanson-Heine,  P. H. P. Harbach,  
 A. W. Hauser,  M. F. Herbst,  M. Hernandez Vera,  M. Hodecker,  
 Z. C. Holden,  S. Houck,  Xunkun Huang,  Kerwin Hui,  B. C. Huynh,  
 K. Ikeda,  M. Ivanov,  Hyunjun Ji,  Zuxin Jin,  Hanjie Jiang,  B. Kaduk,  
 S. Kaehler,  R. Kang,  K. Khistyaev,  Jaehoon Kim,  Yongbin Kim,  
 P. Klunzinger,  Z. Koczor-Benda,  Joong Hoon Koh,  D. Kosenkov,  
 Saikiran Kotaru,  L. Koulias,  T. Kowalczyk,  C. M. Krauter,  K. Kue,  
 A. Kunitsa,  T. Kus,  A. Landau,  K. V. Lawler,  D. Lefrancois,  S. Lehtola,  
 Rain Li,  Shaozhi Li,  Yi-Pei Li,  Jiashu Liang,  M. Liebenthal,  
 Hung-Hsuan Lin,  You-Sheng Lin,  Fenglai Liu,  Kuan-Yu Liu,  
 M. Loipersberger,  A. Luenser,  C. Malbon,  A. Manjanath,  P. Manohar,  
 E. Mansoor,  S. F. Manzer,  Shan-Ping Mao,  A. V. Marenich,  T. Markovich,  
 S. Mason,  F. Matz,  S. A. Maurer,  P. F. McLaughlin,  M. F. S. J. Menger,  
 J.-M. Mewes,  S. A. Mewes,  P. Morgante,  Mohammad Mostafanejad,  
 J. W. Mullinax,  K. J. Oosterbaan,  G. Paran,  V. Parravicini,  
 Alexander C. Paul,  Suranjan K. Paul,  F. Pavosevic,  Zheng Pei,  S. Prager,  
 E. I. Proynov,  E. Ramos,  B. Rana,  A. E. Rask,  A. Rettig,  R. M. Richard,  
 F. Rob,  E. Rossomme,  T. Scheele,  M. Scheurer,  M. Schneider,  
 P. E. Schneider,  N. Sergueev,  S. M. Sharada,  Hengyuan Shen,  
 W. Skomorowski,  D. W. Small,  C. J. Stein,  Yingli Su,  Yu-Chuan Su,  
 E. J. Sundstrom,  Zhen Tao,  J. Thirman,  Hung-Yi Tsai,  T. Tsuchimochi,  
 N. M. Tubman,  C. Utku,  S. P. Veccham,  O. Vydrov,  J. Wenzel,  
 Jonathan Wong,  J. Witte,  A. Yamada,  Chou-Hsun Yang,  Kun Yao,  
 S. Yeganeh,  S. R. Yost,  A. Zech,  F. Zeller,  Igor Ying Zhang,  
 Xing Zhang,  Yu Zhang,  D. Zuev,  A. Aspuru-Guzik,  A. T. Bell,  
 N. A. Besley,  K. B. Bravaya,  B. R. Brooks,  D. Casanova,  Jeng-Da Chai,  
 Hsing-Ta Chen,  S. Coriani,  C. J. Cramer,  A. E. DePrince, III,  
 R. A. DiStasio Jr.,  A. Dreuw,  B. D. Dunietz,  T. R. Furlani,  
 W. A. Goddard III,  S. Grimme,  S. Hammes-Schiffer,  T. Head-Gordon,  
 W. J. Hehre,  Chao-Ping Hsu,  T.-C. Jagau,  Yousung Jung,  A. Klamt,  
 Jing Kong,  D. S. Lambrecht,  Xiangyuan Li,  WanZhen Liang,  N. J. Mayhall,  
 C. W. McCurdy,  J. B. Neaton,  T. Neudecker,  C. Ochsenfeld,  
 J. A. Parkhill,  R. Peverati,  V. A. Rassolov,  Haisheng Ren,  Yihan Shao,  
 L. V. Slipchenko,  R. P. Steele,  J. E. Subotnik,  A. J. W. Thom,  
 A. Tkatchenko,  D. G. Truhlar,  T. Van Voorhis,  Fan Wang,  
 T. A. Wesolowski,  K. B. Whaley,  H. L. Woodcock III,  P. M. Zimmerman,  
 S. Faraji,  P. M. W. Gill,  M. Head-Gordon,  J. M. Herbert,  A. I. Krylov

 Contributors to earlier versions of Q-Chem not listed above: 
 R. D. Adamson,  B. Austin,  R. Baer,  J. Baker,  G. J. O. Beran,  
 K. Brandhorst,  S. T. Brown,  E. F. C. Byrd,  Arup K. Chakraborty,  
 G. K. L. Chan,  Chun-Min Chang,  Yunqing Chen,  C.-L. Cheng,  
 Siu Hung Chien,  D. M. Chipman,  D. L. Crittenden,  H. Dachsel,  
 R. J. Doerksen,  A. D. Dutoi,  R. G. Edgar,  J. Fosso-Tande,  
 L. Fusti-Molnar,  D. Ghosh,  A. Ghysels,  A. Golubeva-Zadorozhnaya,  
 J. Gonthier,  M. S. Gordon,  S. R. Gwaltney,  G. Hawkins,  J. E. Herr,  
 A. Heyden,  S. Hirata,  E. G. Hohenstein,  G. Kedziora,  F. J. Keil,  
 C. Kelley,  Jihan Kim,  R. A. King,  R. Z. Khaliullin,  P. P. Korambath,  
 W. Kurlancheek,  A. Laurent,  A. M. Lee,  M. S. Lee,  S. V. Levchenko,  
 Ching Yeh Lin,  D. Liotard,  E. Livshits,  R. C. Lochan,  I. Lotan,  
 L. A. Martinez-Martinez,  P. E. Maslen,  N. Nair,  D. P. O'Neill,  
 D. Neuhauser,  E. Neuscamman,  C. M. Oana,  R. Olivares-Amaya,  R. Olson,  
 T. M. Perrine,  B. Peters,  P. A. Pieniazek,  A. Prociuk,  Y. M. Rhee,  
 J. Ritchie,  M. A. Rohrdanz,  E. Rosta,  N. J. Russ,  H. F. Schaefer III,  
 M. W. Schmidt,  N. E. Schultz,  S. Sharma,  N. Shenvi,  C. D. Sherrill,  
 A. C. Simmonett,  A. Sodt,  T. Stein,  D. Stuck,  K. S. Thanthiriwatte,  
 V. Vanovschi,  L. Vogt,  Tao Wang,  A. Warshel,  M. A. Watson,  
 C. F. Williams,  Q. Wu,  X. Xu,  Jun Yang,  W. Zhang,  Yan Zhao

   Please cite Q-Chem as follows:
  "Software for the frontiers of quantum chemistry:
   An overview of developments in the Q-Chem 5 package"
   J. Chem. Phys. 155, 084801 (2021)
   https://doi.org/10.1063/5.0055522 (open access)

 Q-Chem 6.0.2 for Intel X86 EM64T Linux

 Parts of Q-Chem use Armadillo 9.900.5 (Nocturnal Misbehaviour).
 http://arma.sourceforge.net/

 Q-Chem begins on Tue Aug  6 14:38:40 2024  

 Host: 
0

     Scratch files written to ./qchem4187776//
 Dec722 |scratch|qcdevops|jenkins|workspace|build_RNUM    
 Processing $rem in /cm/shared/apps/spack/0.17.3/cpu/b/opt/spack/linux-rocky8-zen2/gcc-10.2.0/qchem-6.0-rytxnwjazd34ekd2gqyi5ufsaimxsd3r/config/preferences:
 Processing $rem in /home/hklem/.qchemrc:

 Checking the input file for inconsistencies... 	...done.

--------------------------------------------------------------
User input:
--------------------------------------------------------------

$molecule
-1 1
@C    -3.48100   0.94200    1.19700
@O    -4.72000   1.04800    1.11000
@C    -2.80600   -0.32100   1.06000
@C    -1.48500   -0.46500   1.34100
@C    -0.58400   0.72500    1.59900
@C    -1.21900   2.02700    1.10700
@C    -2.66600   2.15900    1.55200
@C    -0.89400   -1.82100   1.53200
@C    0.53700    -1.97300   1.01300
@C    1.42800    -0.82600   1.49200
@C    0.82400    0.50800    0.99800
@C    2.86800    -0.94300   1.00500
@C    3.75600    0.25200    1.40900
@C    3.17600    1.52400    0.79700
@C    1.72300    1.73500    1.23300
@C    3.70800    -2.16100   1.41200
@C    5.16600    -1.71500   1.11800
@C    5.09200    -0.20800   0.79700
@C    3.90800    0.41300    2.93200
@O    6.25300    0.45500    1.27000
@H    -3.42300   -1.19100   0.85600
@H    -0.46500   0.77500    2.69600
@H    -1.16900   2.05200    0.00900
@H    -0.65400   2.89200    1.46900
@H    -2.71900   2.26100    2.64600
@H    -3.14800   3.04800    1.13500
@H    -1.55000   -2.58300   1.10300
@H    -0.90800   -1.98400   2.63000
@H    0.53300    -1.99500   -0.08600
@H    0.93200    -2.93500   1.35100
@H    1.41600    -0.83800   2.59200
@H    0.69700    0.40600    -0.09300
@H    2.82700    -0.93300   -0.09900
@H    3.21700    1.44700    -0.29900
@H    3.76400    2.40600    1.08000
@H    1.69700    2.02000    2.29400
@H    1.32300    2.58900    0.67800
@H    3.43100    -3.06700   0.87200
@H    3.56400    -2.38300   2.47400
@H    5.60200    -2.27600   0.28500
@H    5.82300    -1.86000   1.98100
@H    5.02000    -0.06900   -0.29600
@H    4.46500    -0.41500   3.37900
@H    4.44000    1.34100    3.16500
@H    2.93700    0.46500    3.43300
@H    6.08000    1.40500    1.22000
H    -8.21700   6.78800    -4.33900
C    -7.63800   6.32300    -3.53200
H    -6.86000   7.02700    -3.21700
C    -8.53100   5.94200    -2.34900
H    -9.04300   6.83800    -1.97500
H    -9.31700   5.25900    -2.69500
C    -7.75200   5.29800    -1.22700
C    -7.39700   6.00900    -0.08000
H    -7.70800   7.04700    0.02100
C    -6.66400   5.41900    0.94200
H    -6.40100   5.97300    1.83800
C    -6.26300   4.08600    0.83600
O    -5.57700   3.54500    1.86400
H    -5.34900   2.61400    1.64600
C    -6.59100   3.36300    -0.31700
H    -6.28000   2.32600    -0.41000
C    -7.32800   3.97100    -1.32500
H    -7.58600   3.39100    -2.21000
H    -7.13500   5.43900    -3.93900
H    -2.05800   8.08200    -2.46300
C    -1.55100   7.26900    -1.93100
H    -1.36800   7.60300    -0.90200
C    -2.39900   5.99100    -1.93600
H    -2.56600   5.70200    -2.98300
C    -1.66800   4.83500    -1.24600
H    -0.69400   4.63400    -1.71000
H    -1.49100   5.06500    -0.18700
H    -2.26100   3.91500    -1.29000
C    -3.76600   6.22700    -1.28700
H    -4.39700   5.33200    -1.32900
H    -4.30900   7.04000    -1.78300
H    -3.65300   6.49800    -0.23000
H    -0.57800   7.10300    -2.40800
H    -3.72500   -3.99700   7.85600
C    -3.27000   -4.06200   6.85900
H    -4.01200   -4.44400   6.15400
C    -2.75500   -2.70200   6.38500
H    -1.99600   -2.30200   7.06500
H    -3.58500   -1.98100   6.37400
C    -2.16000   -2.74500   4.96300
O    -2.75900   -3.49900   4.14100
O    -1.15100   -2.04000   4.73100
H    -2.45400   -4.79200   6.90600
H    3.17900    4.84800    6.69500
C    3.48300    4.14400    5.91600
H    2.72800    3.35900    5.82400
H    4.42200    3.66600    6.20800
C    3.67800    4.78800    4.54200
O    3.99600    4.11900    3.56700
N    3.49500    6.13900    4.48100
H    3.18200    6.61300    5.31400
C    3.61200    6.93300    3.26000
H    4.09100    6.29000    2.51900
C    2.26600    7.45700    2.75500
H    1.83000    8.11100    3.52400
H    2.46000    8.09800    1.88300
C    1.24100    6.38300    2.36800
H    1.07400    5.74200    3.24500
C    -0.09200   7.04100    2.00200
H    -0.85600   6.28900    1.78200
H    -0.46700   7.67300    2.81600
H    0.02000    7.67200    1.11100
C    1.74100    5.49600    1.22400
H    2.04500    6.10500    0.36200
H    2.58900    4.87800    1.53500
H    0.94600    4.82300    0.88500
H    4.28800    7.77400    3.45500
H    6.96100    6.18300    -1.45100
C    6.12700    5.62700    -1.89500
H    6.53800    4.75700    -2.41400
C    5.11000    5.19600    -0.82900
H    4.65400    6.10600    -0.41100
C    3.99600    4.35300    -1.45500
H    3.48800    4.89400    -2.26200
H    4.41200    3.43100    -1.88200
H    3.24300    4.06200    -0.71500
C    5.77500    4.44200    0.32700
H    6.12200    3.45500    -0.00900
H    6.64600    4.98600    0.71100
H    5.08300    4.28800    1.16300
H    5.65500    6.26800    -2.64800
H    -3.27900   -2.33400   -7.69000
C    -2.23000   -2.55300   -7.46500
H    -1.71900   -2.76200   -8.41100
C    -1.55500   -1.38300   -6.74700
H    -0.49300   -1.62500   -6.60000
H    -1.56800   -0.50400   -7.40700
C    -2.13800   -0.98700   -5.40200
C    -1.51800   0.03300    -4.67000
H    -0.64300   0.52800    -5.08900
C    -1.98500   0.41000    -3.41600
H    -1.47200   1.19300    -2.86300
C    -3.09600   -0.22800   -2.86400
H    -3.46900   0.03600    -1.88000
C    -3.73000   -1.23400   -3.58500
H    -4.58400   -1.73900   -3.14300
C    -3.25500   -1.60600   -4.84200
H    -3.75900   -2.40500   -5.37900
H    -2.19700   -3.46300   -6.85600
H    2.65700    0.16400    -5.21800
C    3.38000    0.12100    -4.39400
H    4.10600    0.93000    -4.53300
C    2.65900    0.23200    -3.04800
H    3.41900    0.23100    -2.25100
C    1.87800    1.54400    -2.94200
H    1.08400    1.58100    -3.69900
H    2.52900    2.41300    -3.09400
H    1.40500    1.64500    -1.95800
C    1.74200    -0.96900   -2.83600
H    0.98300    -1.02000   -3.62500
H    1.21000    -0.90900   -1.88200
H    2.30400    -1.91100   -2.84800
H    3.92200    -0.82800   -4.47500
H    9.82700    1.59400    -3.06500
C    9.54700    2.27100    -2.25100
H    10.08200   3.21500    -2.39500
C    8.04000    2.51000    -2.21100
H    7.71400    2.96700    -3.15500
H    7.82300    3.23900    -1.42300
C    7.18700    1.27200    -1.93400
H    7.47300    0.80100    -0.98700
H    6.13300    1.56500    -1.84800
S    7.33300    0.05600    -3.28700
C    6.31700    -1.27800   -2.60100
H    6.73600    -1.64700   -1.66000
H    5.28700    -0.95000   -2.43500
H    6.30800    -2.09100   -3.33000
H    9.89400    1.82300    -1.31300
H    6.09700    -4.39500   -3.44600
C    5.09000    -4.82000   -3.50800
H    5.20300    -5.90000   -3.64900
C    4.27700    -4.49500   -2.25500
H    4.25900    -3.40500   -2.11000
H    4.78500    -4.90700   -1.37100
C    2.82800    -5.00700   -2.26800
H    2.31700    -4.56000   -3.13500
C    2.75200    -6.53000   -2.40700
H    3.20400    -6.88700   -3.33900
[...]
    3  -0.3918546  -1.7263465   0.3759973  -0.4159646   0.8372418   0.1496601
          115         116         117         118         119         120
    1   1.3806473   1.7224175   0.6338366  -0.0028283  -0.1251430  -0.6546914
    2   1.5032328   0.0189147   1.3854727   2.9015063   0.4759649   1.7269441
    3  -1.0282855  -1.7138487  -0.0870484   0.4211765  -0.7534926  -2.1224039
          121         122         123         124         125         126
    1   0.8535923  -0.9464028   1.4148604   1.6680599   2.7359285   0.2746545
    2  -0.7948471  -0.0306372   0.2989062  -1.1886220   1.4350471  -0.0269490
    3  -1.1919153   0.7080689   0.9268761   0.3571679   1.2670804   1.7248530
          127         128         129         130         131         132
    1   0.2161518  -2.3312061  -0.5369464   0.5476497   0.3673942   2.1431969
    2   2.3492512  -0.2434107  -0.9765849  -0.9244119   0.1295745  -0.5301195
    3  -2.0932959  -2.2650915  -2.1859505  -3.2152325  -2.2534262  -1.7917372
          133         134         135         136         137         138
    1   0.0194661  -0.2938208   0.5333110   1.5276248   0.0526641   0.6024608
    2   1.7478115   0.1323013   1.1914026   1.7060519   1.4848830   2.1673923
    3  -3.0723688  -1.9069276  -1.5371040  -2.1517362  -0.1401164   0.5341933
          139         140         141         142         143         144
    1  -1.0036205  -1.1400990  -1.8714004  -2.6687331  -1.5679501  -2.2037714
    2   0.8315302   1.0972758  -0.3316203  -1.0222561  -0.7919624  -1.9143531
    3   0.3997136   1.5432256  -0.5909755  -0.4061749  -1.7077759  -2.2272821
          145         146         147         148         149         150
    1  -0.3551019  -0.3102291   0.9954836   1.7848821   0.8066662   1.8309421
    2  -2.4481569   0.3279950   0.1956032   1.6214529   0.3250291   0.2212189
    3  -1.0077503  -3.1276954  -1.9476352  -1.8709258  -0.2422950   1.3416235
          151         152         153         154         155         156
    1  -0.0288956  -1.0062334   1.0598378  -0.6049638   0.1698265  -0.6284618
    2   1.3264277   1.2520871   2.2446388   0.9901123  -0.4378033  -0.2175298
    3  -0.4695804  -2.0031010  -1.0241310   1.4196498  -0.2624505  -1.9586608
          157         158         159         160         161         162
    1  -0.4603784   1.3078662   1.6008997   2.4305861   2.2854523   2.5012647
    2   0.1445250  -1.5472956  -1.4819184  -0.7363756   0.3860021   1.9144254
    3   1.6370092  -0.5436577  -1.8052926  -1.6769591  -0.1718099  -0.4630721
          163         164         165         166         167         168
    1   1.2777103   0.7027977   1.1729251   0.8012904   1.6161360  -0.8602677
    2   1.1211514   1.6869974   1.7856788   0.3036144  -0.8052213   0.7475303
    3  -0.2614071  -2.3193246   1.2217292   0.7638257   2.4149673   0.4029889
          169         170         171         172         173         174
    1   1.5428404   0.7587525   1.8271201  -0.5727020   1.1858842   2.4276202
    2  -0.2772944  -1.2200501  -1.4352776  -0.1140404  -2.0076914  -0.4940716
    3  -1.2620970   0.0813026   1.8262665   0.2849807  -1.6650728   1.6348870
          175         176         177         178         179         180
    1   2.9687812   1.6663067   1.6296120   1.6342064   1.3040921   2.5002590
    2  -0.3505702  -1.0002839  -2.7210560  -0.4544889   1.2055529  -1.3617557
    3  -0.7571616  -1.3398808  -1.2559019  -0.0286815   0.1605278   1.5635424
          181         182         183         184         185         186
    1   0.6081140  -0.2379463   0.7078677   1.2831586   1.7828371  -0.9466704
    2  -0.7933758  -0.1193086  -2.2304100  -2.3546385  -2.6630311  -2.4355730
    3  -0.9125846  -2.5739997  -0.8610280  -2.3600123   0.8116758  -0.9839946
          187         188         189         190         191         192
    1   0.5047040   0.6344586   1.8060963  -0.9454089   0.4788111   0.5167314
    2  -0.2822252   1.4979552  -0.9495755  -1.0181467  -0.2301617  -1.8013552
    3   0.4208393   0.5202481   1.5103403  -0.0434535  -2.7973133  -2.9171909
          193         194         195         196         197         198
    1  -0.1878839   0.9472706  -0.7904099  -2.1227903  -0.9767823  -1.3035004
    2  -2.1001535  -2.0544489  -1.0116473  -0.9949405  -0.7610171   0.8931566
    3  -1.2988415  -0.0599641  -1.1097194  -2.2877099   0.2408256   0.3576962
          199         200         201         202         203         204
    1  -2.1767276   0.5124171   0.4877181  -0.2726474   1.0034526   1.4415566
    2  -2.3000640  -0.6630643  -0.1504427   1.1481166  -0.6770741  -0.3857602
    3  -0.0673144   1.1031799  -0.8741153  -0.0568523  -2.7571691   0.4212494
          205         206         207         208         209         210
    1  -1.6848407  -1.8049867  -1.6401506  -0.0048728  -2.3342930  -3.6768362
    2  -2.9951400  -0.1424462  -1.4028750  -2.1178872  -0.8088644   0.2649796
    3  -0.9816475  -2.4478839  -0.9583433  -0.7285172   0.3473668   0.1359363
          211         212         213         214         215         216
    1  -1.8667309  -1.7653789  -0.1366710  -1.6876697   0.6938096  -2.6323080
    2  -1.6320495  -0.2586292   0.2225389   0.8293479   2.2493966  -2.2817484
    3   2.0253601   0.1882052  -1.1736951   1.6524580   1.0948041  -0.4533448
          217         218         219         220         221         222
    1  -1.0185504  -1.5120216  -3.0181075  -0.9105212  -1.1935433   0.5968474
    2  -1.1301186  -1.5320674  -1.3374828  -0.3159300  -1.0170586  -0.0258172
    3   2.4858293   0.9329685   0.8092118   0.3280569  -1.2186531   0.3913431
          223         224         225         226         227         228
    1  -1.5124586  -0.7856834  -1.9277305  -0.1763991   0.0024257  -0.0231889
    2   1.1299846  -2.9423867  -2.3096163  -2.6259907  -3.2439010  -1.9998036
    3   1.4722599  -0.0213087   1.1244935   0.3069205  -1.1246192  -0.7908263
          229         230         231         232         233         234
    1   1.7457580  -1.5917151  -0.0441600  -1.5823033  -2.5287048  -0.9376031
    2  -1.9621185  -1.7317591  -1.7708114  -1.3799874  -1.6068513  -0.1064132
    3  -1.3238564  -1.7553966  -0.1455095  -0.0065256  -0.3375121   1.1908378
          235         236         237         238         239         240
    1  -1.3433923   0.4754020   0.5768944   0.2863566   1.7577753   2.2756598
    2   0.2859688  -0.3028654   0.4958193   1.2772844   0.1478950   0.7865361
    3   1.4528623   1.3980222   1.9990656   2.5248165   1.9217030   2.5492789
          241         242         243         244         245         246
    1   2.3110333   3.3073268   1.6932193   2.1377853   0.8644608   1.3173304
    2  -0.9275786  -1.1321149  -1.8664392  -2.8053064  -1.4509759  -2.5485457
    3   1.1088505   1.0229451   0.2707664  -0.5186344   0.5118608   1.6107259
 EField
            1           2           3           4           5           6
    1   0.0237479   0.0401601   0.0137020   0.0062239   0.0023837   0.0044872
    2  -0.0081297  -0.0052917  -0.0129438  -0.0122241  -0.0094866  -0.0047793
    3   0.0032165  -0.0015723   0.0053986   0.0096787   0.0059407   0.0029258
            7           8           9          10          11          12
    1   0.0121820   0.0007346  -0.0043681  -0.0049944  -0.0009105  -0.0046813
    2  -0.0006903  -0.0080186  -0.0068313  -0.0068681  -0.0061455  -0.0040788
    3   0.0033728   0.0172763   0.0104068   0.0066902   0.0052975   0.0046690
           13          14          15          16          17          18
    1  -0.0040726  -0.0008496   0.0007865  -0.0079180  -0.0067547  -0.0055808
    2  -0.0009760  -0.0006730  -0.0033156  -0.0050041  -0.0020238  -0.0007580
    3   0.0034663   0.0046927   0.0040685   0.0044183   0.0028841   0.0033795
           19          20          21          22          23          24
    1  -0.0041235  -0.0060910   0.0134895   0.0008487   0.0040124   0.0020769
    2   0.0008822   0.0007325  -0.0149506  -0.0131894  -0.0030197  -0.0053312
    3   0.0001790   0.0039512   0.0017449   0.0054638   0.0032036   0.0017859
           25          26          27          28          29          30
    1   0.0090875   0.0097070   0.0063968  -0.0027942  -0.0040737  -0.0047410
    2  -0.0021828   0.0074416  -0.0017372  -0.0054040  -0.0051404  -0.0050524
    3   0.0047173   0.0027344   0.0128673   0.0340111   0.0102354   0.0109165
           31          32          33          34          35          36
    1  -0.0084228  -0.0008693  -0.0036675  -0.0018594  -0.0005798   0.0026954
    2  -0.0087186  -0.0047771  -0.0029968  -0.0008612  -0.0009505  -0.0032240
    3   0.0050621   0.0068055   0.0053982   0.0046211   0.0076805   0.0020354
           37          38          39          40          41          42
    1   0.0019281  -0.0078726  -0.0105250  -0.0071184  -0.0063829  -0.0048111
    2  -0.0044293  -0.0039342  -0.0063915  -0.0021764  -0.0011681  -0.0010765
    3   0.0043056   0.0069028   0.0010781   0.0041237   0.0013511   0.0057897
           43          44          45          46          47          48
    1  -0.0057817  -0.0048860  -0.0034724  -0.0061952  -0.0164131   0.0006636
    2  -0.0007491   0.0069600  -0.0019976   0.0019439   0.0143334   0.0002994
    3  -0.0011320  -0.0002775  -0.0013490   0.0044678  -0.0249619   0.0005076
           49          50          51          52          53          54
    1   0.0246091  -0.0005084  -0.0169326  -0.0255421   0.0035135   0.0019953
    2   0.0210149   0.0008280   0.0268489  -0.0195888  -0.0002180  -0.0068510
    3   0.0088267   0.0000044   0.0108444  -0.0100471   0.0026819  -0.0023396
           55          56          57          58          59          60
    1  -0.0105312  -0.0021340   0.0096845  -0.0164701   0.0305931   0.0076205
    2   0.0365054   0.0017830   0.0210432   0.0224173   0.0639949  -0.0006298
    3   0.0034712  -0.0060067   0.0316395  -0.0226433   0.1041453   0.0085462
           61          62          63          64          65          66
    1  -0.0065508   0.0025402   0.0000800  -0.0098704   0.0164798  -0.0141869
    2   0.0141505  -0.0256472   0.0091249  -0.0176669  -0.0248929   0.0244687
    3  -0.0069412  -0.0171077   0.0043929  -0.0322447  -0.0129735  -0.0156566
           67          68          69          70          71          72
    1  -0.0016677   0.0064816   0.0001556  -0.0044555  -0.0001711   0.0306966
    2  -0.0037880   0.0099598  -0.0000513  -0.0091269   0.0023432  -0.0077153
    3   0.0011163   0.0310382   0.0002594  -0.0322233  -0.0003211  -0.0125827
           73          74          75          76          77          78
    1   0.0070898  -0.0149928   0.0030372  -0.0193332  -0.0173570   0.0023397
    2   0.0050340  -0.0287971  -0.0012112  -0.0239186   0.0242905   0.0080622
    3   0.0329446  -0.0001236  -0.0006199  -0.0003147  -0.0140310   0.0329943
           79          80          81          82          83          84
    1   0.0299242  -0.0123646   0.0013846  -0.0168512   0.0076997   0.0273790
    2  -0.0049035   0.0019916   0.0010270  -0.0100273  -0.0004327   0.0136010
    3  -0.0137457   0.0285680  -0.0051867  -0.0265461  -0.0062791   0.0149590
           85          86          87          88          89          90
    1  -0.0209371   0.0072691  -0.0469401   0.0819752   0.0255548  -0.0101833
    2   0.0216101   0.0018755  -0.0505582   0.0604575  -0.0211141   0.0177031
    3  -0.0022429  -0.0039449  -0.0573266  -0.0249601  -0.0022994   0.0270737
           91          92          93          94          95          96
    1  -0.0007206  -0.0229343   0.0271599   0.0009377   0.0286444   0.0071927
    2  -0.0033747  -0.0267624  -0.0169614  -0.0131310  -0.0672310  -0.0059140
    3  -0.0008530  -0.0038777   0.0078697  -0.0015138  -0.0864496  -0.0045918
           97          98          99         100         101         102
    1  -0.0134062   0.0013069   0.0155182  -0.0024737  -0.0150341   0.0045404
    2   0.0197293   0.0055898  -0.0237466  -0.0049157   0.0200408   0.0192000
    3   0.0363787  -0.0181952  -0.0234967  -0.0015980   0.0212599  -0.0264719
          103         104         105         106         107         108
    1   0.0001338  -0.0042714   0.0031983  -0.0228185  -0.0120522   0.0021388
    2  -0.0027588  -0.0228327  -0.0027478  -0.0234992   0.0177574   0.0176298
    3  -0.0001952   0.0265022   0.0005939  -0.0065885   0.0236066  -0.0269215
          109         110         111         112         113         114
    1   0.0009570   0.0097764   0.0261129  -0.0227701   0.0226334   0.0248231
    2  -0.0021437   0.0153073  -0.0228995  -0.0243540   0.0239913   0.0161078
    3   0.0025620  -0.0270337   0.0115637  -0.0103495   0.0044432   0.0130048
          115         116         117         118         119         120
    1  -0.0026774   0.0125385  -0.0006137  -0.0146257   0.0017739  -0.0161659
    2  -0.0030010  -0.0259497  -0.0013655   0.0265165  -0.0000899   0.0147726
    3   0.0027261  -0.0155400   0.0012869   0.0135027   0.0033604  -0.0235967
          121         122         123         124         125         126
    1   0.0108224  -0.0228438  -0.0040546   0.0083955   0.0248094  -0.0205379
    2  -0.0291825  -0.0104803  -0.0020021  -0.0339148   0.0132616  -0.0107075
    3  -0.0116199   0.0231203   0.0013239  -0.0043063   0.0138186   0.0283568
          127         128         129         130         131         132
    1  -0.0138359  -0.0314564  -0.0000187   0.0148065   0.0014516   0.0325149
    2   0.0188864   0.0056284  -0.0003762  -0.0073458  -0.0003486  -0.0073455
    3  -0.0224158  -0.0073496   0.0015953  -0.0278651  -0.0003741   0.0055320
          133         134         135         136         137         138
    1   0.0002847  -0.0018440  -0.0051815   0.0302161  -0.0019145   0.0206414
    2   0.0266074   0.0004407  -0.0055025   0.0163651  -0.0083966   0.0265482
    3  -0.0190603   0.0080352   0.0049540  -0.0132594  -0.0037408   0.0205149
          139         140         141         142         143         144
    1   0.0051427  -0.0087028   0.0064255  -0.0264346   0.0053044  -0.0161965
    2  -0.0049424   0.0045306   0.0003328  -0.0182663   0.0042856  -0.0277360
    3  -0.0069256   0.0317207  -0.0009001   0.0178638   0.0057386  -0.0174458
          145         146         147         148         149         150
    1   0.0014373  -0.0211937  -0.0014744   0.0233181  -0.0005736   0.0214164
    2  -0.0281971   0.0007197   0.0004010   0.0229305  -0.0011113   0.0003775
    3   0.0183400  -0.0252753   0.0039356  -0.0040962   0.0018923   0.0278534
          151         152         153         154         155         156
    1   0.0019238  -0.0239099   0.0189074  -0.0144310  -0.0003024  -0.0253183
    2  -0.0033931   0.0011002   0.0260013   0.0022749   0.0013178  -0.0041834
    3   0.0012113  -0.0205854  -0.0023478   0.0325980   0.0014096  -0.0204250
          157         158         159         160         161         162
    1  -0.0183770   0.0145234   0.0165867   0.0081472  -0.0002417   0.0171176
    2  -0.0006669  -0.0300556  -0.0283413  -0.0212117  -0.0011210   0.0284980
    3   0.0335476   0.0022449  -0.0030647  -0.0237407  -0.0009417  -0.0042941
          163         164         165         166         167         168
    1   0.0005996  -0.0105516  -0.0076372  -0.0019762   0.0074786  -0.0361067
    2   0.0037774   0.0147100   0.0247854   0.0097238  -0.0117271   0.0096815
    3  -0.0001276  -0.0281372   0.0238337   0.0088784   0.0230542   0.0025719
          169         170         171         172         173         174
    1   0.0214952  -0.0094611   0.0105024  -0.0340887  -0.0028676   0.0119482
    2   0.0046537  -0.0093486  -0.0132320   0.0102465  -0.0270029  -0.0129979
    3  -0.0379231   0.0055727   0.0279299   0.0055729  -0.0213122   0.0269719
          175         176         177         178         179         180
    1   0.0299291  -0.0023916   0.0027730  -0.0052279  -0.0022179   0.0132181
    2   0.0119226  -0.0001853  -0.0320240  -0.0009044   0.0326687  -0.0107266
    3   0.0021400   0.0025014  -0.0036350   0.0027807   0.0080465   0.0293669
          181         182         183         184         185         186
    1  -0.0004991  -0.0175304  -0.0012367   0.0127160   0.0141491  -0.0307226
    2   0.0015740   0.0143319   0.0040386  -0.0106308  -0.0147567  -0.0094781
    3   0.0027586  -0.0251614   0.0019168  -0.0269089   0.0266282   0.0017782
          187         188         189         190         191         192
    1  -0.0001669  -0.0022699   0.0110524  -0.0314708  -0.0149335   0.0141072
    2   0.0002002   0.0337566  -0.0068013  -0.0083842   0.0119981  -0.0021176
    3   0.0037977   0.0094241   0.0341409   0.0087382  -0.0271531  -0.0290900
          193         194         195         196         197         198
    1  -0.0002316   0.0231167   0.0007078  -0.0238810   0.0045723  -0.0122944
    2   0.0048002  -0.0062387   0.0013211   0.0073288   0.0015521   0.0291886
    3   0.0037520   0.0230715   0.0020214  -0.0212554   0.0015949   0.0093460
          199         200         201         202         203         204
    1  -0.0216876   0.0240896  -0.0018270  -0.0116365   0.0127622   0.0257520
    2  -0.0217011  -0.0020339  -0.0002788   0.0311169   0.0007598  -0.0032093
    3   0.0083558   0.0295774   0.0047013   0.0065364  -0.0295362   0.0239260
          205         206         207         208         209         210
    1  -0.0218116  -0.0004459   0.0031183   0.0318908  -0.0010462  -0.0328280
    2  -0.0228409   0.0137192  -0.0028392  -0.0144595  -0.0073790   0.0097039
    3   0.0040880  -0.0304469  -0.0025879  -0.0006855  -0.0006952   0.0003828
          211         212         213         214         215         216
    1   0.0032432   0.0003276   0.0806225  -0.0840260   0.0071233  -0.0217558
    2  -0.0205825  -0.0246844   0.0028217  -0.0193521  -0.0091233  -0.0264695
    3   0.0303668  -0.0177109  -0.0796786   0.0749389  -0.0022393   0.0000222
          217         218         219         220         221         222
    1   0.0169375   0.0053059  -0.0303081   0.0083619   0.0001443   0.0390743
    2   0.0059187   0.0011670  -0.0030943   0.0007864  -0.0015567   0.0084630
    3   0.0307825   0.0045793   0.0018217   0.0011541  -0.0324801   0.0073748
          223         224         225         226         227         228
    1  -0.0034760   0.0142189  -0.0279430   0.0001799   0.0019798   0.0004715
    2   0.0253015  -0.0282102   0.0000631   0.0039188  -0.0230326   0.0017112
    3   0.0155328  -0.0103010   0.0166065   0.0009040  -0.0214878   0.0001595
          229         230         231         232         233         234
    1   0.0285721  -0.0224222  -0.0030464   0.0104968  -0.0338369  -0.0098783
    2   0.0035969   0.0072966   0.0067753  -0.0082328  -0.0003677   0.0194259
    3  -0.0164537  -0.0230254   0.0045520  -0.0100869  -0.0120622   0.0071248
          235         236         237         238         239         240
    1  -0.0241802   0.0179279   0.0031767  -0.0202952  -0.0091331   0.0184079
    2   0.0309340   0.0036420   0.0048635   0.0337328   0.0008352   0.0205932
    3   0.0202636  -0.0013362  -0.0034194   0.0145611  -0.0080440   0.0210411
          241         242         243         244         245         246
    1  -0.0116850   0.0335407  -0.0016642   0.0145700  -0.0006083   0.0225022
    2   0.0035929  -0.0051858   0.0115362  -0.0237135   0.0050452  -0.0028586
    3  -0.0027505   0.0019493   0.0058557  -0.0207390   0.0002427   0.0240233
  --- DONE ESP SUMMARY ---
 Total job time:  9.50s(wall), 38.76s(cpu) 
 Tue Aug  6 14:38:49 2024

        *************************************************************
        *                                                           *
        *  Thank you very much for using Q-Chem.  Have a nice day.  *
        *                                                           *
        *************************************************************


