
Running Job 1 of 2 19nt_mm_min_distance_cutoff5_optimized_spade_wb97x-v_631gd.in
qchem 19nt_mm_min_distance_cutoff5_optimized_spade_wb97x-v_631gd.in_1268296.0 ./qchem1268296/ 1
srun -n 1 /cm/shared/apps/spack/0.17.3/cpu/b/opt/spack/linux-rocky8-zen2/gcc-10.2.0/qchem-6.0-rytxnwjazd34ekd2gqyi5ufsaimxsd3r/exe/qcprog.exe 19nt_mm_min_distance_cutoff5_optimized_spade_wb97x-v_631gd.in_1268296.0 ./qchem1268296/

                  Welcome to Q-Chem
     A Quantum Leap Into The Future Of Chemistry


 Q-Chem 6.0, Q-Chem, Inc., Pleasanton, CA (2022)

 License issued to: University of California, San Diego (site)

 E. Epifanovsky,  A. T. B. Gilbert,  Xintian Feng,  Joonho Lee,  Yuezhi Mao,  
 N. Mardirossian,  P. Pokhilko,  A. White,  M. Wormit,  M. P. Coons,  
 A. L. Dempwolff,  Zhengting Gan,  D. Hait,  P. R. Horn,  L. D. Jacobson,  
 I. Kaliman,  J. Kussmann,  A. W. Lange,  Ka Un Lao,  D. S. Levine,  Jie Liu,  
 S. C. McKenzie,  A. F. Morrison,  K. Nanda,  F. Plasser,  D. R. Rehn,  
 M. L. Vidal,  Zhi-Qiang You,  Ying Zhu,  B. Alam,  B. Albrecht,  
 A. Aldossary,  E. Alguire,  J. H. Andersen,  V. Athavale,  D. Barton,  
 K. Begam,  A. Behn,  N. Bellonzi,  Y. A. Bernard,  E. J. Berquist,  
 H. Burton,  A. Carreras,  K. Carter-Fenk,  Romit Chakraborty,  
 Chandrima Chakravarty,  Junhan Chen,  A. D. Chien,  K. D. Closser,  
 V. Cofer-Shabica,  L. Cunha,  S. Dasgupta,  Jia Deng,  M. de Wergifosse,  
 M. Diedenhofen,  Hainam Do,  S. Ehlert,  Po-Tung Fang,  S. Fatehi,  
 Qingguo Feng,  T. Friedhoff,  B. Ganoe,  J. Gayvert,  Qinghui Ge,  
 G. Gidofalvi,  M. Goldey,  J. Gomes,  C. Gonzalez-Espinoza,  S. Gulania,  
 A. Gunina,  J. A. Gyamfi,  M. W. D. Hanson-Heine,  P. H. P. Harbach,  
 A. W. Hauser,  M. F. Herbst,  M. Hernandez Vera,  M. Hodecker,  
 Z. C. Holden,  S. Houck,  Xunkun Huang,  Kerwin Hui,  B. C. Huynh,  
 K. Ikeda,  M. Ivanov,  Hyunjun Ji,  Zuxin Jin,  Hanjie Jiang,  B. Kaduk,  
 S. Kaehler,  R. Kang,  K. Khistyaev,  Jaehoon Kim,  Yongbin Kim,  
 P. Klunzinger,  Z. Koczor-Benda,  Joong Hoon Koh,  D. Kosenkov,  
 Saikiran Kotaru,  L. Koulias,  T. Kowalczyk,  C. M. Krauter,  K. Kue,  
 A. Kunitsa,  T. Kus,  A. Landau,  K. V. Lawler,  D. Lefrancois,  S. Lehtola,  
 Rain Li,  Shaozhi Li,  Yi-Pei Li,  Jiashu Liang,  M. Liebenthal,  
 Hung-Hsuan Lin,  You-Sheng Lin,  Fenglai Liu,  Kuan-Yu Liu,  
 M. Loipersberger,  A. Luenser,  C. Malbon,  A. Manjanath,  P. Manohar,  
 E. Mansoor,  S. F. Manzer,  Shan-Ping Mao,  A. V. Marenich,  T. Markovich,  
 S. Mason,  F. Matz,  S. A. Maurer,  P. F. McLaughlin,  M. F. S. J. Menger,  
 J.-M. Mewes,  S. A. Mewes,  P. Morgante,  Mohammad Mostafanejad,  
 J. W. Mullinax,  K. J. Oosterbaan,  G. Paran,  V. Parravicini,  
 Alexander C. Paul,  Suranjan K. Paul,  F. Pavosevic,  Zheng Pei,  S. Prager,  
 E. I. Proynov,  E. Ramos,  B. Rana,  A. E. Rask,  A. Rettig,  R. M. Richard,  
 F. Rob,  E. Rossomme,  T. Scheele,  M. Scheurer,  M. Schneider,  
 P. E. Schneider,  N. Sergueev,  S. M. Sharada,  Hengyuan Shen,  
 W. Skomorowski,  D. W. Small,  C. J. Stein,  Yingli Su,  Yu-Chuan Su,  
 E. J. Sundstrom,  Zhen Tao,  J. Thirman,  Hung-Yi Tsai,  T. Tsuchimochi,  
 N. M. Tubman,  C. Utku,  S. P. Veccham,  O. Vydrov,  J. Wenzel,  
 Jonathan Wong,  J. Witte,  A. Yamada,  Chou-Hsun Yang,  Kun Yao,  
 S. Yeganeh,  S. R. Yost,  A. Zech,  F. Zeller,  Igor Ying Zhang,  
 Xing Zhang,  Yu Zhang,  D. Zuev,  A. Aspuru-Guzik,  A. T. Bell,  
 N. A. Besley,  K. B. Bravaya,  B. R. Brooks,  D. Casanova,  Jeng-Da Chai,  
 Hsing-Ta Chen,  S. Coriani,  C. J. Cramer,  A. E. DePrince, III,  
 R. A. DiStasio Jr.,  A. Dreuw,  B. D. Dunietz,  T. R. Furlani,  
 W. A. Goddard III,  S. Grimme,  S. Hammes-Schiffer,  T. Head-Gordon,  
 W. J. Hehre,  Chao-Ping Hsu,  T.-C. Jagau,  Yousung Jung,  A. Klamt,  
 Jing Kong,  D. S. Lambrecht,  Xiangyuan Li,  WanZhen Liang,  N. J. Mayhall,  
 C. W. McCurdy,  J. B. Neaton,  T. Neudecker,  C. Ochsenfeld,  
 J. A. Parkhill,  R. Peverati,  V. A. Rassolov,  Haisheng Ren,  Yihan Shao,  
 L. V. Slipchenko,  R. P. Steele,  J. E. Subotnik,  A. J. W. Thom,  
 A. Tkatchenko,  D. G. Truhlar,  T. Van Voorhis,  Fan Wang,  
 T. A. Wesolowski,  K. B. Whaley,  H. L. Woodcock III,  P. M. Zimmerman,  
 S. Faraji,  P. M. W. Gill,  M. Head-Gordon,  J. M. Herbert,  A. I. Krylov

 Contributors to earlier versions of Q-Chem not listed above: 
 R. D. Adamson,  B. Austin,  R. Baer,  J. Baker,  G. J. O. Beran,  
 K. Brandhorst,  S. T. Brown,  E. F. C. Byrd,  Arup K. Chakraborty,  
 G. K. L. Chan,  Chun-Min Chang,  Yunqing Chen,  C.-L. Cheng,  
 Siu Hung Chien,  D. M. Chipman,  D. L. Crittenden,  H. Dachsel,  
 R. J. Doerksen,  A. D. Dutoi,  R. G. Edgar,  J. Fosso-Tande,  
 L. Fusti-Molnar,  D. Ghosh,  A. Ghysels,  A. Golubeva-Zadorozhnaya,  
 J. Gonthier,  M. S. Gordon,  S. R. Gwaltney,  G. Hawkins,  J. E. Herr,  
 A. Heyden,  S. Hirata,  E. G. Hohenstein,  G. Kedziora,  F. J. Keil,  
 C. Kelley,  Jihan Kim,  R. A. King,  R. Z. Khaliullin,  P. P. Korambath,  
 W. Kurlancheek,  A. Laurent,  A. M. Lee,  M. S. Lee,  S. V. Levchenko,  
 Ching Yeh Lin,  D. Liotard,  E. Livshits,  R. C. Lochan,  I. Lotan,  
 L. A. Martinez-Martinez,  P. E. Maslen,  N. Nair,  D. P. O'Neill,  
 D. Neuhauser,  E. Neuscamman,  C. M. Oana,  R. Olivares-Amaya,  R. Olson,  
 T. M. Perrine,  B. Peters,  P. A. Pieniazek,  A. Prociuk,  Y. M. Rhee,  
 J. Ritchie,  M. A. Rohrdanz,  E. Rosta,  N. J. Russ,  H. F. Schaefer III,  
 M. W. Schmidt,  N. E. Schultz,  S. Sharma,  N. Shenvi,  C. D. Sherrill,  
 A. C. Simmonett,  A. Sodt,  T. Stein,  D. Stuck,  K. S. Thanthiriwatte,  
 V. Vanovschi,  L. Vogt,  Tao Wang,  A. Warshel,  M. A. Watson,  
 C. F. Williams,  Q. Wu,  X. Xu,  Jun Yang,  W. Zhang,  Yan Zhao

   Please cite Q-Chem as follows:
  "Software for the frontiers of quantum chemistry:
   An overview of developments in the Q-Chem 5 package"
   J. Chem. Phys. 155, 084801 (2021)
   https://doi.org/10.1063/5.0055522 (open access)

 Q-Chem 6.0.2 for Intel X86 EM64T Linux

 Parts of Q-Chem use Armadillo 9.900.5 (Nocturnal Misbehaviour).
 http://arma.sourceforge.net/

 Q-Chem begins on Tue Aug  6 12:59:09 2024  

 Host: 
0

     Scratch files written to ./qchem1268296//
 Dec722 |scratch|qcdevops|jenkins|workspace|build_RNUM    
 Processing $rem in /cm/shared/apps/spack/0.17.3/cpu/b/opt/spack/linux-rocky8-zen2/gcc-10.2.0/qchem-6.0-rytxnwjazd34ekd2gqyi5ufsaimxsd3r/config/preferences:
 Processing $rem in /home/hklem/.qchemrc:
 No nuclear gradient supported for projection-based embedding or EMFT. Set max ideriv = 0.

 Checking the input file for inconsistencies... 	...done.

--------------------------------------------------------------
User input:
--------------------------------------------------------------
$molecule
-1 1
--
0 1
C    2.67600    -1.13300   1.24900
O    3.73500    -1.48800   1.80900
C    2.16600    0.19800    1.39500
C    0.90900    0.52400    0.99800
C    0.05200    -0.44200   0.21400
C    0.92100    -1.47700   -0.50500
C    1.88100    -2.14300   0.47000
C    0.29800    1.80300    1.47700
C    -0.68700   2.42700    0.49200
C    -1.70000   1.37300    0.05800
C    -0.96800   0.25300    -0.71100
C    -2.84400   1.91300    -0.78400
C    -3.85300   0.80700    -1.15500
C    -3.13900   -0.20700   -2.04700
C    -1.90900   -0.79400   -1.34200
C    -3.71900   3.02500    -0.20000
C    -5.00300   2.97500    -1.05900
C    -4.93800   1.64800    -1.85600
C    -4.44100   0.10400    0.08100
O    -6.22200   1.02400    -1.95700
H    2.76900    0.89300    1.97000
H    -0.55100   -0.95000   0.98800
H    1.48500    -0.98900   -1.31200
H    0.30200    -2.24800   -0.97400
H    1.31100    -2.73500   1.20000
H    2.57000    -2.83900   -0.02100
H    1.08400    2.50700    1.77100
H    -0.23800   1.53800    2.40400
H    -0.15400   2.82300    -0.38300
H    -1.18500   3.27400    0.97300
H    -2.12400   0.95500    0.97800
H    -0.41700   0.74300    -1.53100
H    -2.41700   2.28600    -1.73500
H    -2.82900   0.28900    -2.98100
H    -3.81300   -1.03300   -2.32200
H    -2.24700   -1.49100   -0.56500
H    -1.34800   -1.38800   -2.07200
H    -3.23900   4.00500    -0.21600
H    -3.94100   2.81200    0.84800
H    -5.06900   3.82700    -1.74300
H    -5.90000   2.99900    -0.43600
H    -4.59600   1.85900    -2.88100
H    -5.07300   0.76700    0.67500
H    -5.05300   -0.74600   -0.22500
H    -3.67300   -0.29300   0.74400
H    -6.26700   0.59800    -2.84400
--
-1 1
H    9.61600    -6.29400   -2.26100
C    8.74100    -5.96600   -1.68300
H    8.27000    -6.85500   -1.25800
C    9.19200    -5.02300   -0.55500
H    9.97900    -5.52900   0.01600
H    9.65300    -4.11700   -0.97000
C    8.05000    -4.65200   0.35600
C    7.73800    -5.41800   1.48000
H    8.36800    -6.26400   1.74500
C    6.63000    -5.12700   2.26500
H    6.38100    -5.73000   3.13100
C    5.80600    -4.05500   1.92500
O    4.70500    -3.82400   2.69700
H    4.24000    -3.02700   2.35000
C    6.10500    -3.27300   0.81100
H    5.46900    -2.43600   0.54500
C    7.21900    -3.58000   0.04200
H    7.43300    -2.98100   -0.83600
C    7.71500    -5.39800   -2.68100
O    6.70300    -6.02100   -2.96800
N    8.01100    -4.19600   -3.26300
H    8.90100    -3.76400   -3.06100
C    7.20800    -3.62600   -4.34300
H    6.19400    -4.01100   -4.21000
C    7.20800    -2.09200   -4.36700
H    8.24200    -1.75700   -4.54500
C    6.36400    -1.61700   -5.55500
H    6.35300    -0.52300   -5.60700
H    5.32700    -1.95700   -5.46500
H    6.75600    -2.00000   -6.50500
C    6.74900    -1.43900   -3.05000
H    7.51400    -1.60400   -2.28300
H    6.72100    -0.35200   -3.19700
C    5.39200    -1.90800   -2.52800
H    5.11400    -1.33300   -1.63900
H    5.40400    -2.96900   -2.25700
H    4.59900    -1.75500   -3.26900
H    7.56500    -4.00400   -5.31200
H    3.60700    -6.89300   -4.01700
C    2.80300    -6.15200   -3.96700
H    1.92500    -6.63500   -3.52000
C    3.24300    -4.94100   -3.13500
H    4.15800    -4.54600   -3.59600
C    2.19200    -3.82900   -3.15300
H    1.94700    -3.52000   -4.17600
H    1.26300    -4.16000   -2.67400
H    2.54700    -2.94400   -2.61200
C    3.59100    -5.35000   -1.70200
H    3.93800    -4.48900   -1.11700
H    4.39600    -6.09100   -1.69000
H    2.71700    -5.77300   -1.18800
H    2.54300    -5.85800   -4.99100
H    -0.48500   1.83800    8.50300
C    -0.64400   2.02000    7.43300
H    0.03100    2.82700    7.13600
C    -0.32100   0.74800    6.65100
H    -0.99700   -0.04800   6.98300
H    0.69700    0.40800    6.86700
C    -0.49500   0.84400    5.12700
O    -1.18700   1.80800    4.67000
O    0.02400    -0.07100   4.44700
C    -2.11100   2.40200    7.25800
O    -2.99200   1.55600    7.37600
N    -2.41500   3.70800    7.03400
C    -3.80900   4.10400    6.85400
H    -4.17800   3.77100    5.87600
H    -4.43300   3.63600    7.61900
C    -3.75800   5.62900    6.94400
H    -4.57900   6.10400    6.40100
H    -3.81200   5.94500    7.99300
C    -2.38500   5.97000    6.35300
H    -2.00300   6.94200    6.68000
H    -2.44400   5.98200    5.26100
C    -1.48500   4.81400    6.81200
H    -0.74500   4.56200    6.04700
H    -0.95200   5.06400    7.74000
H    -2.25200   -8.30300   2.89000
C    -2.69100   -7.30500   2.78500
H    -2.48500   -6.75200   3.70700
C    -2.10700   -6.57000   1.57800
H    -2.36000   -7.12400   0.66300
H    -2.56500   -5.57700   1.50100
C    -0.60900   -6.43300   1.69100
C    0.22900    -7.49800   1.34500
H    -0.20800   -8.40500   0.93100
C    1.60300    -7.42700   1.50900
H    2.25100    -8.25100   1.22900
C    2.18200    -6.27600   2.05400
O    3.51800    -6.27000   2.22600
H    3.81700    -5.38500   2.51300
C    1.35900    -5.20300   2.41000
H    1.79700    -4.31400   2.85800
C    -0.01900   -5.28500   2.22100
H    -0.64900   -4.44400   2.50400
H    -3.78000   -7.42500   2.69300
H    -7.19600   -7.30200   2.81400
C    -8.00200   -6.93800   2.16400
H    -8.40000   -7.79400   1.61000
C    -9.11100   -6.28800   2.99600
H    -9.91400   -5.97000   2.32300
H    -8.71900   -5.38200   3.47500
C    -9.66800   -7.24500   4.05800
H    -10.05100  -8.15300   3.58400
H    -8.87000   -7.53600   4.75400
C    -10.82900  -6.63000   4.82800
O    -11.98800  -6.95800   4.64900
N    -10.47400  -5.67000   5.73300
H    -9.53200   -5.32400   5.81100
H    -11.21000  -5.15100   6.18600
C    -7.47500   -5.92800   1.12400
O    -8.18300   -5.54700   0.20800
N    -6.18800   -5.44800   1.26600
H    -5.69100   -5.64000   2.12400
C    -5.75300   -4.27700   0.50000
H    -4.84700   -3.86100   0.95900
H    -6.53300   -3.51400   0.50600
C    -5.39300   -4.56500   -0.95800
O    -5.46900   -3.65200   -1.79800
N    -4.93100   -5.79000   -1.24500
H    -4.91300   -6.44600   -0.47500
C    -4.38500   -6.21700   -2.53600
H    -4.51200   -5.37700   -3.22100
C    -2.91800   -6.62900   -2.42800
H    -2.84700   -7.54000   -1.81700
H    -2.57600   -6.90900   -3.43400
C    -1.97400   -5.57000   -1.84400
H    -2.30900   -5.34800   -0.82400
C    -0.55600   -6.13700   -1.76800
H    0.10800    -5.47800   -1.19900
H    -0.53500   -7.11300   -1.27400
H    -0.13800   -6.25500   -2.77500
C    -1.99000   -4.26100   -2.63400
H    -1.77100   -4.43900   -3.69400
H    -2.95300   -3.74400   -2.55900
H    -1.22100   -3.58100   -2.25400
H    -4.98900   -7.04900   -2.91500
H    -3.94200   -4.15000   -7.85500
C    -3.54600   -3.18800   -7.50900
H    -4.25400   -2.40900   -7.81500
C    -3.36300   -3.18300   -5.99000
H    -2.67700   -4.00100   -5.73000
C    -2.73400   -1.87500   -5.50200
H    -1.77600   -1.67900   -5.99700
H    -3.39100   -1.02400   -5.71700
H    -2.55000   -1.90300   -4.42100
C    -4.69900   -3.44100   -5.29500
H    -5.44700   -2.70500   -5.61100
H    -5.09500   -4.43300   -5.54400
H    -4.60600   -3.37800   -4.20400
H    -2.59900   -3.00500   -8.02800
H    2.64300    -1.52300   -8.58900
C    2.88400    -1.05700   -7.62800
H    2.27800    -0.14900   -7.53500
C    2.62200    -2.01100   -6.46400
H    2.85800    -1.53900   -5.50400
H    3.22800    -2.92000   -6.54500
H    1.57100    -2.31600   -6.42900
H    3.93700    -0.75300   -7.65800
H    11.63100   4.11200    0.40700
C    11.30800   4.03400    -0.63700
H    12.12100   4.40400    -1.27000
C    10.94800   2.59100    -0.99500
H    11.83000   1.95100    -0.86500
H    10.66800   2.52800    -2.05400
C    9.80400    2.04400    -0.14100
H    8.88300    2.60900    -0.33000
H    10.04600   2.14600    0.92400
S    9.51600    0.28200    -0.50700
C    8.17100    -0.05300   0.66200
H    8.44400    0.27900    1.66700
H    7.24200    0.43000    0.34800
H    8.01200    -1.13200   0.69400
H    10.44800   4.70100    -0.77100
H    7.10900    4.89600    -4.00200
C    6.55900    4.46300    -4.84400
H    7.06000    4.76400    -5.77000
C    6.49300    2.93200    -4.72800
H    5.96800    2.52500    -5.60100
H    7.51200    2.52600    -4.76200
C    5.80900    2.45600    -3.46500
C    4.55900    1.83100    -3.50100
H    4.06900    1.67300    -4.46000
C    3.93400    1.40800    -2.32800
H    2.95900    0.93000    -2.37700
C    4.55000    1.60800    -1.09700
H    4.07300    1.29700    -0.17300
C    5.79100    2.24100    -1.04700
H    6.24800    2.43000    -0.08100
C    6.41600    2.65100    -2.22000
H    7.38800    3.13700    -2.17200
H    5.55300    4.89400    -4.83900
H    1.24900    2.36600    -6.36800
C    0.17300    2.17100    -6.26600
H    -0.11000   1.41400    -7.00600
C    -0.15400   1.70700    -4.84400
H    -1.23500   1.50800    -4.79600
C    0.57200    0.40100    -4.51200
H    1.66100    0.54500    -4.54500
H    0.32200    -0.38800   -5.23000
H    0.31200    0.03800    -3.51100
C    0.18000    2.79800    -3.82300
H    1.25900    3.00100    -3.80800
H    -0.11400   2.50600    -2.80800
H    -0.33400   3.73600    -4.06200
H    -0.36300   3.09300    -6.51600
H    -5.65700   1.45200    -9.20000
C    -6.14500   0.71800    -8.55000
H    -6.39200   -0.16000   -9.15600
C    -5.25100   0.32400    -7.37300
H    -4.32900   -0.13800   -7.74800
H    -5.76200   -0.42600   -6.76000
C    -4.88100   1.46900    -6.43000
H    -5.78200   1.99800    -6.10200
H    -4.39800   1.06500    -5.53400
S    -3.71900   2.64600    -7.20100
C    -3.34300   3.65900    -5.74600
H    -4.22700   4.19400    -5.38500
H    -2.93600   3.04700    -4.93400
H    -2.58700   4.39100    -6.04000
H    -7.08400   1.15700    -8.19400
H    -2.55100   6.79000    -5.59100
C    -1.70000   6.94600    -4.91900
H    -1.56200   8.02800    -4.81700
C    -1.94000   6.27300    -3.56900
H    -2.14900   5.20700    -3.72900
H    -2.84800   6.68800    -3.11300
C    -0.79600   6.39400    -2.55200
H    0.11100    5.96500    -3.00600
C    -0.49800   7.84800    -2.18000
H    -0.21400   8.45100    -3.04900
H    -1.37800   8.31400    -1.71600
H    0.32600    7.89800    -1.46000
C    -1.13400   5.58400    -1.30000
H    -1.30100   4.53000    -1.54600
H    -2.04300   5.96600    -0.81900
H    -0.33400   5.62900    -0.55500
H    -0.80400   6.54100    -5.40700
H    2.77000    6.47800    -1.95700
C    3.26200    6.45100    -0.97700
H    2.61200    6.97700    -0.26600
C    3.50600    5.01000    -0.52100
H    4.14800    4.52000    -1.26500
C    4.22900    4.97400    0.82800
H    4.40500    3.94600    1.16400
H    5.19700    5.48800    0.77500
H    3.62600    5.47900    1.59700
C    2.19500    4.23000    -0.44400
H    2.37800    3.17900    -0.19400
H    1.65300    4.25900    -1.39700
H    1.53600    4.64700    0.33100
H    4.20100    7.01200    -1.05200
H    7.69100    3.01900    2.07300
C    7.23700    3.15400    3.06200
H    6.37200    3.81000    2.94500
C    6.81700    1.81700    3.65600
H    7.66100    1.13000    3.76800
H    6.38900    1.95600    4.65800
C    5.73800    1.14500    2.84400
O    4.92800    1.75100    2.16700
O    5.75800    -0.17600   2.95200
H    4.96500    -0.54900   2.48300
H    7.97000    3.65100    3.70600
H    7.11800    -1.27300   9.45000
C    6.88500    -0.69300   8.55100
H    7.78900    -0.14500   8.25800
C    6.40600    -1.59900   7.41500
H    7.19300    -2.32600   7.17500
H    5.53200    -2.17700   7.73900
C    6.06300    -0.83400   6.13500
H    6.87900    -0.14400   5.88900
H    5.96400    -1.51000   5.28100
S    4.53500    0.16900    6.21100
C    3.35500    -0.97600   5.43600
H    3.21400    -1.87100   6.04900
H    3.70900    -1.26400   4.44300
H    2.39100    -0.47100   5.32100
H    6.11400    0.04100    8.81200
H    3.13900    4.55800    5.91500
C    3.35900    3.81800    5.13800
H    4.33800    3.37600    5.35900
C    2.28800    2.73300    5.08000
H    2.48300    2.01900    4.27300
H    1.28800    3.15000    4.92000
H    2.25300    2.16700    6.01700
H    3.44700    4.34600    4.18200
H    0.56800    8.60900    3.77300
C    0.29900    8.74300    2.72000
H    0.88700    9.57400    2.31400
C    0.55500    7.44800    1.93000
H    0.33000    7.63100    0.87000
H    1.62400    7.20100    1.97600
C    -0.24400   6.27200    2.41300
C    0.22100    5.14700    3.04800
H    1.24100    4.87700    3.29100
N    -0.81800   4.31500    3.38700
H    -0.76800   3.39600    3.83900
C    -1.98900   4.88700    2.96100
C    -3.30200   4.42400    3.08000
H    -3.51300   3.47200    3.55500
C    -4.31100   5.21300    2.55900
H    -5.33300   4.85400    2.62400
C    -4.02000   6.43800    1.92400
H    -4.83400   7.03200    1.51900
C    -2.71800   6.89600    1.81100
H    -2.50600   7.83900    1.31200
C    -1.67300   6.11900    2.34100
H    -0.75900   9.02100    2.68300
H    -3.93500   11.08800   -4.64300
C    -4.70900   10.36600   -4.36100
H    -4.88800   9.72100    -5.22800
C    -4.28300   9.56000    -3.13300
H    -3.99200   10.25500   -2.33400
H    -3.38300   8.97700    -3.37100
C    -5.36000   8.61300    -2.58200
H    -6.25400   9.21900    -2.36700
C    -5.76200   7.53500    -3.59400
H    -4.89300   6.93800    -3.89500
H    -6.50100   6.85100    -3.16100
H    -6.20100   7.96700    -4.50000
C    -4.90300   7.97700    -1.26600
H    -4.00500   7.36300    -1.40500
H    -4.66400   8.74100    -0.51600
H    -5.67900   7.32600    -0.84800
H    -5.63300   10.92400   -4.16300
O    -1.77800   -1.17200   2.68400
H    -2.42600   -0.43800   2.76000
H    -1.06000   -0.89600   3.30300
O    -7.12400   -1.53500   -1.17600
H    -6.40200   -2.18500   -1.32900
H    -6.73500   -0.65900   -1.38600
O    -2.75000   -3.25300   1.26100
H    -2.43300   -2.55700   1.88800
H    -2.00300   -3.38200   0.66600
O    -7.56300   1.50500    0.63100
H    -7.27000   1.39800    -0.28900
H    -7.51600   0.60700    1.01100
O    -7.36400   -1.20300   1.49000
H    -7.33100   -1.41600   0.52700
H    -8.24600   -1.45600   1.78500
O    -5.85300   -0.19500   3.80700
H    -6.09500   -0.67300   2.99800
H    -6.15200   0.71900    3.61900
O    -5.96100   2.35900    2.76300
H    -6.42400   2.23600    1.90900
H    -5.03000   2.12100    2.61400
O    -7.51100   -2.71600   -3.66400
H    -6.85900   -3.35900   -3.34300
H    -7.83600   -2.32700   -2.83100
O    -5.98900   -0.51200   -4.17500
H    -6.55800   -1.31800   -4.08900
H    -5.08600   -0.84300   -4.09300
O    -3.42300   0.97900    3.19600
H    -2.75700   1.30100    3.84500
H    -4.11900   0.47800    3.67700
$end

$rem
JOBTYPE  SP
METHOD  WB97X-V
BASIS  6-31G(D)
SYMMETRY  FALSE
SYM_IGNORE  TRUE
MEM_TOTAL  12000
MEM_STATIC  4000
BASIS_LIN_DEP_THRESH  6
THRESH  14
SCF_CONVERGENCE  8
FD_MAT_VEC_PROD  FALSE
XC_GRID  000075000302
NL_GRID  1
MAX_SCF_CYCLES  200
ENV_METHOD  WB97X-V
GEN_SCFMAN_EMBED  TRUE
SPADE_PARTITION  TRUE
EMBEDDING_EARLY_STOP  TRUE
$end

--------------------------------------------------------------
 ----------------------------------------------------------------
             Standard Nuclear Orientation (Angstroms)
    I     Atom           X                Y                Z
 ----------------------------------------------------------------
    1      C       2.6760000000    -1.1330000000     1.2490000000
    2      O       3.7350000000    -1.4880000000     1.8090000000
    3      C       2.1660000000     0.1980000000     1.3950000000
    4      C       0.9090000000     0.5240000000     0.9980000000
    5      C       0.0520000000    -0.4420000000     0.2140000000
    6      C       0.9210000000    -1.4770000000    -0.5050000000
    7      C       1.8810000000    -2.1430000000     0.4700000000
    8      C       0.2980000000     1.8030000000     1.4770000000
    9      C      -0.6870000000     2.4270000000     0.4920000000
   10      C      -1.7000000000     1.3730000000     0.0580000000
   11      C      -0.9680000000     0.2530000000    -0.7110000000
   12      C      -2.8440000000     1.9130000000    -0.7840000000
   13      C      -3.8530000000     0.8070000000    -1.1550000000
   14      C      -3.1390000000    -0.2070000000    -2.0470000000
   15      C      -1.9090000000    -0.7940000000    -1.3420000000
   16      C      -3.7190000000     3.0250000000    -0.2000000000
   17      C      -5.0030000000     2.9750000000    -1.0590000000
   18      C      -4.9380000000     1.6480000000    -1.8560000000
   19      C      -4.4410000000     0.1040000000     0.0810000000
   20      O      -6.2220000000     1.0240000000    -1.9570000000
   21      H       2.7690000000     0.8930000000     1.9700000000
   22      H      -0.5510000000    -0.9500000000     0.9880000000
   23      H       1.4850000000    -0.9890000000    -1.3120000000
   24      H       0.3020000000    -2.2480000000    -0.9740000000
   25      H       1.3110000000    -2.7350000000     1.2000000000
   26      H       2.5700000000    -2.8390000000    -0.0210000000
   27      H       1.0840000000     2.5070000000     1.7710000000
   28      H      -0.2380000000     1.5380000000     2.4040000000
   29      H      -0.1540000000     2.8230000000    -0.3830000000
   30      H      -1.1850000000     3.2740000000     0.9730000000
   31      H      -2.1240000000     0.9550000000     0.9780000000
   32      H      -0.4170000000     0.7430000000    -1.5310000000
   33      H      -2.4170000000     2.2860000000    -1.7350000000
   34      H      -2.8290000000     0.2890000000    -2.9810000000
   35      H      -3.8130000000    -1.0330000000    -2.3220000000
   36      H      -2.2470000000    -1.4910000000    -0.5650000000
   37      H      -1.3480000000    -1.3880000000    -2.0720000000
   38      H      -3.2390000000     4.0050000000    -0.2160000000
   39      H      -3.9410000000     2.8120000000     0.8480000000
   40      H      -5.0690000000     3.8270000000    -1.7430000000
   41      H      -5.9000000000     2.9990000000    -0.4360000000
   42      H      -4.5960000000     1.8590000000    -2.8810000000
   43      H      -5.0730000000     0.7670000000     0.6750000000
   44      H      -5.0530000000    -0.7460000000    -0.2250000000
   45      H      -3.6730000000    -0.2930000000     0.7440000000
   46      H      -6.2670000000     0.5980000000    -2.8440000000
   47      H       9.6160000000    -6.2940000000    -2.2610000000
   48      C       8.7410000000    -5.9660000000    -1.6830000000
   49      H       8.2700000000    -6.8550000000    -1.2580000000
   50      C       9.1920000000    -5.0230000000    -0.5550000000
   51      H       9.9790000000    -5.5290000000     0.0160000000
   52      H       9.6530000000    -4.1170000000    -0.9700000000
   53      C       8.0500000000    -4.6520000000     0.3560000000
   54      C       7.7380000000    -5.4180000000     1.4800000000
   55      H       8.3680000000    -6.2640000000     1.7450000000
   56      C       6.6300000000    -5.1270000000     2.2650000000
   57      H       6.3810000000    -5.7300000000     3.1310000000
   58      C       5.8060000000    -4.0550000000     1.9250000000
   59      O       4.7050000000    -3.8240000000     2.6970000000
   60      H       4.2400000000    -3.0270000000     2.3500000000
   61      C       6.1050000000    -3.2730000000     0.8110000000
   62      H       5.4690000000    -2.4360000000     0.5450000000
   63      C       7.2190000000    -3.5800000000     0.0420000000
   64      H       7.4330000000    -2.9810000000    -0.8360000000
   65      C       7.7150000000    -5.3980000000    -2.6810000000
   66      O       6.7030000000    -6.0210000000    -2.9680000000
   67      N       8.0110000000    -4.1960000000    -3.2630000000
   68      H       8.9010000000    -3.7640000000    -3.0610000000
   69      C       7.2080000000    -3.6260000000    -4.3430000000
   70      H       6.1940000000    -4.0110000000    -4.2100000000
   71      C       7.2080000000    -2.0920000000    -4.3670000000
   72      H       8.2420000000    -1.7570000000    -4.5450000000
   73      C       6.3640000000    -1.6170000000    -5.5550000000
   74      H       6.3530000000    -0.5230000000    -5.6070000000
   75      H       5.3270000000    -1.9570000000    -5.4650000000
   76      H       6.7560000000    -2.0000000000    -6.5050000000
   77      C       6.7490000000    -1.4390000000    -3.0500000000
   78      H       7.5140000000    -1.6040000000    -2.2830000000
   79      H       6.7210000000    -0.3520000000    -3.1970000000
   80      C       5.3920000000    -1.9080000000    -2.5280000000
   81      H       5.1140000000    -1.3330000000    -1.6390000000
   82      H       5.4040000000    -2.9690000000    -2.2570000000
   83      H       4.5990000000    -1.7550000000    -3.2690000000
   84      H       7.5650000000    -4.0040000000    -5.3120000000
   85      H       3.6070000000    -6.8930000000    -4.0170000000
   86      C       2.8030000000    -6.1520000000    -3.9670000000
   87      H       1.9250000000    -6.6350000000    -3.5200000000
   88      C       3.2430000000    -4.9410000000    -3.1350000000
   89      H       4.1580000000    -4.5460000000    -3.5960000000
   90      C       2.1920000000    -3.8290000000    -3.1530000000
   91      H       1.9470000000    -3.5200000000    -4.1760000000
   92      H       1.2630000000    -4.1600000000    -2.6740000000
   93      H       2.5470000000    -2.9440000000    -2.6120000000
   94      C       3.5910000000    -5.3500000000    -1.7020000000
   95      H       3.9380000000    -4.4890000000    -1.1170000000
   96      H       4.3960000000    -6.0910000000    -1.6900000000
   97      H       2.7170000000    -5.7730000000    -1.1880000000
   98      H       2.5430000000    -5.8580000000    -4.9910000000
   99      H      -0.4850000000     1.8380000000     8.5030000000
  100      C      -0.6440000000     2.0200000000     7.4330000000
  101      H       0.0310000000     2.8270000000     7.1360000000
  102      C      -0.3210000000     0.7480000000     6.6510000000
  103      H      -0.9970000000    -0.0480000000     6.9830000000
  104      H       0.6970000000     0.4080000000     6.8670000000
  105      C      -0.4950000000     0.8440000000     5.1270000000
  106      O      -1.1870000000     1.8080000000     4.6700000000
  107      O       0.0240000000    -0.0710000000     4.4470000000
  108      C      -2.1110000000     2.4020000000     7.2580000000
  109      O      -2.9920000000     1.5560000000     7.3760000000
  110      N      -2.4150000000     3.7080000000     7.0340000000
  111      C      -3.8090000000     4.1040000000     6.8540000000
  112      H      -4.1780000000     3.7710000000     5.8760000000
  113      H      -4.4330000000     3.6360000000     7.6190000000
  114      C      -3.7580000000     5.6290000000     6.9440000000
  115      H      -4.5790000000     6.1040000000     6.4010000000
  116      H      -3.8120000000     5.9450000000     7.9930000000
  117      C      -2.3850000000     5.9700000000     6.3530000000
  118      H      -2.0030000000     6.9420000000     6.6800000000
  119      H      -2.4440000000     5.9820000000     5.2610000000
  120      C      -1.4850000000     4.8140000000     6.8120000000
  121      H      -0.7450000000     4.5620000000     6.0470000000
  122      H      -0.9520000000     5.0640000000     7.7400000000
  123      H      -2.2520000000    -8.3030000000     2.8900000000
  124      C      -2.6910000000    -7.3050000000     2.7850000000
  125      H      -2.4850000000    -6.7520000000     3.7070000000
  126      C      -2.1070000000    -6.5700000000     1.5780000000
  127      H      -2.3600000000    -7.1240000000     0.6630000000
  128      H      -2.5650000000    -5.5770000000     1.5010000000
  129      C      -0.6090000000    -6.4330000000     1.6910000000
  130      C       0.2290000000    -7.4980000000     1.3450000000
  131      H      -0.2080000000    -8.4050000000     0.9310000000
  132      C       1.6030000000    -7.4270000000     1.5090000000
  133      H       2.2510000000    -8.2510000000     1.2290000000
  134      C       2.1820000000    -6.2760000000     2.0540000000
  135      O       3.5180000000    -6.2700000000     2.2260000000
  136      H       3.8170000000    -5.3850000000     2.5130000000
  137      C       1.3590000000    -5.2030000000     2.4100000000
  138      H       1.7970000000    -4.3140000000     2.8580000000
  139      C      -0.0190000000    -5.2850000000     2.2210000000
  140      H      -0.6490000000    -4.4440000000     2.5040000000
  141      H      -3.7800000000    -7.4250000000     2.6930000000
  142      H      -7.1960000000    -7.3020000000     2.8140000000
  143      C      -8.0020000000    -6.9380000000     2.1640000000
  144      H      -8.4000000000    -7.7940000000     1.6100000000
  145      C      -9.1110000000    -6.2880000000     2.9960000000
  146      H      -9.9140000000    -5.9700000000     2.3230000000
  147      H      -8.7190000000    -5.3820000000     3.4750000000
  148      C      -9.6680000000    -7.2450000000     4.0580000000
  149      H     -10.0510000000    -8.1530000000     3.5840000000
  150      H      -8.8700000000    -7.5360000000     4.7540000000
  151      C     -10.8290000000    -6.6300000000     4.8280000000
  152      O     -11.9880000000    -6.9580000000     4.6490000000
  153      N     -10.4740000000    -5.6700000000     5.7330000000
  154      H      -9.5320000000    -5.3240000000     5.8110000000
  155      H     -11.2100000000    -5.1510000000     6.1860000000
  156      C      -7.4750000000    -5.9280000000     1.1240000000
  157      O      -8.1830000000    -5.5470000000     0.2080000000
  158      N      -6.1880000000    -5.4480000000     1.2660000000
  159      H      -5.6910000000    -5.6400000000     2.1240000000
  160      C      -5.7530000000    -4.2770000000     0.5000000000
  161      H      -4.8470000000    -3.8610000000     0.9590000000
  162      H      -6.5330000000    -3.5140000000     0.5060000000
  163      C      -5.3930000000    -4.5650000000    -0.9580000000
  164      O      -5.4690000000    -3.6520000000    -1.7980000000
  165      N      -4.9310000000    -5.7900000000    -1.2450000000
  166      H      -4.9130000000    -6.4460000000    -0.4750000000
  167      C      -4.3850000000    -6.2170000000    -2.5360000000
  168      H      -4.5120000000    -5.3770000000    -3.2210000000
  169      C      -2.9180000000    -6.6290000000    -2.4280000000
  170      H      -2.8470000000    -7.5400000000    -1.8170000000
  171      H      -2.5760000000    -6.9090000000    -3.4340000000
  172      C      -1.9740000000    -5.5700000000    -1.8440000000
  173      H      -2.3090000000    -5.3480000000    -0.8240000000
  174      C      -0.5560000000    -6.1370000000    -1.7680000000
  175      H       0.1080000000    -5.4780000000    -1.1990000000
  176      H      -0.5350000000    -7.1130000000    -1.2740000000
  177      H      -0.1380000000    -6.2550000000    -2.7750000000
  178      C      -1.9900000000    -4.2610000000    -2.6340000000
  179      H      -1.7710000000    -4.4390000000    -3.6940000000
  180      H      -2.9530000000    -3.7440000000    -2.5590000000
  181      H      -1.2210000000    -3.5810000000    -2.2540000000
  182      H      -4.9890000000    -7.0490000000    -2.9150000000
  183      H      -3.9420000000    -4.1500000000    -7.8550000000
  184      C      -3.5460000000    -3.1880000000    -7.5090000000
  185      H      -4.2540000000    -2.4090000000    -7.8150000000
  186      C      -3.3630000000    -3.1830000000    -5.9900000000
  187      H      -2.6770000000    -4.0010000000    -5.7300000000
  188      C      -2.7340000000    -1.8750000000    -5.5020000000
  189      H      -1.7760000000    -1.6790000000    -5.9970000000
  190      H      -3.3910000000    -1.0240000000    -5.7170000000
  191      H      -2.5500000000    -1.9030000000    -4.4210000000
  192      C      -4.6990000000    -3.4410000000    -5.2950000000
  193      H      -5.4470000000    -2.7050000000    -5.6110000000
  194      H      -5.0950000000    -4.4330000000    -5.5440000000
  195      H      -4.6060000000    -3.3780000000    -4.2040000000
  196      H      -2.5990000000    -3.0050000000    -8.0280000000
  197      H       2.6430000000    -1.5230000000    -8.5890000000
  198      C       2.8840000000    -1.0570000000    -7.6280000000
  199      H       2.2780000000    -0.1490000000    -7.5350000000
  200      C       2.6220000000    -2.0110000000    -6.4640000000
  201      H       2.8580000000    -1.5390000000    -5.5040000000
  202      H       3.2280000000    -2.9200000000    -6.5450000000
  203      H       1.5710000000    -2.3160000000    -6.4290000000
  204      H       3.9370000000    -0.7530000000    -7.6580000000
  205      H      11.6310000000     4.1120000000     0.4070000000
  206      C      11.3080000000     4.0340000000    -0.6370000000
  207      H      12.1210000000     4.4040000000    -1.2700000000
  208      C      10.9480000000     2.5910000000    -0.9950000000
  209      H      11.8300000000     1.9510000000    -0.8650000000
  210      H      10.6680000000     2.5280000000    -2.0540000000
  211      C       9.8040000000     2.0440000000    -0.1410000000
  212      H       8.8830000000     2.6090000000    -0.3300000000
  213      H      10.0460000000     2.1460000000     0.9240000000
  214      S       9.5160000000     0.2820000000    -0.5070000000
  215      C       8.1710000000    -0.0530000000     0.6620000000
  216      H       8.4440000000     0.2790000000     1.6670000000
  217      H       7.2420000000     0.4300000000     0.3480000000
  218      H       8.0120000000    -1.1320000000     0.6940000000
  219      H      10.4480000000     4.7010000000    -0.7710000000
  220      H       7.1090000000     4.8960000000    -4.0020000000
  221      C       6.5590000000     4.4630000000    -4.8440000000
  222      H       7.0600000000     4.7640000000    -5.7700000000
  223      C       6.4930000000     2.9320000000    -4.7280000000
  224      H       5.9680000000     2.5250000000    -5.6010000000
  225      H       7.5120000000     2.5260000000    -4.7620000000
  226      C       5.8090000000     2.4560000000    -3.4650000000
  227      C       4.5590000000     1.8310000000    -3.5010000000
  228      H       4.0690000000     1.6730000000    -4.4600000000
  229      C       3.9340000000     1.4080000000    -2.3280000000
  230      H       2.9590000000     0.9300000000    -2.3770000000
  231      C       4.5500000000     1.6080000000    -1.0970000000
  232      H       4.0730000000     1.2970000000    -0.1730000000
  233      C       5.7910000000     2.2410000000    -1.0470000000
  234      H       6.2480000000     2.4300000000    -0.0810000000
  235      C       6.4160000000     2.6510000000    -2.2200000000
  236      H       7.3880000000     3.1370000000    -2.1720000000
  237      H       5.5530000000     4.8940000000    -4.8390000000
  238      H       1.2490000000     2.3660000000    -6.3680000000
  239      C       0.1730000000     2.1710000000    -6.2660000000
  240      H      -0.1100000000     1.4140000000    -7.0060000000
  241      C      -0.1540000000     1.7070000000    -4.8440000000
  242      H      -1.2350000000     1.5080000000    -4.7960000000
  243      C       0.5720000000     0.4010000000    -4.5120000000
  244      H       1.6610000000     0.5450000000    -4.5450000000
  245      H       0.3220000000    -0.3880000000    -5.2300000000
  246      H       0.3120000000     0.0380000000    -3.5110000000
  247      C       0.1800000000     2.7980000000    -3.8230000000
  248      H       1.2590000000     3.0010000000    -3.8080000000
  249      H      -0.1140000000     2.5060000000    -2.8080000000
  250      H      -0.3340000000     3.7360000000    -4.0620000000
  251      H      -0.3630000000     3.0930000000    -6.5160000000
  252      H      -5.6570000000     1.4520000000    -9.2000000000
  253      C      -6.1450000000     0.7180000000    -8.5500000000
  254      H      -6.3920000000    -0.1600000000    -9.1560000000
  255      C      -5.2510000000     0.3240000000    -7.3730000000
  256      H      -4.3290000000    -0.1380000000    -7.7480000000
  257      H      -5.7620000000    -0.4260000000    -6.7600000000
  258      C      -4.8810000000     1.4690000000    -6.4300000000
  259      H      -5.7820000000     1.9980000000    -6.1020000000
  260      H      -4.3980000000     1.0650000000    -5.5340000000
  261      S      -3.7190000000     2.6460000000    -7.2010000000
  262      C      -3.3430000000     3.6590000000    -5.7460000000
  263      H      -4.2270000000     4.1940000000    -5.3850000000
  264      H      -2.9360000000     3.0470000000    -4.9340000000
  265      H      -2.5870000000     4.3910000000    -6.0400000000
  266      H      -7.0840000000     1.1570000000    -8.1940000000
  267      H      -2.5510000000     6.7900000000    -5.5910000000
  268      C      -1.7000000000     6.9460000000    -4.9190000000
  269      H      -1.5620000000     8.0280000000    -4.8170000000
  270      C      -1.9400000000     6.2730000000    -3.5690000000
  271      H      -2.1490000000     5.2070000000    -3.7290000000
  272      H      -2.8480000000     6.6880000000    -3.1130000000
  273      C      -0.7960000000     6.3940000000    -2.5520000000
  274      H       0.1110000000     5.9650000000    -3.0060000000
  275      C      -0.4980000000     7.8480000000    -2.1800000000
  276      H      -0.2140000000     8.4510000000    -3.0490000000
  277      H      -1.3780000000     8.3140000000    -1.7160000000
  278      H       0.3260000000     7.8980000000    -1.4600000000
  279      C      -1.1340000000     5.5840000000    -1.3000000000
  280      H      -1.3010000000     4.5300000000    -1.5460000000
  281      H      -2.0430000000     5.9660000000    -0.8190000000
  282      H      -0.3340000000     5.6290000000    -0.5550000000
  283      H      -0.8040000000     6.5410000000    -5.4070000000
  284      H       2.7700000000     6.4780000000    -1.9570000000
  285      C       3.2620000000     6.4510000000    -0.9770000000
  286      H       2.6120000000     6.9770000000    -0.2660000000
  287      C       3.5060000000     5.0100000000    -0.5210000000
  288      H       4.1480000000     4.5200000000    -1.2650000000
  289      C       4.2290000000     4.9740000000     0.8280000000
  290      H       4.4050000000     3.9460000000     1.1640000000
  291      H       5.1970000000     5.4880000000     0.7750000000
  292      H       3.6260000000     5.4790000000     1.5970000000
  293      C       2.1950000000     4.2300000000    -0.4440000000
  294      H       2.3780000000     3.1790000000    -0.1940000000
  295      H       1.6530000000     4.2590000000    -1.3970000000
  296      H       1.5360000000     4.6470000000     0.3310000000
  297      H       4.2010000000     7.0120000000    -1.0520000000
  298      H       7.6910000000     3.0190000000     2.0730000000
  299      C       7.2370000000     3.1540000000     3.0620000000
  300      H       6.3720000000     3.8100000000     2.9450000000
  301      C       6.8170000000     1.8170000000     3.6560000000
  302      H       7.6610000000     1.1300000000     3.7680000000
  303      H       6.3890000000     1.9560000000     4.6580000000
  304      C       5.7380000000     1.1450000000     2.8440000000
  305      O       4.9280000000     1.7510000000     2.1670000000
  306      O       5.7580000000    -0.1760000000     2.9520000000
  307      H       4.9650000000    -0.5490000000     2.4830000000
  308      H       7.9700000000     3.6510000000     3.7060000000
  309      H       7.1180000000    -1.2730000000     9.4500000000
  310      C       6.8850000000    -0.6930000000     8.5510000000
  311      H       7.7890000000    -0.1450000000     8.2580000000
  312      C       6.4060000000    -1.5990000000     7.4150000000
  313      H       7.1930000000    -2.3260000000     7.1750000000
  314      H       5.5320000000    -2.1770000000     7.7390000000
  315      C       6.0630000000    -0.8340000000     6.1350000000
  316      H       6.8790000000    -0.1440000000     5.8890000000
  317      H       5.9640000000    -1.5100000000     5.2810000000
  318      S       4.5350000000     0.1690000000     6.2110000000
  319      C       3.3550000000    -0.9760000000     5.4360000000
  320      H       3.2140000000    -1.8710000000     6.0490000000
  321      H       3.7090000000    -1.2640000000     4.4430000000
  322      H       2.3910000000    -0.4710000000     5.3210000000
  323      H       6.1140000000     0.0410000000     8.8120000000
  324      H       3.1390000000     4.5580000000     5.9150000000
  325      C       3.3590000000     3.8180000000     5.1380000000
  326      H       4.3380000000     3.3760000000     5.3590000000
  327      C       2.2880000000     2.7330000000     5.0800000000
  328      H       2.4830000000     2.0190000000     4.2730000000
  329      H       1.2880000000     3.1500000000     4.9200000000
  330      H       2.2530000000     2.1670000000     6.0170000000
  331      H       3.4470000000     4.3460000000     4.1820000000
  332      H       0.5680000000     8.6090000000     3.7730000000
  333      C       0.2990000000     8.7430000000     2.7200000000
  334      H       0.8870000000     9.5740000000     2.3140000000
  335      C       0.5550000000     7.4480000000     1.9300000000
  336      H       0.3300000000     7.6310000000     0.8700000000
  337      H       1.6240000000     7.2010000000     1.9760000000
  338      C      -0.2440000000     6.2720000000     2.4130000000
  339      C       0.2210000000     5.1470000000     3.0480000000
  340      H       1.2410000000     4.8770000000     3.2910000000
  341      N      -0.8180000000     4.3150000000     3.3870000000
  342      H      -0.7680000000     3.3960000000     3.8390000000
  343      C      -1.9890000000     4.8870000000     2.9610000000
  344      C      -3.3020000000     4.4240000000     3.0800000000
  345      H      -3.5130000000     3.4720000000     3.5550000000
  346      C      -4.3110000000     5.2130000000     2.5590000000
  347      H      -5.3330000000     4.8540000000     2.6240000000
  348      C      -4.0200000000     6.4380000000     1.9240000000
  349      H      -4.8340000000     7.0320000000     1.5190000000
  350      C      -2.7180000000     6.8960000000     1.8110000000
  351      H      -2.5060000000     7.8390000000     1.3120000000
  352      C      -1.6730000000     6.1190000000     2.3410000000
  353      H      -0.7590000000     9.0210000000     2.6830000000
  354      H      -3.9350000000    11.0880000000    -4.6430000000
  355      C      -4.7090000000    10.3660000000    -4.3610000000
  356      H      -4.8880000000     9.7210000000    -5.2280000000
  357      C      -4.2830000000     9.5600000000    -3.1330000000
  358      H      -3.9920000000    10.2550000000    -2.3340000000
  359      H      -3.3830000000     8.9770000000    -3.3710000000
  360      C      -5.3600000000     8.6130000000    -2.5820000000
  361      H      -6.2540000000     9.2190000000    -2.3670000000
  362      C      -5.7620000000     7.5350000000    -3.5940000000
  363      H      -4.8930000000     6.9380000000    -3.8950000000
  364      H      -6.5010000000     6.8510000000    -3.1610000000
  365      H      -6.2010000000     7.9670000000    -4.5000000000
  366      C      -4.9030000000     7.9770000000    -1.2660000000
  367      H      -4.0050000000     7.3630000000    -1.4050000000
  368      H      -4.6640000000     8.7410000000    -0.5160000000
  369      H      -5.6790000000     7.3260000000    -0.8480000000
  370      H      -5.6330000000    10.9240000000    -4.1630000000
  371      O      -1.7780000000    -1.1720000000     2.6840000000
  372      H      -2.4260000000    -0.4380000000     2.7600000000
  373      H      -1.0600000000    -0.8960000000     3.3030000000
  374      O      -7.1240000000    -1.5350000000    -1.1760000000
  375      H      -6.4020000000    -2.1850000000    -1.3290000000
  376      H      -6.7350000000    -0.6590000000    -1.3860000000
  377      O      -2.7500000000    -3.2530000000     1.2610000000
  378      H      -2.4330000000    -2.5570000000     1.8880000000
  379      H      -2.0030000000    -3.3820000000     0.6660000000
  380      O      -7.5630000000     1.5050000000     0.6310000000
  381      H      -7.2700000000     1.3980000000    -0.2890000000
  382      H      -7.5160000000     0.6070000000     1.0110000000
  383      O      -7.3640000000    -1.2030000000     1.4900000000
  384      H      -7.3310000000    -1.4160000000     0.5270000000
  385      H      -8.2460000000    -1.4560000000     1.7850000000
  386      O      -5.8530000000    -0.1950000000     3.8070000000
  387      H      -6.0950000000    -0.6730000000     2.9980000000
  388      H      -6.1520000000     0.7190000000     3.6190000000
  389      O      -5.9610000000     2.3590000000     2.7630000000
  390      H      -6.4240000000     2.2360000000     1.9090000000
  391      H      -5.0300000000     2.1210000000     2.6140000000
  392      O      -7.5110000000    -2.7160000000    -3.6640000000
  393      H      -6.8590000000    -3.3590000000    -3.3430000000
  394      H      -7.8360000000    -2.3270000000    -2.8310000000
  395      O      -5.9890000000    -0.5120000000    -4.1750000000
  396      H      -6.5580000000    -1.3180000000    -4.0890000000
  397      H      -5.0860000000    -0.8430000000    -4.0930000000
  398      O      -3.4230000000     0.9790000000     3.1960000000
  399      H      -2.7570000000     1.3010000000     3.8450000000
  400      H      -4.1190000000     0.4780000000     3.6770000000
 ----------------------------------------------------------------
 Nuclear Repulsion Energy =       51310.76244724 hartrees
 There are      629 alpha and      629 beta electrons
 Requested basis set is 6-31G(d)
 There are 1113 shells and 2827 basis functions

 Total QAlloc Memory Limit  12000 MB
 Mega-Array Size      3911 MB
 MEM_STATIC part      4000 MB

 A cutoff of  1.0D-14 yielded 142425 shell pairs
 There are    870669 function pairs
 Smallest overlap matrix eigenvalue = 3.40E-04

 Scale SEOQF with 1.000000e-02/1.000000e-02/1.000000e-02

 Standard Electronic Orientation quadrupole field applied
 Nucleus-field energy     =     0.0000000891 hartrees
 Guess from superposition of atomic densities
 Warning:  Energy on first SCF cycle will be non-variational
 SAD guess density has 1257.000004 electrons

 -----------------------------------------------------------------------
  General SCF calculation program by
  Eric Jon Sundstrom, Paul Horn, Yuezhi Mao, Dmitri Zuev, Alec White,
  David Stuck, Shaama M.S., Shane Yost, Joonho Lee, David Small,
  Daniel Levine, Susi Lehtola, Hugh Burton, Evgeny Epifanovsky,
  Bang C. Huynh
 -----------------------------------------------------------------------
=================================================
        Doing projection-based embedding         
      F. Manby et al. JCTC, 8, 2564 (2012)       
=================================================

****************************************************
   Low-level SCF calculation for the whole system   
****************************************************
----------------------------------------------
 Summary of the low-level theory: 
 Exchange:     0.1670 Hartree-Fock + 1.0000 wB97X-V + LR-HF
 Correlation:  1.0000 wB97X-V
 Using Euler-Maclaurin-Lebedev (75,302) quadrature formula
 Nonlocal Correlation:  VV10 with C = 0.0100 and b = 6.00 and scale = 1.00000
 Grid used for NLC:  SG-1 standard quadrature
----------------------------------------------
 using 8 threads for integral computing
 -------------------------------------------------------
 OpenMP Integral computing Module                
 Release: version 1.0, May 2013, Q-Chem Inc. Pittsburgh 
 -------------------------------------------------------
 A restricted SCF calculation will be
 performed using DIIS
 SCF converges when DIIS error is below 1.0e-08
 ---------------------------------------
  Cycle       Energy         DIIS error
 ---------------------------------------
    1   -8126.1446060249      1.44e-02  
    2   -8084.4282332051      1.43e-03  
    3   -8084.7650028180      1.46e-03  
    4   -8086.2421457330      2.41e-04  
    5   -8086.2823981148      1.06e-04  
    6   -8086.2911451901      2.27e-05  
    7   -8086.2916088852      7.06e-06  
    8   -8086.2916646027      2.72e-06  
    9   -8086.2916739679      1.24e-06  
   10   -8086.2916763883      4.82e-07  
   11   -8086.2916767427      1.95e-07  
   12   -8086.2916768301      6.41e-08  
   13   -8086.2916768407      2.87e-08  
   14   -8086.2916768434      1.51e-08  
   15   -8086.2916768439      6.06e-09  Convergence criterion met
 ---------------------------------------
 SCF time:   CPU 105914.59s  wall 13489.00s 
 SCF   energy in the final basis set =    -8086.2916768439
 Total energy in the final basis set =    -8086.2916768439

****************************************************
             Start embedding calculation            
****************************************************
----------------------------------------------
 Summary of the high-level theory: 
 Exchange:     0.1670 Hartree-Fock + 1.0000 wB97X-V + LR-HF
 Correlation:  1.0000 wB97X-V
 Using Euler-Maclaurin-Lebedev (75,302) quadrature formula
 Nonlocal Correlation:  VV10 with C = 0.0100 and b = 6.00 and scale = 1.00000
 Grid used for NLC:  SG-1 standard quadrature
----------------------------------------------
Doing R-in-R Embedding Calculation
Number of fragments: 2
Embedded fragment(s): 1 
NOcc for each fragment
           75
          554
NBasis for each fragment
          352
         2475
Variational space of the embedded problem: 
NOcc (active)  = 75
NOcc (fixed)   = 554
NVir (total)   = 2198
Read converged orbitals from disk
=========================================================
       Doing SPADE partition for the orbital space       
     D. Claudino and N. Mayhall JCTC 15, 1053 (2019)     
=========================================================
SPADE singular values:
 1.0000 1.0000 1.0000 1.0000 1.0000 1.0000 1.0000 1.0000 1.0000 1.0000
 1.0000 1.0000 1.0000 1.0000 1.0000 1.0000 1.0000 1.0000 1.0000 1.0000
 1.0000 1.0000 1.0000 1.0000 1.0000 1.0000 1.0000 1.0000 1.0000 1.0000
 1.0000 1.0000 1.0000 1.0000 1.0000 1.0000 1.0000 1.0000 0.9999 0.9999
 0.9999 0.9999 0.9998 0.9998 0.9998 0.9997 0.9996 0.9996 0.9995 0.9994
 0.9994 0.9993 0.9993 0.9992 0.9991 0.9990 0.9989 0.9988 0.9987 0.9985
 0.9984 0.9983 0.9981 0.9980 0.9975 0.9973 0.9972 0.9967 0.9966 0.9957
 0.9936 0.9901 0.9756 0.9745 0.9725 0.2199 0.1669 0.1256 0.1203 0.1099
 0.1005 0.0935 0.0909 0.0871 0.0798 0.0785 0.0759 0.0721 0.0692 0.0677
 0.0656 0.0636 0.0623 0.0622 0.0604 0.0547 0.0544 0.0481 0.0449 0.0434
 0.0416 0.0409 0.0384 0.0377 0.0345 0.0330 0.0322 0.0304 0.0295 0.0279
 0.0263 0.0253 0.0237 0.0215 0.0211 0.0205 0.0190 0.0184 0.0172 0.0166
 0.0166 0.0154 0.0152 0.0129 0.0123 0.0116 0.0111 0.0109 0.0102 0.0097
 0.0088 0.0086 0.0083 0.0075 0.0073 0.0070 0.0064 0.0063 0.0057 0.0055
 0.0053 0.0051 0.0050 0.0048 0.0045 0.0043 0.0041 0.0041 0.0039 0.0037
 0.0036 0.0034 0.0033 0.0032 0.0031 0.0029 0.0029 0.0028 0.0025 0.0025
 0.0024 0.0024 0.0022 0.0021 0.0020 0.0019 0.0019 0.0018 0.0018 0.0017
 0.0016 0.0016 0.0015 0.0015 0.0014 0.0013 0.0013 0.0012 0.0012 0.0012
 0.0011 0.0011 0.0011 0.0010 0.0010 0.0010 0.0010 0.0009 0.0009 0.0009
 0.0008 0.0008 0.0008 0.0008 0.0007 0.0007 0.0007 0.0007 0.0007 0.0006
 0.0006 0.0006 0.0006 0.0006 0.0006 0.0005 0.0005 0.0005 0.0005 0.0005
 0.0005 0.0005 0.0004 0.0004 0.0004 0.0004 0.0004 0.0004 0.0004 0.0004
 0.0004 0.0004 0.0004 0.0003 0.0003 0.0003 0.0003 0.0003 0.0003 0.0003
 0.0003 0.0003 0.0003 0.0003 0.0003 0.0002 0.0002 0.0002 0.0002 0.0002
 0.0002 0.0002 0.0002 0.0002 0.0002 0.0002 0.0002 0.0002 0.0002 0.0002
 0.0002 0.0002 0.0002 0.0002 0.0002 0.0001 0.0001 0.0001 0.0001 0.0001
 0.0001 0.0001 0.0001 0.0001 0.0001 0.0001 0.0001 0.0001 0.0001 0.0001
 0.0001 0.0001 0.0001 0.0001 0.0001 0.0001 0.0001 0.0001 0.0001 0.0001
 0.0001 0.0001 0.0001 0.0001 0.0001 0.0001 0.0001 0.0001 0.0001 0.0001
 0.0001 0.0001 0.0000 0.0000 0.0000 0.0000 0.0000 0.0000 0.0000 0.0000
 0.0000 0.0000 0.0000 0.0000 0.0000 0.0000 0.0000 0.0000 0.0000 0.0000
 0.0000 0.0000 0.0000 0.0000 0.0000 0.0000 0.0000 0.0000 0.0000 0.0000
 0.0000 0.0000 0.0000 0.0000 0.0000 0.0000 0.0000 0.0000 0.0000 0.0000
 0.0000 0.0000 0.0000 0.0000 0.0000 0.0000 0.0000 0.0000 0.0000 0.0000
 0.0000 0.0000 0.0000 0.0000 0.0000 0.0000 0.0000 0.0000 0.0000 0.0000
 0.0000 0.0000
Early stop requested; no embedded SCF will be performed

 554 environment occs will be part of frozen-core in future post-HF calculations
 
 --------------------------------------------------------------
 
                    Orbital Energies (a.u.)
 --------------------------------------------------------------
 
 Alpha MOs
 -- Occupied --
-88.8150 -88.8107 -88.7963 -19.2032 -19.2015 -19.1907 -19.1872 -19.1858
-19.1844 -19.1795 -19.1788 -19.1687 -19.1592 -19.1575 -19.1551 -19.1486
-19.1416 -19.1408 -19.1347 -19.1293 -19.1270 -19.0966 -19.0927 -19.0905
-14.4283 -14.4274 -14.4092 -14.3994 -14.3744 -14.3574 -10.3654 -10.3566
-10.3527 -10.3472 -10.3311 -10.2875 -10.2865 -10.2848 -10.2841 -10.2836
-10.2794 -10.2672 -10.2641 -10.2639 -10.2619 -10.2572 -10.2529 -10.2524
-10.2461 -10.2458 -10.2455 -10.2448 -10.2427 -10.2411 -10.2406 -10.2401
-10.2396 -10.2392 -10.2388 -10.2368 -10.2353 -10.2349 -10.2331 -10.2325
-10.2324 -10.2322 -10.2319 -10.2315 -10.2313 -10.2298 -10.2295 -10.2292
-10.2290 -10.2288 -10.2271 -10.2271 -10.2263 -10.2262 -10.2251 -10.2250
-10.2245 -10.2244 -10.2241 -10.2240 -10.2238 -10.2237 -10.2234 -10.2234
-10.2233 -10.2233 -10.2230 -10.2229 -10.2222 -10.2214 -10.2213 -10.2213
-10.2211 -10.2199 -10.2194 -10.2192 -10.2186 -10.2176 -10.2174 -10.2165
-10.2162 -10.2161 -10.2158 -10.2150 -10.2148 -10.2147 -10.2130 -10.2107
-10.2105 -10.2100 -10.2087 -10.2065 -10.2063 -10.2061 -10.2054 -10.2044
-10.2037 -10.2022 -10.1988 -10.1988 -10.1986 -10.1975 -10.1972 -10.1963
-10.1954 -10.1946 -10.1945 -10.1928 -10.1921 -10.1918 -10.1882  -7.9815
 -7.9773  -7.9620  -5.9395  -5.9354  -5.9352  -5.9311  -5.9280  -5.9237
 -5.9200  -5.9158  -5.9088  -1.1685  -1.1453  -1.1353  -1.1308  -1.1229
 -1.1113  -1.1082  -1.1006  -1.0910  -1.0814  -1.0732  -1.0728  -1.0724
 -1.0637  -1.0573  -1.0526  -1.0458  -1.0334  -1.0332  -1.0275  -1.0234
 -1.0203  -1.0140  -0.9976  -0.9949  -0.9817  -0.9760  -0.9398  -0.9387
 -0.9288  -0.9121  -0.9056  -0.9036  -0.8955  -0.8949  -0.8930  -0.8925
 -0.8922  -0.8860  -0.8840  -0.8813  -0.8750  -0.8700  -0.8691  -0.8653
 -0.8613  -0.8601  -0.8600  -0.8511  -0.8492  -0.8440  -0.8411  -0.8392
 -0.8292  -0.8249  -0.8248  -0.8209  -0.8192  -0.8164  -0.8134  -0.8125
 -0.8104  -0.8077  -0.8046  -0.8045  -0.8007  -0.8002  -0.7873  -0.7858
 -0.7810  -0.7746  -0.7684  -0.7673  -0.7658  -0.7645  -0.7631  -0.7621
 -0.7585  -0.7564  -0.7563  -0.7529  -0.7478  -0.7474  -0.7416  -0.7390
 -0.7379  -0.7357  -0.7306  -0.7229  -0.7156  -0.7105  -0.7093  -0.7082
 -0.7025  -0.6987  -0.6943  -0.6937  -0.6927  -0.6904  -0.6879  -0.6862
 -0.6820  -0.6797  -0.6779  -0.6723  -0.6678  -0.6664  -0.6646  -0.6638
 -0.6593  -0.6581  -0.6548  -0.6446  -0.6440  -0.6433  -0.6403  -0.6391
 -0.6387  -0.6348  -0.6325  -0.6285  -0.6278  -0.6264  -0.6245  -0.6231
 -0.6189  -0.6145  -0.6131  -0.6096  -0.6025  -0.6016  -0.6012  -0.5963
 -0.5953  -0.5928  -0.5912  -0.5853  -0.5811  -0.5804  -0.5753  -0.5744
 -0.5706  -0.5661  -0.5654  -0.5638  -0.5571  -0.5558  -0.5516  -0.5503
 -0.5476  -0.5464  -0.5458  -0.5451  -0.5431  -0.5406  -0.5392  -0.5373
 -0.5355  -0.5346  -0.5333  -0.5328  -0.5317  -0.5312  -0.5277  -0.5277
 -0.5264  -0.5251  -0.5232  -0.5222  -0.5211  -0.5201  -0.5199  -0.5177
 -0.5172  -0.5146  -0.5144  -0.5139  -0.5133  -0.5114  -0.5088  -0.5079
 -0.5064  -0.5062  -0.5052  -0.5049  -0.5032  -0.5028  -0.5016  -0.5007
 -0.5000  -0.4996  -0.4965  -0.4961  -0.4956  -0.4935  -0.4932  -0.4923
 -0.4897  -0.4895  -0.4867  -0.4863  -0.4852  -0.4847  -0.4845  -0.4841
 -0.4827  -0.4823  -0.4812  -0.4796  -0.4792  -0.4775  -0.4774  -0.4767
 -0.4765  -0.4756  -0.4738  -0.4736  -0.4735  -0.4730  -0.4722  -0.4709
 -0.4700  -0.4698  -0.4695  -0.4679  -0.4677  -0.4664  -0.4656  -0.4652
 -0.4641  -0.4637  -0.4621  -0.4618  -0.4613  -0.4609  -0.4604  -0.4593
 -0.4588  -0.4580  -0.4558  -0.4551  -0.4536  -0.4536  -0.4528  -0.4516
 -0.4515  -0.4504  -0.4497  -0.4492  -0.4477  -0.4464  -0.4455  -0.4450
 -0.4448  -0.4417  -0.4413  -0.4401  -0.4392  -0.4377  -0.4376  -0.4373
 -0.4367  -0.4363  -0.4357  -0.4351  -0.4347  -0.4332  -0.4312  -0.4306
 -0.4291  -0.4279  -0.4268  -0.4266  -0.4264  -0.4260  -0.4238  -0.4233
 -0.4225  -0.4222  -0.4220  -0.4214  -0.4210  -0.4195  -0.4179  -0.4162
 -0.4161  -0.4149  -0.4142  -0.4138  -0.4133  -0.4132  -0.4117  -0.4110
 -0.4098  -0.4093  -0.4085  -0.4064  -0.4060  -0.4046  -0.4045  -0.4030
 -0.4014  -0.4013  -0.4013  -0.4002  -0.3994  -0.3993  -0.3991  -0.3986
 -0.3975  -0.3971  -0.3951  -0.3937  -0.3930  -0.3928  -0.3924  -0.3918
 -0.3896  -0.3886  -0.3885  -0.3878  -0.3867  -0.3861  -0.3859  -0.3839
 -0.3832  -0.3826  -0.3821  -0.3815  -0.3809  -0.3797  -0.3794  -0.3792
 -0.3777  -0.3769  -0.3764  -0.3756  -0.3734  -0.3730  -0.3725  -0.3710
 -0.3703  -0.3698  -0.3698  -0.3695  -0.3682  -0.3681  -0.3680  -0.3662
 -0.3656  -0.3652  -0.3649  -0.3644  -0.3641  -0.3626  -0.3617  -0.3611
 -0.3588  -0.3587  -0.3577  -0.3571  -0.3558  -0.3558  -0.3555  -0.3540
 -0.3530  -0.3525  -0.3515  -0.3509  -0.3502  -0.3477  -0.3473  -0.3463
 -0.3447  -0.3412  -0.3363  -0.3333  -0.3294  -0.3274  -0.3272  -0.3263
 -0.3242  -0.3207  -0.3189  -0.3185  -0.3143  -0.3084  -0.3075  -0.2996
 -0.2926  -0.2890  -0.2867  -0.2858  -0.2828  -0.2760  -0.2692  -0.2653
 -0.2620  -0.2582  -0.2524  -0.2502  -0.2486  -0.2473  -0.2384  -0.2355
 -0.2266  -0.2046 -10.1402 -10.3963 -10.1138 -10.0019 -10.3045 -10.0934
-10.0177  -9.9861  -9.9982 -10.0500 -10.0365 -10.0485  -9.8927  -9.8402
 -9.8872  -9.9015  -9.8003  -9.4791 -14.3235  -2.3059  -2.8500  -7.8683
 -9.4492  -1.0329  -1.3068  -1.0954  -0.9554  -0.8720  -1.6087  -0.9026
 -1.1847  -1.2350  -1.0197  -0.7995  -1.4147  -0.7834  -0.9146  -0.9643
 -0.6173  -0.4951  -0.7541  -0.9193  -0.5296  -0.5107  -1.8804  -0.5399
 -0.5526  -0.5346  -0.5332  -0.4581  -0.5021  -0.5235  -0.5177  -0.5570
 -0.4722  -0.4928  -0.4859  -0.4898  -0.4506  -0.4689  -0.4257  -0.4403
 -0.4195  -0.4264  -0.4370  -0.4429  -0.4488  -0.4374  -0.4160  -0.3830
 -0.3543  -0.4289  -0.3751  -0.5019  -0.6424
 -- Virtual --
  0.0788   0.1319   0.1334   0.1356   0.1381   0.1398   0.1412   0.1468
  0.1470   0.1533   0.1536   0.1656   0.1672   0.1682   0.1708   0.1712
  0.1736   0.1755   0.1762   0.1866   0.1881   0.1891   0.1930   0.1950
  0.1960   0.1972   0.1986   0.1998   0.2025   0.2049   0.2071   0.2085
  0.2100   0.2117   0.2141   0.2149   0.2186   0.2188   0.2194   0.2223
  0.2232   0.2253   0.2259   0.2271   0.2279   0.2297   0.2311   0.2328
  0.2333   0.2345   0.2355   0.2367   0.2388   0.2398   0.2404   0.2412
  0.2423   0.2433   0.2440   0.2451   0.2460   0.2462   0.2491   0.2495
  0.2510   0.2516   0.2528   0.2551   0.2557   0.2568   0.2576   0.2585
  0.2597   0.2603   0.2612   0.2626   0.2639   0.2645   0.2659   0.2666
  0.2676   0.2684   0.2706   0.2712   0.2716   0.2722   0.2724   0.2734
  0.2745   0.2753   0.2755   0.2764   0.2784   0.2786   0.2797   0.2809
  0.2816   0.2828   0.2831   0.2839   0.2845   0.2848   0.2857   0.2870
  0.2890   0.2897   0.2902   0.2907   0.2909   0.2913   0.2921   0.2930
  0.2942   0.2947   0.2953   0.2954   0.2961   0.2967   0.2973   0.2977
  0.2989   0.2995   0.3001   0.3002   0.3011   0.3015   0.3022   0.3030
  0.3032   0.3047   0.3047   0.3062   0.3069   0.3082   0.3086   0.3098
  0.3103   0.3105   0.3125   0.3131   0.3137   0.3145   0.3147   0.3152
  0.3162   0.3164   0.3167   0.3175   0.3177   0.3185   0.3189   0.3198
  0.3211   0.3215   0.3222   0.3228   0.3233   0.3241   0.3244   0.3258
  0.3265   0.3273   0.3278   0.3284   0.3287   0.3289   0.3297   0.3301
  0.3307   0.3310   0.3326   0.3329   0.3335   0.3338   0.3349   0.3354
  0.3357   0.3367   0.3377   0.3380   0.3382   0.3398   0.3402   0.3407
  0.3421   0.3422   0.3428   0.3436   0.3443   0.3451   0.3458   0.3466
  0.3472   0.3477   0.3488   0.3500   0.3504   0.3517   0.3518   0.3530
  0.3532   0.3543   0.3544   0.3557   0.3565   0.3573   0.3576   0.3590
  0.3599   0.3605   0.3619   0.3632   0.3633   0.3648   0.3656   0.3660
  0.3673   0.3681   0.3685   0.3694   0.3701   0.3706   0.3712   0.3719
  0.3726   0.3731   0.3733   0.3744   0.3752   0.3755   0.3763   0.3773
  0.3778   0.3779   0.3794   0.3798   0.3806   0.3816   0.3824   0.3831
  0.3842   0.3846   0.3851   0.3862   0.3869   0.3878   0.3885   0.3894
  0.3897   0.3910   0.3915   0.3919   0.3933   0.3936   0.3944   0.3957
  0.3965   0.3976   0.3979   0.3987   0.3995   0.4003   0.4008   0.4015
  0.4022   0.4029   0.4039   0.4045   0.4051   0.4060   0.4063   0.4072
  0.4081   0.4089   0.4095   0.4103   0.4114   0.4121   0.4126   0.4138
  0.4143   0.4151   0.4155   0.4169   0.4177   0.4184   0.4196   0.4203
  0.4216   0.4230   0.4234   0.4241   0.4255   0.4257   0.4265   0.4282
  0.4289   0.4300   0.4307   0.4311   0.4319   0.4322   0.4346   0.4349
  0.4362   0.4371   0.4377   0.4383   0.4396   0.4397   0.4425   0.4433
  0.4437   0.4450   0.4455   0.4459   0.4466   0.4474   0.4491   0.4495
  0.4506   0.4513   0.4524   0.4542   0.4550   0.4559   0.4563   0.4571
  0.4583   0.4597   0.4603   0.4625   0.4641   0.4641   0.4661   0.4671
  0.4681   0.4685   0.4702   0.4711   0.4730   0.4743   0.4759   0.4781
  0.4782   0.4796   0.4817   0.4820   0.4840   0.4844   0.4850   0.4863
  0.4899   0.4906   0.4923   0.4943   0.4948   0.4961   0.4986   0.4998
  0.5002   0.5024   0.5043   0.5065   0.5101   0.5111   0.5114   0.5138
  0.5148   0.5152   0.5195   0.5224   0.5247   0.5252   0.5292   0.5315
  0.5327   0.5342   0.5414   0.5429   0.5436   0.5467   0.5488   0.5494
  0.5529   0.5542   0.5549   0.5578   0.5625   0.5633   0.5675   0.5694
  0.5706   0.5729   0.5750   0.5786   0.5798   0.5820   0.5903   0.5987
  0.6023   0.6041   0.6109   0.6112   0.6174   0.6205   0.6260   0.6268
  0.6307   0.6316   0.6329   0.6346   0.6367   0.6381   0.6393   0.6420
  0.6445   0.6464   0.6477   0.6497   0.6511   0.6535   0.6537   0.6552
  0.6567   0.6579   0.6587   0.6599   0.6614   0.6625   0.6644   0.6654
  0.6659   0.6673   0.6682   0.6688   0.6709   0.6714   0.6744   0.6752
  0.6759   0.6768   0.6773   0.6787   0.6790   0.6794   0.6809   0.6817
  0.6832   0.6840   0.6844   0.6855   0.6868   0.6879   0.6889   0.6896
  0.6906   0.6915   0.6935   0.6941   0.6948   0.6951   0.6969   0.6980
  0.6993   0.7004   0.7015   0.7029   0.7044   0.7059   0.7066   0.7068
  0.7080   0.7092   0.7099   0.7103   0.7123   0.7137   0.7142   0.7144
  0.7174   0.7183   0.7194   0.7210   0.7221   0.7229   0.7244   0.7248
  0.7256   0.7269   0.7275   0.7289   0.7302   0.7307   0.7321   0.7338
  0.7355   0.7358   0.7368   0.7375   0.7379   0.7398   0.7408   0.7414
  0.7423   0.7437   0.7442   0.7448   0.7455   0.7480   0.7489   0.7498
  0.7504   0.7516   0.7522   0.7549   0.7570   0.7582   0.7594   0.7599
  0.7601   0.7621   0.7629   0.7649   0.7651   0.7662   0.7672   0.7688
  0.7704   0.7713   0.7718   0.7732   0.7742   0.7745   0.7752   0.7765
  0.7768   0.7780   0.7797   0.7803   0.7813   0.7820   0.7828   0.7840
  0.7855   0.7869   0.7877   0.7888   0.7909   0.7918   0.7934   0.7938
  0.7956   0.7975   0.7990   0.7998   0.8004   0.8017   0.8043   0.8053
  0.8054   0.8059   0.8077   0.8080   0.8089   0.8098   0.8101   0.8113
  0.8120   0.8134   0.8143   0.8158   0.8165   0.8172   0.8185   0.8188
  0.8196   0.8211   0.8220   0.8229   0.8234   0.8248   0.8261   0.8265
  0.8293   0.8298   0.8303   0.8307   0.8321   0.8326   0.8334   0.8345
  0.8371   0.8372   0.8388   0.8392   0.8406   0.8419   0.8430   0.8435
  0.8439   0.8453   0.8463   0.8467   0.8480   0.8491   0.8504   0.8510
  0.8517   0.8530   0.8545   0.8548   0.8551   0.8566   0.8571   0.8590
  0.8596   0.8604   0.8616   0.8626   0.8632   0.8651   0.8662   0.8667
  0.8669   0.8696   0.8698   0.8703   0.8710   0.8715   0.8735   0.8753
  0.8767   0.8782   0.8798   0.8803   0.8818   0.8836   0.8839   0.8853
  0.8865   0.8873   0.8896   0.8904   0.8917   0.8925   0.8946   0.8957
  0.8972   0.8986   0.8996   0.9001   0.9018   0.9025   0.9049   0.9059
  0.9077   0.9084   0.9094   0.9103   0.9115   0.9121   0.9131   0.9133
  0.9148   0.9168   0.9173   0.9185   0.9192   0.9198   0.9220   0.9229
  0.9241   0.9247   0.9249   0.9255   0.9268   0.9269   0.9300   0.9312
  0.9330   0.9351   0.9356   0.9368   0.9382   0.9386   0.9396   0.9405
  0.9406   0.9419   0.9431   0.9449   0.9475   0.9487   0.9508   0.9524
  0.9535   0.9539   0.9554   0.9569   0.9587   0.9602   0.9610   0.9612
  0.9633   0.9637   0.9655   0.9662   0.9666   0.9688   0.9703   0.9711
  0.9717   0.9733   0.9750   0.9754   0.9776   0.9780   0.9792   0.9804
  0.9819   0.9840   0.9851   0.9864   0.9878   0.9880   0.9886   0.9896
  0.9924   0.9936   0.9954   0.9957   0.9968   0.9982   0.9994   1.0007
  1.0018   1.0030   1.0042   1.0048   1.0059   1.0064   1.0078   1.0081
  1.0094   1.0103   1.0109   1.0116   1.0126   1.0145   1.0159   1.0164
  1.0171   1.0181   1.0184   1.0194   1.0194   1.0204   1.0219   1.0225
  1.0235   1.0263   1.0267   1.0274   1.0287   1.0289   1.0296   1.0309
  1.0318   1.0322   1.0323   1.0329   1.0337   1.0349   1.0354   1.0365
  1.0378   1.0384   1.0397   1.0405   1.0417   1.0418   1.0424   1.0433
  1.0439   1.0443   1.0459   1.0466   1.0473   1.0478   1.0485   1.0493
  1.0499   1.0506   1.0520   1.0524   1.0539   1.0544   1.0548   1.0563
  1.0568   1.0574   1.0581   1.0586   1.0598   1.0600   1.0608   1.0614
  1.0621   1.0630   1.0635   1.0641   1.0643   1.0657   1.0663   1.0666
  1.0679   1.0685   1.0695   1.0698   1.0706   1.0714   1.0717   1.0728
  1.0736   1.0739   1.0755   1.0759   1.0760   1.0763   1.0772   1.0778
  1.0783   1.0792   1.0806   1.0816   1.0817   1.0822   1.0826   1.0845
  1.0851   1.0855   1.0867   1.0872   1.0875   1.0884   1.0894   1.0897
  1.0901   1.0909   1.0919   1.0931   1.0940   1.0948   1.0951   1.0957
  1.0963   1.0971   1.0977   1.0979   1.0994   1.1002   1.1007   1.1011
  1.1018   1.1022   1.1029   1.1041   1.1044   1.1050   1.1057   1.1070
  1.1083   1.1088   1.1098   1.1110   1.1114   1.1124   1.1129   1.1136
  1.1141   1.1148   1.1155   1.1170   1.1185   1.1190   1.1198   1.1205
  1.1211   1.1216   1.1225   1.1237   1.1239   1.1248   1.1253   1.1268
  1.1268   1.1281   1.1282   1.1301   1.1304   1.1310   1.1316   1.1324
  1.1332   1.1347   1.1354   1.1363   1.1375   1.1384   1.1394   1.1405
  1.1415   1.1428   1.1431   1.1445   1.1451   1.1458   1.1472   1.1477
  1.1493   1.1510   1.1521   1.1525   1.1534   1.1543   1.1549   1.1558
  1.1567   1.1571   1.1583   1.1595   1.1607   1.1615   1.1628   1.1647
  1.1667   1.1676   1.1689   1.1697   1.1715   1.1718   1.1727   1.1740
  1.1753   1.1767   1.1771   1.1787   1.1797   1.1805   1.1809   1.1815
  1.1824   1.1842   1.1851   1.1858   1.1868   1.1898   1.1908   1.1916
  1.1919   1.1926   1.1952   1.1956   1.1966   1.1972   1.1998   1.2005
  1.2014   1.2029   1.2037   1.2050   1.2057   1.2065   1.2075   1.2085
  1.2113   1.2122   1.2130   1.2145   1.2154   1.2167   1.2176   1.2205
  1.2213   1.2223   1.2245   1.2253   1.2262   1.2279   1.2282   1.2301
  1.2308   1.2314   1.2328   1.2340   1.2356   1.2373   1.2381   1.2391
  1.2411   1.2422   1.2434   1.2446   1.2454   1.2462   1.2484   1.2505
  1.2518   1.2534   1.2543   1.2562   1.2572   1.2574   1.2591   1.2611
  1.2622   1.2635   1.2663   1.2667   1.2676   1.2694   1.2726   1.2732
  1.2740   1.2749   1.2772   1.2787   1.2795   1.2807   1.2829   1.2848
  1.2855   1.2864   1.2884   1.2890   1.2912   1.2918   1.2950   1.2960
  1.2975   1.3019   1.3025   1.3032   1.3049   1.3071   1.3076   1.3087
  1.3098   1.3112   1.3124   1.3141   1.3162   1.3169   1.3186   1.3205
  1.3206   1.3230   1.3235   1.3258   1.3263   1.3291   1.3305   1.3317
  1.3320   1.3350   1.3360   1.3381   1.3386   1.3403   1.3424   1.3433
  1.3449   1.3465   1.3488   1.3510   1.3544   1.3547   1.3560   1.3571
  1.3591   1.3596   1.3630   1.3641   1.3658   1.3667   1.3684   1.3696
  1.3708   1.3732   1.3737   1.3757   1.3769   1.3799   1.3824   1.3832
  1.3844   1.3873   1.3881   1.3904   1.3911   1.3930   1.3937   1.3950
  1.3981   1.3996   1.4022   1.4036   1.4047   1.4050   1.4074   1.4103
  1.4124   1.4143   1.4163   1.4195   1.4196   1.4221   1.4231   1.4248
  1.4261   1.4279   1.4283   1.4307   1.4336   1.4350   1.4382   1.4391
  1.4402   1.4422   1.4436   1.4440   1.4486   1.4500   1.4550   1.4560
  1.4569   1.4622   1.4641   1.4653   1.4676   1.4689   1.4698   1.4752
  1.4756   1.4778   1.4792   1.4822   1.4864   1.4872   1.4882   1.4915
  1.4924   1.4963   1.4977   1.4981   1.4986   1.5054   1.5066   1.5107
  1.5128   1.5152   1.5165   1.5202   1.5222   1.5241   1.5250   1.5263
  1.5271   1.5298   1.5331   1.5344   1.5362   1.5371   1.5402   1.5419
  1.5437   1.5465   1.5486   1.5495   1.5498   1.5511   1.5548   1.5567
  1.5586   1.5593   1.5622   1.5642   1.5650   1.5681   1.5689   1.5724
  1.5754   1.5765   1.5783   1.5794   1.5815   1.5842   1.5866   1.5880
  1.5889   1.5891   1.5905   1.5923   1.5932   1.5974   1.5982   1.5998
  1.6020   1.6044   1.6052   1.6061   1.6081   1.6089   1.6094   1.6111
  1.6133   1.6140   1.6147   1.6162   1.6180   1.6185   1.6220   1.6220
  1.6237   1.6243   1.6255   1.6258   1.6273   1.6281   1.6296   1.6308
  1.6317   1.6336   1.6348   1.6355   1.6368   1.6385   1.6398   1.6415
  1.6430   1.6441   1.6455   1.6475   1.6488   1.6502   1.6505   1.6535
  1.6540   1.6556   1.6586   1.6586   1.6611   1.6621   1.6630   1.6635
  1.6652   1.6664   1.6706   1.6726   1.6730   1.6744   1.6763   1.6794
  1.6807   1.6815   1.6821   1.6830   1.6840   1.6873   1.6885   1.6902
  1.6932   1.6954   1.6961   1.6968   1.6981   1.6997   1.7006   1.7016
  1.7030   1.7047   1.7060   1.7117   1.7150   1.7156   1.7195   1.7209
  1.7227   1.7251   1.7258   1.7297   1.7335   1.7348   1.7361   1.7409
  1.7444   1.7457   1.7494   1.7561   1.7586   1.7608   1.7654   1.7694
  1.7719   1.7797   1.7819   1.7824   1.7837   1.7859   1.7903   1.7908
  1.7934   1.7962   1.7991   1.8018   1.8024   1.8052   1.8072   1.8123
  1.8144   1.8191   1.8216   1.8259   1.8283   1.8290   1.8312   1.8318
  1.8356   1.8419   1.8440   1.8445   1.8458   1.8507   1.8542   1.8562
  1.8577   1.8607   1.8627   1.8641   1.8667   1.8679   1.8698   1.8721
  1.8727   1.8745   1.8753   1.8776   1.8782   1.8804   1.8824   1.8825
  1.8835   1.8846   1.8859   1.8873   1.8877   1.8898   1.8901   1.8911
  1.8920   1.8939   1.8954   1.8959   1.8973   1.8994   1.9018   1.9024
  1.9040   1.9063   1.9082   1.9090   1.9094   1.9112   1.9119   1.9146
  1.9170   1.9180   1.9194   1.9220   1.9244   1.9252   1.9257   1.9277
  1.9302   1.9311   1.9313   1.9347   1.9359   1.9368   1.9374   1.9391
  1.9413   1.9435   1.9442   1.9449   1.9460   1.9468   1.9484   1.9504
  1.9509   1.9533   1.9548   1.9562   1.9584   1.9588   1.9609   1.9619
  1.9645   1.9650   1.9663   1.9682   1.9693   1.9696   1.9725   1.9730
  1.9752   1.9763   1.9787   1.9801   1.9811   1.9824   1.9829   1.9839
  1.9850   1.9862   1.9872   1.9876   1.9887   1.9910   1.9916   1.9933
  1.9947   1.9956   1.9964   1.9988   2.0000   2.0004   2.0010   2.0022
  2.0042   2.0053   2.0066   2.0094   2.0098   2.0134   2.0138   2.0145
  2.0167   2.0170   2.0198   2.0222   2.0232   2.0265   2.0276   2.0288
  2.0304   2.0310   2.0344   2.0367   2.0386   2.0398   2.0410   2.0417
  2.0454   2.0466   2.0478   2.0502   2.0510   2.0516   2.0532   2.0550
  2.0566   2.0578   2.0595   2.0607   2.0618   2.0646   2.0655   2.0669
  2.0683   2.0718   2.0733   2.0753   2.0757   2.0770   2.0781   2.0803
  2.0814   2.0831   2.0838   2.0860   2.0869   2.0886   2.0888   2.0889
  2.0901   2.0927   2.0938   2.0953   2.0970   2.0985   2.0989   2.1004
  2.1018   2.1038   2.1049   2.1060   2.1065   2.1082   2.1093   2.1104
  2.1124   2.1130   2.1140   2.1150   2.1163   2.1169   2.1179   2.1186
  2.1199   2.1209   2.1244   2.1257   2.1271   2.1286   2.1301   2.1311
  2.1317   2.1337   2.1338   2.1353   2.1358   2.1367   2.1380   2.1398
  2.1419   2.1427   2.1432   2.1454   2.1473   2.1481   2.1494   2.1504
  2.1517   2.1534   2.1553   2.1569   2.1584   2.1590   2.1598   2.1602
  2.1612   2.1616   2.1639   2.1644   2.1660   2.1664   2.1683   2.1704
  2.1719   2.1745   2.1748   2.1766   2.1782   2.1791   2.1797   2.1807
  2.1824   2.1830   2.1858   2.1867   2.1882   2.1902   2.1908   2.1919
  2.1923   2.1927   2.1940   2.1960   2.1966   2.1985   2.1997   2.2023
  2.2027   2.2038   2.2045   2.2080   2.2088   2.2099   2.2112   2.2123
  2.2135   2.2153   2.2163   2.2165   2.2178   2.2194   2.2215   2.2225
  2.2237   2.2258   2.2269   2.2272   2.2278   2.2297   2.2308   2.2343
  2.2361   2.2403   2.2419   2.2444   2.2461   2.2477   2.2511   2.2523
  2.2587   2.2606   2.2611   2.2624   2.2635   2.2672   2.2681   2.2709
  2.2742   2.2755   2.2781   2.2787   2.2793   2.2806   2.2814   2.2835
  2.2857   2.2867   2.2887   2.2895   2.2905   2.2923   2.2928   2.2948
  2.2971   2.3002   2.3016   2.3047   2.3057   2.3091   2.3101   2.3111
  2.3124   2.3139   2.3178   2.3195   2.3214   2.3221   2.3228   2.3262
  2.3268   2.3275   2.3287   2.3301   2.3316   2.3355   2.3374   2.3400
  2.3410   2.3412   2.3427   2.3436   2.3472   2.3513   2.3521   2.3545
  2.3564   2.3599   2.3612   2.3622   2.3648   2.3664   2.3687   2.3717
  2.3739   2.3749   2.3774   2.3803   2.3833   2.3866   2.3909   2.3949
  2.3991   2.4000   2.4015   2.4022   2.4040   2.4064   2.4084   2.4111
  2.4139   2.4144   2.4164   2.4200   2.4216   2.4238   2.4242   2.4245
  2.4251   2.4265   2.4270   2.4276   2.4288   2.4291   2.4291   2.4308
  2.4315   2.4324   2.4332   2.4339   2.4354   2.4367   2.4373   2.4381
  2.4406   2.4415   2.4431   2.4443   2.4460   2.4476   2.4480   2.4485
  2.4491   2.4503   2.4509   2.4533   2.4552   2.4563   2.4570   2.4578
  2.4582   2.4590   2.4595   2.4613   2.4617   2.4623   2.4639   2.4642
  2.4670   2.4677   2.4685   2.4688   2.4712   2.4720   2.4728   2.4737
  2.4742   2.4751   2.4767   2.4787   2.4794   2.4808   2.4814   2.4842
  2.4869   2.4880   2.4923   2.4927   2.4942   2.4967   2.4987   2.4995
  2.4999   2.5009   2.5018   2.5020   2.5071   2.5099   2.5100   2.5114
  2.5119   2.5148   2.5170   2.5182   2.5192   2.5198   2.5205   2.5212
  2.5226   2.5233   2.5246   2.5255   2.5279   2.5332   2.5336   2.5379
  2.5383   2.5391   2.5392   2.5393   2.5405   2.5409   2.5416   2.5447
  2.5465   2.5480   2.5518   2.5544   2.5570   2.5586   2.5601   2.5606
  2.5621   2.5638   2.5644   2.5713   2.5728   2.5743   2.5765   2.5774
  2.5837   2.5858   2.5875   2.5898   2.5900   2.5948   2.5973   2.5990
  2.6064   2.6069   2.6078   2.6115   2.6156   2.6170   2.6185   2.6221
  2.6231   2.6244   2.6294   2.6326   2.6408   2.6412   2.6460   2.6473
  2.6522   2.6561   2.6577   2.6606   2.6619   2.6628   2.6690   2.6697
  2.6741   2.6767   2.6809   2.6840   2.6842   2.6854   2.6861   2.6864
  2.6879   2.6888   2.6897   2.6903   2.6918   2.6929   2.6937   2.6957
  2.6974   2.6985   2.6993   2.7003   2.7013   2.7050   2.7074   2.7096
  2.7104   2.7112   2.7157   2.7193   2.7208   2.7291   2.7318   2.7344
  2.7368   2.7409   2.7421   2.7448   2.7501   2.7523   2.7529   2.7592
  2.7601   2.7611   2.7623   2.7655   2.7668   2.7676   2.7722   2.7765
  2.7792   2.7825   2.7833   2.7878   2.7912   2.7917   2.7922   2.7954
  2.7991   2.8007   2.8067   2.8073   2.8091   2.8130   2.8137   2.8150
  2.8155   2.8196   2.8204   2.8250   2.8280   2.8296   2.8307   2.8343
  2.8345   2.8379   2.8381   2.8396   2.8415   2.8444   2.8459   2.8477
  2.8494   2.8507   2.8531   2.8558   2.8577   2.8617   2.8623   2.8642
  2.8682   2.8700   2.8719   2.8730   2.8736   2.8757   2.8780   2.8801
  2.8811   2.8827   2.8845   2.8886   2.8889   2.8940   2.8945   2.8959
  2.9000   2.9012   2.9020   2.9036   2.9048   2.9066   2.9104   2.9134
  2.9144   2.9175   2.9232   2.9249   2.9269   2.9310   2.9326   2.9337
  2.9362   2.9382   2.9397   2.9409   2.9411   2.9436   2.9441   2.9457
  2.9510   2.9538   2.9609   2.9627   2.9648   2.9700   2.9722   2.9724
  2.9812   2.9862   2.9909   2.9936   3.0021   3.0057   3.0132   3.0233
  3.0536   3.0550   3.0620   3.0776   3.0815   3.0842   3.0845   3.0871
  3.0882   3.0910   3.0970   3.1007   3.1019   3.1088   3.1176   3.1361
  3.1396   3.1405   3.1441   3.1701   3.1775   3.1802   3.1881   3.1965
  3.1998   3.2042   3.2194   3.2281   3.2305   3.2343   3.2384   3.2473
  3.2482   3.2683   3.2748   3.2760   3.2884   3.2937   3.3146   3.3149
  3.3201   3.3224   3.3502   3.3754   3.3857   3.4233   3.4651   3.5901
  3.6083   3.6152   3.6585   3.9540   3.9604   3.9637   4.0304   4.0635
  4.1080   4.1259   4.1274   4.1337   4.1363   4.1527   4.1617   4.1814
  4.1851   4.2021   4.2071   4.2340   4.2398   4.2458   4.2468   4.2696
  4.2765   4.2835   4.2880   4.3085   4.3112   4.3178   4.3194   4.3241
  4.3250   4.3282   4.3328   4.3351   4.3392   4.3398   4.3419   4.3453
  4.3471   4.3484   4.3497   4.3580   4.3618   4.3647   4.3658   4.3696
  4.3707   4.3830   4.3872   4.3908   4.3938   4.4001   4.4008   4.4027
  4.4078   4.4105   4.4154   4.4163   4.4220   4.4293   4.4352   4.4375
  4.4419   4.4449   4.4518   4.4543   4.4576   4.4696   4.4713   4.4726
[...]
    1   0.0143658   0.0183662  -0.0071092  -0.0196449  -0.0062061  -0.0004418
    2   0.0016072   0.0123509   0.0161583   0.0069859   0.0004075   0.0046313
    3   0.0112629  -0.0389587   0.0028796   0.0240503   0.0024916   0.0031146
           25          26          27          28          29          30
    1  -0.0140481  -0.0126270  -0.0093479  -0.0082711  -0.0021291  -0.0017062
    2   0.0010705  -0.0036947  -0.0022341  -0.0077191   0.0011160  -0.0003614
    3  -0.0020874  -0.0086289   0.0028503   0.0135267   0.0097175   0.0081057
           31          32          33          34          35          36
    1   0.0001270  -0.0035769  -0.0002093   0.0025695   0.0065785  -0.0030800
    2  -0.0014308   0.0003171   0.0000415   0.0025725   0.0005949   0.0053279
    3   0.0137351   0.0094395   0.0072954   0.0053644   0.0098123   0.0113164
           37          38          39          40          41          42
    1  -0.0017290   0.0024162   0.0102985   0.0040765   0.0073276  -0.0023250
    2   0.0039412   0.0009944   0.0041358   0.0010588   0.0088955  -0.0015631
    3   0.0058439   0.0098431   0.0052417   0.0040786   0.0079289  -0.0009457
           43          44          45          46          47          48
    1   0.0149577   0.0211892   0.0105607   0.0120724   0.0268805  -0.0022769
    2   0.0014601  -0.0009955   0.0031618  -0.0166452  -0.0134306  -0.0028873
    3   0.0086672   0.0141364   0.0086080  -0.0602169  -0.0174303   0.0019884
           49          50          51          52          53          54
    1  -0.0170272   0.0008903   0.0256783   0.0167509  -0.0044267  -0.0032370
    2  -0.0284760  -0.0001310  -0.0144634   0.0280146  -0.0013385   0.0042305
    3   0.0103498   0.0013842   0.0174867  -0.0095928   0.0010835  -0.0037583
           55          56          57          58          59          60
    1   0.0221618   0.0050778  -0.0080264   0.0320632  -0.0247779  -0.0136589
    2  -0.0307364  -0.0026382  -0.0253569  -0.0170238  -0.0665326  -0.0072585
    3   0.0090217  -0.0056160   0.0309401  -0.0192525   0.0946261   0.0033087
           61          62          63          64          65          66
    1   0.0123198  -0.0099766   0.0033521   0.0080707  -0.0026614  -0.0902181
    2  -0.0116535   0.0224049  -0.0064199   0.0182732  -0.0115327  -0.0611908
    3  -0.0080130  -0.0272699   0.0008039  -0.0354266   0.0039586  -0.0251182
           67          68          69          70          71          72
    1  -0.0108318   0.0386684  -0.0147091  -0.0316678  -0.0018966   0.0310544
    2   0.0005017   0.0194550   0.0075435  -0.0154992   0.0017122   0.0127558
    3   0.0056443   0.0083505  -0.0138125   0.0032567   0.0019503  -0.0061483
           73          74          75          76          77          78
    1  -0.0005670  -0.0016340  -0.0329154   0.0104749   0.0003866   0.0240452
    2  -0.0003371   0.0337884  -0.0089281  -0.0103106   0.0025828  -0.0007018
    3   0.0015029  -0.0021487   0.0013287  -0.0293982  -0.0028506   0.0208183
           79          80          81          82          83          84
    1  -0.0010520  -0.0008941  -0.0112537  -0.0022634  -0.0271450   0.0098907
    2   0.0349820  -0.0005988   0.0198674  -0.0337277   0.0050999  -0.0141408
    3  -0.0033722  -0.0029874   0.0204250   0.0055213  -0.0231136  -0.0297251
           85          86          87          88          89          90
    1   0.0249872   0.0009717  -0.0260515   0.0006389   0.0280224   0.0001168
    2  -0.0215461   0.0025473  -0.0143508   0.0002570   0.0098536  -0.0030359
    3  -0.0012154   0.0029781   0.0135815  -0.0001979  -0.0136775   0.0005990
           91          92          93          94          95          96
    1  -0.0087955  -0.0300176   0.0079305  -0.0014341   0.0079513   0.0252955
    2   0.0104161  -0.0085179   0.0276361  -0.0016984   0.0235782  -0.0217661
    3  -0.0300885   0.0154482   0.0168732  -0.0035272   0.0163598  -0.0015150
           97          98          99         100         101         102
    1  -0.0274258  -0.0083343   0.0046855   0.0001562   0.0208011  -0.0024397
    2  -0.0134357   0.0085928  -0.0056405  -0.0000397   0.0240041  -0.0001497
    3   0.0168895  -0.0311267   0.0314832  -0.0054819  -0.0120970  -0.0051098
          103         104         105         106         107         108
    1  -0.0233765   0.0287044  -0.0000227  -0.0475251   0.0416305   0.0030128
    2  -0.0221856  -0.0110951  -0.0003770   0.0679516  -0.0659092  -0.0108930
    3   0.0083303   0.0039850  -0.0024973  -0.0342222  -0.0527172  -0.0016049
          109         110         111         112         113         114
    1  -0.0778019  -0.0003550  -0.0156396  -0.0094797  -0.0172743   0.0006541
    2  -0.0778147  -0.0051295   0.0020937  -0.0138320  -0.0195977  -0.0010362
    3   0.0082781   0.0040018  -0.0039345  -0.0324453   0.0220703  -0.0016429
          115         116         117         118         119         120
    1  -0.0246892  -0.0022040  -0.0020606   0.0111323  -0.0010968   0.0104239
    2   0.0139421   0.0090066  -0.0005229   0.0294995  -0.0007048   0.0112016
    3  -0.0187690   0.0312045  -0.0050567   0.0082151  -0.0355638  -0.0065421
          121         122         123         124         125         126
    1   0.0213303   0.0156814   0.0138075   0.0027782   0.0068784  -0.0010751
    2  -0.0102096   0.0059335  -0.0290052   0.0018348   0.0173594   0.0054121
    3  -0.0282187   0.0286102   0.0044955  -0.0001120   0.0276824  -0.0004322
          127         128         129         130         131         132
    1  -0.0068156  -0.0126612   0.0045172   0.0020752  -0.0153406  -0.0062324
    2  -0.0144842   0.0350586   0.0019034   0.0096470  -0.0305164   0.0040426
    3  -0.0290918  -0.0023487   0.0012423   0.0029254  -0.0139861   0.0003539
          133         134         135         136         137         138
    1   0.0221116  -0.0305008   0.0718245   0.0168536  -0.0098503   0.0037722
    2  -0.0279599  -0.0025096  -0.0857928   0.0376657  -0.0043027   0.0296793
    3  -0.0101695  -0.0043416  -0.0155803   0.0139759  -0.0038272   0.0153437
          139         140         141         142         143         144
    1   0.0003804  -0.0235401  -0.0314366   0.0241771  -0.0005403  -0.0121315
    2  -0.0035702   0.0321349  -0.0044062  -0.0141427  -0.0009973  -0.0260226
    3  -0.0031949   0.0092400  -0.0016139   0.0202882   0.0003374  -0.0176990
          145         146         147         148         149         150
    1  -0.0032754  -0.0234410   0.0106281  -0.0017304  -0.0143626   0.0242638
    2   0.0027053   0.0107890   0.0301077  -0.0025569  -0.0276625  -0.0124191
    3  -0.0020381  -0.0218538   0.0128367  -0.0014579  -0.0126769   0.0210546
          151         152         153         154         155         156
    1  -0.0033890  -0.1065846  -0.0029746   0.0422479  -0.0340938  -0.0127817
    2  -0.0088549  -0.0328557  -0.0138390   0.0163101   0.0220264  -0.0022038
    3  -0.0108006  -0.0186688   0.0066407   0.0048679   0.0198038   0.0002019
          157         158         159         160         161         162
    1  -0.0674672   0.0049226   0.0241686   0.0054947   0.0338219  -0.0242783
    2   0.0326936  -0.0147822  -0.0071736   0.0194404   0.0181147   0.0226173
    3  -0.0840700  -0.0137671   0.0370506  -0.0035413   0.0140443   0.0022532
          163         164         165         166         167         168
    1  -0.0018590  -0.0010553  -0.0020164  -0.0006365   0.0088641  -0.0037887
    2   0.0060988   0.0735045   0.0018751  -0.0275503  -0.0016007   0.0276667
    3   0.0074737  -0.0710799  -0.0048595   0.0356321  -0.0187159  -0.0220528
          169         170         171         172         173         174
    1   0.0040606   0.0053336   0.0123473   0.0010190  -0.0100619  -0.0016030
    2   0.0044461  -0.0276774  -0.0086398   0.0023226   0.0087450   0.0021057
    3   0.0018196   0.0175059  -0.0298658   0.0024651   0.0332031   0.0009297
          175         176         177         178         179         180
    1   0.0209300   0.0035344   0.0146688  -0.0001699   0.0072007  -0.0289669
    2   0.0193740  -0.0279078  -0.0027340   0.0000542  -0.0023628   0.0181955
    3   0.0192537   0.0166390  -0.0290715   0.0022176  -0.0320517   0.0040364
          181         182         183         184         185         186
    1   0.0243945  -0.0196563  -0.0117166  -0.0005676  -0.0211117  -0.0001361
    2   0.0248128  -0.0241883  -0.0277881   0.0015798   0.0236600   0.0002440
    3   0.0121146  -0.0130366  -0.0108691   0.0035230  -0.0093265   0.0000128
          187         188         189         190         191         192
    1   0.0211849  -0.0017139   0.0284959  -0.0190828   0.0077440   0.0018439
    2  -0.0242417  -0.0017865   0.0077070   0.0284796   0.0000968   0.0032979
    3   0.0083903  -0.0005887  -0.0135415  -0.0078201   0.0329129  -0.0006275
          193         194         195         196         197         198
    1  -0.0248329  -0.0131769   0.0021470   0.0280296  -0.0076426  -0.0006509
    2   0.0220696  -0.0281917   0.0016795   0.0060920  -0.0130064   0.0009565
    3  -0.0091087  -0.0073910   0.0338221  -0.0161059  -0.0291365  -0.0000737
          199         200         201         202         203         204
    1  -0.0189159  -0.0006295   0.0047949   0.0171573  -0.0328006   0.0305086
    2   0.0279197   0.0002608   0.0135079  -0.0280808  -0.0093995   0.0095345
    3   0.0024767   0.0011230   0.0299651  -0.0014375   0.0024393  -0.0014253
          205         206         207         208         209         210
    1   0.0102693  -0.0004276   0.0243128   0.0022799   0.0266025  -0.0076825
    2   0.0041825   0.0001548   0.0123700   0.0003559  -0.0197440  -0.0026381
    3   0.0310776  -0.0000331  -0.0185715  -0.0020722   0.0027217  -0.0327779
          211         212         213         214         215         216
    1   0.0028660  -0.0286669   0.0077677   0.0220173  -0.0081537   0.0109552
    2   0.0132987   0.0170730   0.0030834  -0.0239504  -0.0010607   0.0103172
    3   0.0017905  -0.0065323   0.0329221  -0.0294742   0.0066835   0.0314882
          217         218         219         220         221         222
    1  -0.0258580  -0.0023162  -0.0246907   0.0149528  -0.0016287   0.0143571
    2   0.0172380  -0.0327729   0.0217036   0.0148909   0.0005454   0.0104307
    3  -0.0144648   0.0018530  -0.0038837   0.0251912   0.0006466  -0.0278691
          223         224         225         226         227         228
    1  -0.0004359  -0.0153609   0.0306556  -0.0037483   0.0026891  -0.0184387
    2   0.0000925  -0.0125004  -0.0136743  -0.0009315   0.0020027  -0.0050867
    3  -0.0011718  -0.0271173  -0.0022182   0.0046997   0.0068567  -0.0328592
          229         230         231         232         233         234
    1   0.0048875  -0.0381516  -0.0008276  -0.0187442  -0.0050374   0.0123126
    2   0.0048142  -0.0159880   0.0054628  -0.0028443   0.0016575   0.0111256
    3   0.0000412  -0.0019523  -0.0059861   0.0312616  -0.0070196   0.0338934
          235         236         237         238         239         240
    1  -0.0092503   0.0333689  -0.0310979   0.0315636  -0.0020267  -0.0107241
    2  -0.0028010   0.0172309   0.0142803   0.0065886  -0.0010398  -0.0212504
    3  -0.0009313   0.0009150   0.0007500  -0.0037906   0.0035493  -0.0224357
          241         242         243         244         245         246
    1  -0.0014219  -0.0348330  -0.0027176   0.0312664  -0.0080907  -0.0092437
    2   0.0000738  -0.0066922   0.0030850   0.0034072  -0.0243015  -0.0112868
    3   0.0009732   0.0021315   0.0003118   0.0000234  -0.0201528   0.0328457
          247         248         249         250         251         252
    1  -0.0015719   0.0317602  -0.0096884  -0.0158954  -0.0173733   0.0143471
    2  -0.0022317   0.0072198  -0.0084467   0.0290713   0.0267913   0.0230210
    3   0.0000331   0.0034950   0.0344196  -0.0042543  -0.0083587  -0.0182899
          253         254         255         256         257         258
    1   0.0007361  -0.0081045  -0.0011067   0.0278593  -0.0160181  -0.0095557
    2   0.0011523  -0.0254810  -0.0030845  -0.0138184  -0.0216327  -0.0094484
    3   0.0017944  -0.0178068   0.0016681  -0.0096779   0.0233401   0.0086118
          259         260         261         262         263         264
    1  -0.0279597   0.0101470   0.0132067   0.0013907  -0.0276741   0.0122691
    2   0.0145576  -0.0126993  -0.0005225   0.0054452   0.0155737  -0.0202460
    3   0.0145843   0.0323938  -0.0397559   0.0116278   0.0115937   0.0264537
          265         266         267         268         269         270
    1   0.0228014  -0.0278885  -0.0256666  -0.0000325   0.0040599   0.0012146
    2   0.0228738   0.0131458  -0.0044229  -0.0011442   0.0316306  -0.0008581
    3  -0.0062827   0.0108281  -0.0202986   0.0026747   0.0031348   0.0054801
          271         272         273         274         275         276
    1  -0.0079662  -0.0272977  -0.0013191   0.0278006  -0.0008814   0.0085905
    2  -0.0334736   0.0095468  -0.0019558  -0.0144689  -0.0043494   0.0179555
    3  -0.0016023   0.0151962   0.0012930  -0.0120925   0.0007282  -0.0251744
          277         278         279         280         281         282
    1  -0.0260824   0.0239577  -0.0004724  -0.0064745  -0.0281204   0.0214908
    2   0.0137353   0.0006170  -0.0006276  -0.0349612   0.0058347  -0.0030036
    3   0.0152662   0.0221429   0.0022139  -0.0019851   0.0205959   0.0266058
          283         284         285         286         287         288
    1   0.0265768  -0.0162276  -0.0014543  -0.0210636  -0.0013249   0.0184971
    2  -0.0116572   0.0006769  -0.0046491   0.0151293  -0.0012509  -0.0166290
    3  -0.0145174  -0.0288103   0.0025442   0.0215264  -0.0002588  -0.0228074
          289         290         291         292         293         294
    1  -0.0044560   0.0022832   0.0277714  -0.0197293  -0.0013288   0.0006071
    2  -0.0030105  -0.0307606   0.0154166   0.0134714   0.0004607  -0.0314609
    3  -0.0020059   0.0118656  -0.0009859   0.0232775   0.0027869   0.0100231
          295         296         297         298         299         300
    1  -0.0206234  -0.0245412   0.0268799   0.0132437  -0.0019944  -0.0291882
    2  -0.0010896   0.0083716   0.0168943   0.0007631   0.0058074   0.0218775
    3  -0.0273193   0.0251596  -0.0021790  -0.0304637  -0.0011139  -0.0055475
          301         302         303         304         305         306
    1   0.0033969   0.0288196  -0.0134222   0.0048762  -0.0768536   0.0831914
    2   0.0061882  -0.0188605   0.0068927   0.0314294   0.0661337  -0.0485682
    3   0.0034664   0.0060574   0.0325957   0.0024774  -0.0589515   0.0572764
          307         308         309         310         311         312
    1  -0.0021152   0.0215743   0.0068199  -0.0020868   0.0270576  -0.0010198
    2   0.0155308   0.0181983  -0.0163715   0.0007917   0.0174055   0.0000696
    3  -0.0018299   0.0188633   0.0283098   0.0001185  -0.0064471   0.0024473
          313         314         315         316         317         318
    1   0.0238957  -0.0269231   0.0105336   0.0255610   0.0003655  -0.0063391
    2  -0.0236801  -0.0173433  -0.0071353   0.0218953  -0.0178043   0.0441557
    3  -0.0045814   0.0121857   0.0031468  -0.0066526  -0.0220173   0.0180782
          319         320         321         322         323         324
    1  -0.0162966  -0.0096083   0.0028312  -0.0393661  -0.0242105  -0.0079267
    2  -0.0051940  -0.0265697  -0.0044821   0.0163038   0.0219428   0.0228506
    3  -0.0009938   0.0232573  -0.0148976  -0.0043171   0.0080348   0.0227878
          325         326         327         328         329         330
    1  -0.0018066   0.0258155  -0.0046532  -0.0007196  -0.0342373  -0.0038787
    2  -0.0006084  -0.0130260  -0.0009785  -0.0209023   0.0088495  -0.0169597
    3  -0.0010900   0.0065104  -0.0028012  -0.0278248  -0.0074988   0.0260281
          331         332         333         334         335         336
    1   0.0015712   0.0067694  -0.0009478   0.0170144  -0.0000163  -0.0070409
    2   0.0153613  -0.0054196  -0.0030852   0.0243314  -0.0005625   0.0027491
    3  -0.0309344   0.0314685   0.0002765  -0.0118461  -0.0014392  -0.0327725
          337         338         339         340         341         342
    1   0.0307533  -0.0010911   0.0022179   0.0342926  -0.0003447  -0.0009423
    2  -0.0089337  -0.0079242   0.0139046  -0.0121239  -0.0128170  -0.0471074
    3  -0.0002704   0.0019825  -0.0113441   0.0063224   0.0026195   0.0149381
          343         344         345         346         347         348
    1  -0.0136638  -0.0030198  -0.0056143   0.0075870  -0.0324490   0.0086508
    2   0.0063988   0.0010275  -0.0357561  -0.0028119  -0.0172262  -0.0061727
    3  -0.0106117  -0.0060994   0.0122395  -0.0015793   0.0022709   0.0019588
          349         350         351         352         353         354
    1  -0.0262498  -0.0051886   0.0067008  -0.0008110  -0.0325992   0.0226945
    2   0.0183260  -0.0103553   0.0304569  -0.0039147   0.0067598   0.0212751
    3  -0.0142652   0.0020293  -0.0175647  -0.0013401  -0.0000546  -0.0085281
          355         356         357         358         359         360
    1   0.0002927  -0.0049531  -0.0008358   0.0102709   0.0282367   0.0014501
    2  -0.0018210  -0.0193539  -0.0035778   0.0195547  -0.0179427   0.0002533
    3   0.0014778  -0.0257284   0.0017765   0.0245640  -0.0059177   0.0001574
          361         362         363         364         365         366
    1  -0.0268235   0.0017315   0.0263093  -0.0206266  -0.0128574   0.0006726
    2   0.0177799   0.0009400  -0.0198863  -0.0213134   0.0115906  -0.0009942
    3   0.0069198   0.0024818  -0.0089814   0.0125169  -0.0266663  -0.0020764
          367         368         369         370         371         372
    1   0.0269861   0.0078543  -0.0208013  -0.0269228   0.0023962  -0.0259017
    2  -0.0207016   0.0206480  -0.0209412   0.0165113  -0.0638808   0.0415298
    3  -0.0007451   0.0234971   0.0138492   0.0052833  -0.0583266  -0.0072670
          373         374         375         376         377         378
    1   0.0353947  -0.0918513   0.0391715   0.0105138  -0.0908831   0.0186330
    2   0.0195249  -0.0338641  -0.0402502   0.0095413  -0.0351008   0.0426889
    3   0.0198540   0.0220159  -0.0091450  -0.0163795   0.0064053   0.0281461
          379         380         381         382         383         384
    1   0.0397995  -0.0396579   0.0080751   0.0027841   0.0835380   0.0038035
    2  -0.0014934   0.0929152   0.0109338  -0.0441690   0.0341183  -0.0148234
    3  -0.0333696   0.0595830  -0.0205305   0.0318289   0.0513906  -0.0435952
          385         386         387         388         389         390
    1  -0.0465250   0.0423988  -0.0110227  -0.0095156  -0.0389351  -0.0211623
    2  -0.0134659  -0.0355569  -0.0255195   0.0483234   0.0388381  -0.0046259
    3   0.0215673   0.0945722  -0.0387884  -0.0067093   0.0868353  -0.0398588
          391         392         393         394         395         396
    1   0.0537057  -0.0374543   0.0355542  -0.0152767  -0.0431023  -0.0280342
    2  -0.0105772   0.0173336  -0.0317453   0.0218270   0.1101327  -0.0275125
    3  -0.0076130  -0.1029790   0.0141475   0.0382453  -0.0075521   0.0037682
          397         398         399         400
    1   0.0403665   0.0077008   0.0405287  -0.0336916
    2  -0.0058135   0.0175063   0.0176196  -0.0254950
    3   0.0074117  -0.0966986   0.0242109   0.0195452
  --- DONE ESP SUMMARY ---
 Total job time:  18.40s(wall), 70.89s(cpu) 
 Tue Aug  6 16:49:11 2024

        *************************************************************
        *                                                           *
        *  Thank you very much for using Q-Chem.  Have a nice day.  *
        *                                                           *
        *************************************************************


