
Running Job 1 of 2 19nt_mm_min_distance_cutoff4_optimized_spade_wb97x-v_631gd.in
qchem 19nt_mm_min_distance_cutoff4_optimized_spade_wb97x-v_631gd.in_2102164.0 ./qchem2102164/ 1
srun -n 1 /cm/shared/apps/spack/0.17.3/cpu/b/opt/spack/linux-rocky8-zen2/gcc-10.2.0/qchem-6.0-rytxnwjazd34ekd2gqyi5ufsaimxsd3r/exe/qcprog.exe 19nt_mm_min_distance_cutoff4_optimized_spade_wb97x-v_631gd.in_2102164.0 ./qchem2102164/

                  Welcome to Q-Chem
     A Quantum Leap Into The Future Of Chemistry


 Q-Chem 6.0, Q-Chem, Inc., Pleasanton, CA (2022)

 License issued to: University of California, San Diego (site)

 E. Epifanovsky,  A. T. B. Gilbert,  Xintian Feng,  Joonho Lee,  Yuezhi Mao,  
 N. Mardirossian,  P. Pokhilko,  A. White,  M. Wormit,  M. P. Coons,  
 A. L. Dempwolff,  Zhengting Gan,  D. Hait,  P. R. Horn,  L. D. Jacobson,  
 I. Kaliman,  J. Kussmann,  A. W. Lange,  Ka Un Lao,  D. S. Levine,  Jie Liu,  
 S. C. McKenzie,  A. F. Morrison,  K. Nanda,  F. Plasser,  D. R. Rehn,  
 M. L. Vidal,  Zhi-Qiang You,  Ying Zhu,  B. Alam,  B. Albrecht,  
 A. Aldossary,  E. Alguire,  J. H. Andersen,  V. Athavale,  D. Barton,  
 K. Begam,  A. Behn,  N. Bellonzi,  Y. A. Bernard,  E. J. Berquist,  
 H. Burton,  A. Carreras,  K. Carter-Fenk,  Romit Chakraborty,  
 Chandrima Chakravarty,  Junhan Chen,  A. D. Chien,  K. D. Closser,  
 V. Cofer-Shabica,  L. Cunha,  S. Dasgupta,  Jia Deng,  M. de Wergifosse,  
 M. Diedenhofen,  Hainam Do,  S. Ehlert,  Po-Tung Fang,  S. Fatehi,  
 Qingguo Feng,  T. Friedhoff,  B. Ganoe,  J. Gayvert,  Qinghui Ge,  
 G. Gidofalvi,  M. Goldey,  J. Gomes,  C. Gonzalez-Espinoza,  S. Gulania,  
 A. Gunina,  J. A. Gyamfi,  M. W. D. Hanson-Heine,  P. H. P. Harbach,  
 A. W. Hauser,  M. F. Herbst,  M. Hernandez Vera,  M. Hodecker,  
 Z. C. Holden,  S. Houck,  Xunkun Huang,  Kerwin Hui,  B. C. Huynh,  
 K. Ikeda,  M. Ivanov,  Hyunjun Ji,  Zuxin Jin,  Hanjie Jiang,  B. Kaduk,  
 S. Kaehler,  R. Kang,  K. Khistyaev,  Jaehoon Kim,  Yongbin Kim,  
 P. Klunzinger,  Z. Koczor-Benda,  Joong Hoon Koh,  D. Kosenkov,  
 Saikiran Kotaru,  L. Koulias,  T. Kowalczyk,  C. M. Krauter,  K. Kue,  
 A. Kunitsa,  T. Kus,  A. Landau,  K. V. Lawler,  D. Lefrancois,  S. Lehtola,  
 Rain Li,  Shaozhi Li,  Yi-Pei Li,  Jiashu Liang,  M. Liebenthal,  
 Hung-Hsuan Lin,  You-Sheng Lin,  Fenglai Liu,  Kuan-Yu Liu,  
 M. Loipersberger,  A. Luenser,  C. Malbon,  A. Manjanath,  P. Manohar,  
 E. Mansoor,  S. F. Manzer,  Shan-Ping Mao,  A. V. Marenich,  T. Markovich,  
 S. Mason,  F. Matz,  S. A. Maurer,  P. F. McLaughlin,  M. F. S. J. Menger,  
 J.-M. Mewes,  S. A. Mewes,  P. Morgante,  Mohammad Mostafanejad,  
 J. W. Mullinax,  K. J. Oosterbaan,  G. Paran,  V. Parravicini,  
 Alexander C. Paul,  Suranjan K. Paul,  F. Pavosevic,  Zheng Pei,  S. Prager,  
 E. I. Proynov,  E. Ramos,  B. Rana,  A. E. Rask,  A. Rettig,  R. M. Richard,  
 F. Rob,  E. Rossomme,  T. Scheele,  M. Scheurer,  M. Schneider,  
 P. E. Schneider,  N. Sergueev,  S. M. Sharada,  Hengyuan Shen,  
 W. Skomorowski,  D. W. Small,  C. J. Stein,  Yingli Su,  Yu-Chuan Su,  
 E. J. Sundstrom,  Zhen Tao,  J. Thirman,  Hung-Yi Tsai,  T. Tsuchimochi,  
 N. M. Tubman,  C. Utku,  S. P. Veccham,  O. Vydrov,  J. Wenzel,  
 Jonathan Wong,  J. Witte,  A. Yamada,  Chou-Hsun Yang,  Kun Yao,  
 S. Yeganeh,  S. R. Yost,  A. Zech,  F. Zeller,  Igor Ying Zhang,  
 Xing Zhang,  Yu Zhang,  D. Zuev,  A. Aspuru-Guzik,  A. T. Bell,  
 N. A. Besley,  K. B. Bravaya,  B. R. Brooks,  D. Casanova,  Jeng-Da Chai,  
 Hsing-Ta Chen,  S. Coriani,  C. J. Cramer,  A. E. DePrince, III,  
 R. A. DiStasio Jr.,  A. Dreuw,  B. D. Dunietz,  T. R. Furlani,  
 W. A. Goddard III,  S. Grimme,  S. Hammes-Schiffer,  T. Head-Gordon,  
 W. J. Hehre,  Chao-Ping Hsu,  T.-C. Jagau,  Yousung Jung,  A. Klamt,  
 Jing Kong,  D. S. Lambrecht,  Xiangyuan Li,  WanZhen Liang,  N. J. Mayhall,  
 C. W. McCurdy,  J. B. Neaton,  T. Neudecker,  C. Ochsenfeld,  
 J. A. Parkhill,  R. Peverati,  V. A. Rassolov,  Haisheng Ren,  Yihan Shao,  
 L. V. Slipchenko,  R. P. Steele,  J. E. Subotnik,  A. J. W. Thom,  
 A. Tkatchenko,  D. G. Truhlar,  T. Van Voorhis,  Fan Wang,  
 T. A. Wesolowski,  K. B. Whaley,  H. L. Woodcock III,  P. M. Zimmerman,  
 S. Faraji,  P. M. W. Gill,  M. Head-Gordon,  J. M. Herbert,  A. I. Krylov

 Contributors to earlier versions of Q-Chem not listed above: 
 R. D. Adamson,  B. Austin,  R. Baer,  J. Baker,  G. J. O. Beran,  
 K. Brandhorst,  S. T. Brown,  E. F. C. Byrd,  Arup K. Chakraborty,  
 G. K. L. Chan,  Chun-Min Chang,  Yunqing Chen,  C.-L. Cheng,  
 Siu Hung Chien,  D. M. Chipman,  D. L. Crittenden,  H. Dachsel,  
 R. J. Doerksen,  A. D. Dutoi,  R. G. Edgar,  J. Fosso-Tande,  
 L. Fusti-Molnar,  D. Ghosh,  A. Ghysels,  A. Golubeva-Zadorozhnaya,  
 J. Gonthier,  M. S. Gordon,  S. R. Gwaltney,  G. Hawkins,  J. E. Herr,  
 A. Heyden,  S. Hirata,  E. G. Hohenstein,  G. Kedziora,  F. J. Keil,  
 C. Kelley,  Jihan Kim,  R. A. King,  R. Z. Khaliullin,  P. P. Korambath,  
 W. Kurlancheek,  A. Laurent,  A. M. Lee,  M. S. Lee,  S. V. Levchenko,  
 Ching Yeh Lin,  D. Liotard,  E. Livshits,  R. C. Lochan,  I. Lotan,  
 L. A. Martinez-Martinez,  P. E. Maslen,  N. Nair,  D. P. O'Neill,  
 D. Neuhauser,  E. Neuscamman,  C. M. Oana,  R. Olivares-Amaya,  R. Olson,  
 T. M. Perrine,  B. Peters,  P. A. Pieniazek,  A. Prociuk,  Y. M. Rhee,  
 J. Ritchie,  M. A. Rohrdanz,  E. Rosta,  N. J. Russ,  H. F. Schaefer III,  
 M. W. Schmidt,  N. E. Schultz,  S. Sharma,  N. Shenvi,  C. D. Sherrill,  
 A. C. Simmonett,  A. Sodt,  T. Stein,  D. Stuck,  K. S. Thanthiriwatte,  
 V. Vanovschi,  L. Vogt,  Tao Wang,  A. Warshel,  M. A. Watson,  
 C. F. Williams,  Q. Wu,  X. Xu,  Jun Yang,  W. Zhang,  Yan Zhao

   Please cite Q-Chem as follows:
  "Software for the frontiers of quantum chemistry:
   An overview of developments in the Q-Chem 5 package"
   J. Chem. Phys. 155, 084801 (2021)
   https://doi.org/10.1063/5.0055522 (open access)

 Q-Chem 6.0.2 for Intel X86 EM64T Linux

 Parts of Q-Chem use Armadillo 9.900.5 (Nocturnal Misbehaviour).
 http://arma.sourceforge.net/

 Q-Chem begins on Tue Aug  6 12:59:09 2024  

 Host: 
0

     Scratch files written to ./qchem2102164//
 Dec722 |scratch|qcdevops|jenkins|workspace|build_RNUM    
 Processing $rem in /cm/shared/apps/spack/0.17.3/cpu/b/opt/spack/linux-rocky8-zen2/gcc-10.2.0/qchem-6.0-rytxnwjazd34ekd2gqyi5ufsaimxsd3r/config/preferences:
 Processing $rem in /home/hklem/.qchemrc:
 No nuclear gradient supported for projection-based embedding or EMFT. Set max ideriv = 0.

 Checking the input file for inconsistencies... 	...done.

--------------------------------------------------------------
User input:
--------------------------------------------------------------
$molecule
-1 1
--
0 1
C    3.05900    0.81300    -0.19500
O    4.29500    0.95800    -0.07700
C    2.45500    -0.47800   -0.35000
C    1.13400    -0.60400   -0.64300
C    0.18900    0.57400    -0.61000
C    0.77300    1.74000    0.19000
C    2.19100    2.03200    -0.27100
C    0.60700    -1.90700   -1.15200
C    -0.83700   -2.21800   -0.76000
C    -1.74200   -1.01000   -1.00100
C    -1.22600   0.17100    -0.15000
C    -3.20500   -1.27800   -0.67400
C    -4.09800   -0.03500   -0.87100
C    -3.63200   1.05900    0.08500
C    -2.15600   1.39800    -0.14200
C    -3.95600   -2.38400   -1.42600
C    -5.44700   -2.04600   -1.18600
C    -5.45700   -0.65900   -0.51900
C    -4.09800   0.47300    -2.32200
O    -6.61500   0.10100    -0.91700
H    3.12000    -1.33600   -0.36200
H    0.10200    0.88000    -1.66500
H    0.76600    1.49700    1.26300
H    0.16600    2.64000    0.06000
H    2.16700    2.33500    -1.32700
H    2.66400    2.85100    0.27900
H    1.27900    -2.72400   -0.87600
H    0.67700    -1.82900   -2.25000
H    -0.88000   -2.49900   0.30100
H    -1.18100   -3.08600   -1.33000
H    -1.66000   -0.73900   -2.06300
H    -1.15500   -0.20000   0.88600
H    -3.25100   -1.52500   0.40300
H    -3.77200   0.71600    1.12200
H    -4.23600   1.96900    -0.03400
H    -2.03800   1.94300    -1.08700
H    -1.83800   2.07900    0.65600
H    -3.69000   -3.38600   -1.08600
H    -3.73300   -2.34700   -2.49700
H    -5.95000   -2.78600   -0.55400
H    -5.98600   -2.00300   -2.13300
H    -5.50700   -0.77500   0.57300
H    -4.53200   -0.25300   -3.01700
H    -4.67300   1.39900    -2.39800
H    -3.09100   0.71400    -2.67200
H    -6.82200   0.71800    -0.20500
--
-1 1
H    7.32900    6.04900    6.21200
C    6.98800    5.68700    5.23500
H    6.90600    6.54600    4.56000
C    7.94500    4.63900    4.65700
H    8.94900    5.07100    4.56000
H    8.03100    3.79600    5.35400
C    7.45600    4.15500    3.31600
C    7.80500    4.82400    2.14100
H    8.51200    5.65000    2.18700
C    7.25400    4.46800    0.91800
H    7.51600    4.99600    0.00600
C    6.33100    3.42700    0.85400
O    5.76400    3.16300    -0.36000
H    5.17200    2.37400    -0.28200
C    5.98200    2.73000    2.01000
H    5.27100    1.91400    1.96100
C    6.54900    3.09900    3.22400
H    6.26200    2.56000    4.12400
H    5.98400    5.26600    5.35500
H    1.76700    7.12400    4.04900
C    0.85900    6.57900    3.76700
H    0.50000    7.00000    2.82200
C    1.14600    5.07800    3.62400
H    1.57100    4.73000    4.57600
C    -0.14000   4.28300    3.37300
H    -0.86700   4.43000    4.18000
H    -0.61500   4.59700    2.43700
H    0.06700    3.20900    3.29700
C    2.17800    4.80600    2.52500
H    2.43800    3.74200    2.48900
H    3.10500    5.36700    2.68100
H    1.78900    5.08700    1.53700
H    0.09800    6.76700    4.53300
H    3.73800    -3.93200   -7.10600
C    3.10000    -3.16000   -6.66300
H    2.05400    -3.43400   -6.83100
C    3.37300    -3.01500   -5.15900
H    4.42000    -2.74300   -4.99000
H    3.18500    -3.97700   -4.66800
C    2.46500    -1.94500   -4.53700
O    1.26900    -2.29300   -4.28200
O    2.94100    -0.79900   -4.36200
H    3.29400    -2.21400   -7.18100
H    0.25600    7.84000    -4.41700
C    0.16100    6.90500    -4.98100
H    1.09600    6.75400    -5.53000
C    -0.10500   5.72400    -4.04400
H    -1.05700   5.87900    -3.51700
H    -0.23000   4.79700    -4.61300
C    1.01600    5.57200    -3.04600
C    1.15100    6.48700    -1.99800
H    0.40600    7.27100    -1.88100
C    2.20500    6.42100    -1.10200
H    2.29200    7.12100    -0.27700
C    3.18400    5.43500    -1.25200
O    4.18300    5.40500    -0.34800
H    4.75400    4.62500    -0.50300
C    3.08600    4.53100    -2.31300
H    3.85200    3.77100    -2.44700
C    2.00300    4.59600    -3.18700
H    1.93100    3.87200    -3.99700
H    -0.64600   7.02800    -5.71300
H    -3.82500   5.28800    -5.19200
C    -4.03600   4.47100    -4.49600
H    -3.13700   3.84900    -4.39000
H    -4.83900   3.84300    -4.88400
C    -4.42800   4.96200    -3.10900
O    -5.11200   4.27700    -2.34600
N    -3.97000   6.18200    -2.72600
H    -3.39900   6.70100    -3.37700
C    -4.29200   6.80600    -1.44200
H    -4.84200   6.05400    -0.87300
C    -3.07000   7.28900    -0.67300
H    -2.60300   8.12900    -1.20800
H    -3.43400   7.70200    0.27900
C    -2.00100   6.22900    -0.38500
H    -1.50500   5.97300    -1.32900
C    -0.95800   6.81500    0.56400
H    -0.10700   6.13700    0.67800
H    -0.57100   7.77700    0.20700
H    -1.39900   6.97900    1.55500
C    -2.57700   4.93800    0.19400
H    -3.13200   5.13900    1.12000
H    -3.24400   4.42400    -0.50500
H    -1.76600   4.24600    0.43800
H    -4.97600   7.64700    -1.61700
H    -7.44800   5.34700    3.07600
C    -6.73100   4.59900    3.43600
H    -7.28800   3.69000    3.67900
C    -5.65000   4.31800    2.38600
H    -5.10900   5.25900    2.21200
C    -4.64400   3.28200    2.89600
H    -4.17200   3.61100    3.82900
H    -5.14300   2.32400    3.09500
H    -3.85100   3.09600    2.16400
C    -6.25500   3.88100    1.04900
H    -6.69500   2.87900    1.13500
H    -7.04800   4.56300    0.72100
H    -5.50300   3.84600    0.25300
H    -6.28700   4.97500    4.36500
H    3.04900    -4.25400   7.52700
C    2.01800    -3.93700   7.71800
H    1.79800    -4.12100   8.77500
C    1.81900    -2.45800   7.36500
H    0.79100    -2.16300   7.60800
H    2.47300    -1.84800   8.00200
C    2.09900    -2.13900   5.91200
C    1.09500    -1.66300   5.06600
H    0.09000    -1.52600   5.45900
C    1.36400    -1.35600   3.73300
H    0.56700    -0.99400   3.08900
C    2.64600    -1.53000   3.22300
H    2.86900    -1.31100   2.18400
C    3.65200    -2.01900   4.05100
H    4.64400    -2.17900   3.64100
C    3.38200    -2.31500   5.38200
H    4.17900    -2.68700   6.02300
H    1.36000    -4.57100   7.11400
H    -2.95200   -1.32200   5.81700
C    -3.72000   -1.09000   5.06700
H    -4.29300   -0.22700   5.42200
C    -3.07200   -0.81100   3.70900
H    -3.87500   -0.56900   2.99500
C    -2.14300   0.40300    3.77700
H    -1.30400   0.21800    4.46100
H    -2.67700   1.29100    4.13500
H    -1.72400   0.64100    2.79300
C    -2.34300   -2.05400   3.19500
H    -1.55300   -2.36300   3.89000
H    -1.87300   -1.87300   2.22300
H    -3.03300   -2.89800   3.07900
H    -4.40400   -1.94400   5.01200
H    -10.14900  0.27800    3.98900
C    -9.98600   1.06900    3.25100
H    -10.48500  1.97600    3.60800
C    -8.49800   1.33400    3.02600
H    -8.03400   1.65300    3.96700
H    -8.39100   2.17100    2.32700
C    -7.69700   0.15900    2.46500
H    -8.13800   -0.20200   1.52600
H    -6.66900   0.48700    2.25700
S    -7.62000   -1.22000   3.65600
C    -6.54200   -2.35500   2.74400
H    -6.96800   -2.61300   1.77000
H    -5.54100   -1.93600   2.60600
H    -6.45600   -3.26600   3.34100
H    -10.47300  0.76000    2.31900
H    -6.25700   -5.64800   3.42600
C    -5.19300   -5.91000   3.41800
H    -5.12500   -6.99500   3.55800
C    -4.52200   -5.46200   2.12100
H    -4.66300   -4.37900   1.99800
H    -5.02500   -5.92900   1.26200
C    -3.01900   -5.76500   2.03000
H    -2.53300   -5.34400   2.92400
C    -2.73000   -7.26800   1.99800
H    -3.11400   -7.78700   2.88300
H    -3.18400   -7.72600   1.11000
H    -1.65000   -7.45000   1.95100
C    -2.43100   -5.08500   0.79600
H    -2.52400   -3.99600   0.86600
H    -2.94900   -5.40800   -0.11400
H    -1.37100   -5.32200   0.66200
H    -4.72200   -5.43300   4.28700
H    0.12900    -6.15900   3.31700
C    1.12800    -6.35100   2.90600
H    1.00300    -6.95500   1.99800
C    1.85100    -5.03800   2.58400
H    1.95000    -4.46100   3.51400
C    3.25800    -5.29500   2.03700
H    3.77700    -4.35300   1.82700
H    3.86300    -5.87200   2.74800
H    3.20800    -5.86700   1.10000
C    1.04200    -4.19800   1.59700
H    1.56000    -3.26100   1.36900
H    0.05700    -3.94500   2.00700
H    0.88800    -4.73700   0.65100
H    1.68700    -6.94900   3.63500
H    6.29400    -4.22400   2.19400
C    7.07300    -3.99200   1.46300
H    6.72800    -4.35700   0.49100
C    7.34100    -2.49800   1.40500
H    7.68800    -2.11600   2.37400
H    8.12600    -2.25600   0.68300
C    6.10600    -1.71800   1.03200
O    4.97500    -2.16400   1.08500
O    6.38000    -0.47300   0.66700
H    5.52900    -0.04200   0.39200
H    7.98200    -4.53900   1.73600
H    10.95000   -0.52300   -4.33400
C    10.30800   -1.09200   -3.65300
H    10.95400   -1.72700   -3.03400
C    9.46400    -0.16600   -2.78200
H    10.12200   0.47800    -2.18200
H    8.86900    0.50600    -3.41300
C    8.54100    -0.92000   -1.82400
H    9.12000    -1.68500   -1.29100
H    8.11600    -0.25300   -1.06700
S    7.15900    -1.81700   -2.60700
C    6.02500    -0.43700   -2.93100
H    6.47600    0.29100    -3.61100
H    5.75200    0.05700    -1.99400
H    5.11400    -0.82500   -3.39900
H    9.66800    -1.74700   -4.25300
H    5.34800    -4.40800   -3.27600
C    4.90800    -4.77300   -2.34300
H    5.73200    -5.05800   -1.68000
C    4.03100    -3.70300   -1.69600
H    3.61000    -4.04700   -0.74400
H    3.20100    -3.41200   -2.34900
H    4.61800    -2.80600   -1.48400
H    4.33800    -5.68100   -2.57700
H    1.17000    -9.10900   -2.30300
C    0.37900    -9.05400   -1.54800
H    0.54400    -9.84800   -0.81200
C    0.37100    -7.67000   -0.87700
H    -0.39200   -7.66700   -0.08500
H    1.33200    -7.51200   -0.37200
C    0.11700    -6.52500   -1.81400
C    1.03100    -5.60100   -2.25600
H    2.08200    -5.52200   -2.01400
N    0.44500    -4.69500   -3.10200
H    0.88100    -3.87800   -3.55600
C    -0.88500   -5.00600   -3.21200
C    -1.90100   -4.34100   -3.90700
H    -1.68200   -3.44400   -4.47900
C    -3.18400   -4.85200   -3.81800
H    -3.99700   -4.33300   -4.31900
C    -3.45000   -6.01000   -3.05800
H    -4.46900   -6.38600   -3.00800
C    -2.44200   -6.66600   -2.37100
H    -2.66300   -7.55100   -1.77700
C    -1.13300   -6.16000   -2.42800
H    -0.57400   -9.24600   -2.05300
O    0.58900    0.42600    -3.84000
H    0.25600    -0.46500   -4.04200
H    1.55400    0.23800    -3.96200
O    -6.98000   2.28600    -2.78300
H    -6.30500   2.97900    -2.63300
H    -6.73600   1.55700    -2.18600
O    -1.00100   2.63800    -3.37300
H    -0.47100   1.86100    -3.66400
H    -0.39100   3.13000    -2.81000
O    -8.03800   -1.02900   -3.33000
H    -7.74500   -0.73700   -2.45300
H    -7.70400   -0.33400   -3.92800
O    -6.66100   0.83100    -5.00100
H    -6.69500   1.47800    -4.25100
H    -7.28000   1.17000    -5.65600
O    -5.62500   -1.92700   -4.63800
H    -5.62100   -1.01600   -4.96700
H    -6.49100   -1.97100   -4.19700
$end

$rem
JOBTYPE  SP
METHOD  WB97X-V
BASIS  6-31G(D)
SYMMETRY  FALSE
SYM_IGNORE  TRUE
MEM_TOTAL  12000
MEM_STATIC  4000
BASIS_LIN_DEP_THRESH  6
THRESH  14
SCF_CONVERGENCE  8
FD_MAT_VEC_PROD  FALSE
XC_GRID  000075000302
NL_GRID  1
MAX_SCF_CYCLES  200
ENV_METHOD  WB97X-V
GEN_SCFMAN_EMBED  TRUE
SPADE_PARTITION  TRUE
EMBEDDING_EARLY_STOP  TRUE
$end

--------------------------------------------------------------
 ----------------------------------------------------------------
             Standard Nuclear Orientation (Angstroms)
    I     Atom           X                Y                Z
 ----------------------------------------------------------------
    1      C       3.0590000000     0.8130000000    -0.1950000000
    2      O       4.2950000000     0.9580000000    -0.0770000000
    3      C       2.4550000000    -0.4780000000    -0.3500000000
    4      C       1.1340000000    -0.6040000000    -0.6430000000
    5      C       0.1890000000     0.5740000000    -0.6100000000
    6      C       0.7730000000     1.7400000000     0.1900000000
    7      C       2.1910000000     2.0320000000    -0.2710000000
    8      C       0.6070000000    -1.9070000000    -1.1520000000
    9      C      -0.8370000000    -2.2180000000    -0.7600000000
   10      C      -1.7420000000    -1.0100000000    -1.0010000000
   11      C      -1.2260000000     0.1710000000    -0.1500000000
   12      C      -3.2050000000    -1.2780000000    -0.6740000000
   13      C      -4.0980000000    -0.0350000000    -0.8710000000
   14      C      -3.6320000000     1.0590000000     0.0850000000
   15      C      -2.1560000000     1.3980000000    -0.1420000000
   16      C      -3.9560000000    -2.3840000000    -1.4260000000
   17      C      -5.4470000000    -2.0460000000    -1.1860000000
   18      C      -5.4570000000    -0.6590000000    -0.5190000000
   19      C      -4.0980000000     0.4730000000    -2.3220000000
   20      O      -6.6150000000     0.1010000000    -0.9170000000
   21      H       3.1200000000    -1.3360000000    -0.3620000000
   22      H       0.1020000000     0.8800000000    -1.6650000000
   23      H       0.7660000000     1.4970000000     1.2630000000
   24      H       0.1660000000     2.6400000000     0.0600000000
   25      H       2.1670000000     2.3350000000    -1.3270000000
   26      H       2.6640000000     2.8510000000     0.2790000000
   27      H       1.2790000000    -2.7240000000    -0.8760000000
   28      H       0.6770000000    -1.8290000000    -2.2500000000
   29      H      -0.8800000000    -2.4990000000     0.3010000000
   30      H      -1.1810000000    -3.0860000000    -1.3300000000
   31      H      -1.6600000000    -0.7390000000    -2.0630000000
   32      H      -1.1550000000    -0.2000000000     0.8860000000
   33      H      -3.2510000000    -1.5250000000     0.4030000000
   34      H      -3.7720000000     0.7160000000     1.1220000000
   35      H      -4.2360000000     1.9690000000    -0.0340000000
   36      H      -2.0380000000     1.9430000000    -1.0870000000
   37      H      -1.8380000000     2.0790000000     0.6560000000
   38      H      -3.6900000000    -3.3860000000    -1.0860000000
   39      H      -3.7330000000    -2.3470000000    -2.4970000000
   40      H      -5.9500000000    -2.7860000000    -0.5540000000
   41      H      -5.9860000000    -2.0030000000    -2.1330000000
   42      H      -5.5070000000    -0.7750000000     0.5730000000
   43      H      -4.5320000000    -0.2530000000    -3.0170000000
   44      H      -4.6730000000     1.3990000000    -2.3980000000
   45      H      -3.0910000000     0.7140000000    -2.6720000000
   46      H      -6.8220000000     0.7180000000    -0.2050000000
   47      H       7.3290000000     6.0490000000     6.2120000000
   48      C       6.9880000000     5.6870000000     5.2350000000
   49      H       6.9060000000     6.5460000000     4.5600000000
   50      C       7.9450000000     4.6390000000     4.6570000000
   51      H       8.9490000000     5.0710000000     4.5600000000
   52      H       8.0310000000     3.7960000000     5.3540000000
   53      C       7.4560000000     4.1550000000     3.3160000000
   54      C       7.8050000000     4.8240000000     2.1410000000
   55      H       8.5120000000     5.6500000000     2.1870000000
   56      C       7.2540000000     4.4680000000     0.9180000000
   57      H       7.5160000000     4.9960000000     0.0060000000
   58      C       6.3310000000     3.4270000000     0.8540000000
   59      O       5.7640000000     3.1630000000    -0.3600000000
   60      H       5.1720000000     2.3740000000    -0.2820000000
   61      C       5.9820000000     2.7300000000     2.0100000000
   62      H       5.2710000000     1.9140000000     1.9610000000
   63      C       6.5490000000     3.0990000000     3.2240000000
   64      H       6.2620000000     2.5600000000     4.1240000000
   65      H       5.9840000000     5.2660000000     5.3550000000
   66      H       1.7670000000     7.1240000000     4.0490000000
   67      C       0.8590000000     6.5790000000     3.7670000000
   68      H       0.5000000000     7.0000000000     2.8220000000
   69      C       1.1460000000     5.0780000000     3.6240000000
   70      H       1.5710000000     4.7300000000     4.5760000000
   71      C      -0.1400000000     4.2830000000     3.3730000000
   72      H      -0.8670000000     4.4300000000     4.1800000000
   73      H      -0.6150000000     4.5970000000     2.4370000000
   74      H       0.0670000000     3.2090000000     3.2970000000
   75      C       2.1780000000     4.8060000000     2.5250000000
   76      H       2.4380000000     3.7420000000     2.4890000000
   77      H       3.1050000000     5.3670000000     2.6810000000
   78      H       1.7890000000     5.0870000000     1.5370000000
   79      H       0.0980000000     6.7670000000     4.5330000000
   80      H       3.7380000000    -3.9320000000    -7.1060000000
   81      C       3.1000000000    -3.1600000000    -6.6630000000
   82      H       2.0540000000    -3.4340000000    -6.8310000000
   83      C       3.3730000000    -3.0150000000    -5.1590000000
   84      H       4.4200000000    -2.7430000000    -4.9900000000
   85      H       3.1850000000    -3.9770000000    -4.6680000000
   86      C       2.4650000000    -1.9450000000    -4.5370000000
   87      O       1.2690000000    -2.2930000000    -4.2820000000
   88      O       2.9410000000    -0.7990000000    -4.3620000000
   89      H       3.2940000000    -2.2140000000    -7.1810000000
   90      H       0.2560000000     7.8400000000    -4.4170000000
   91      C       0.1610000000     6.9050000000    -4.9810000000
   92      H       1.0960000000     6.7540000000    -5.5300000000
   93      C      -0.1050000000     5.7240000000    -4.0440000000
   94      H      -1.0570000000     5.8790000000    -3.5170000000
   95      H      -0.2300000000     4.7970000000    -4.6130000000
   96      C       1.0160000000     5.5720000000    -3.0460000000
   97      C       1.1510000000     6.4870000000    -1.9980000000
   98      H       0.4060000000     7.2710000000    -1.8810000000
   99      C       2.2050000000     6.4210000000    -1.1020000000
  100      H       2.2920000000     7.1210000000    -0.2770000000
  101      C       3.1840000000     5.4350000000    -1.2520000000
  102      O       4.1830000000     5.4050000000    -0.3480000000
  103      H       4.7540000000     4.6250000000    -0.5030000000
  104      C       3.0860000000     4.5310000000    -2.3130000000
  105      H       3.8520000000     3.7710000000    -2.4470000000
  106      C       2.0030000000     4.5960000000    -3.1870000000
  107      H       1.9310000000     3.8720000000    -3.9970000000
  108      H      -0.6460000000     7.0280000000    -5.7130000000
  109      H      -3.8250000000     5.2880000000    -5.1920000000
  110      C      -4.0360000000     4.4710000000    -4.4960000000
  111      H      -3.1370000000     3.8490000000    -4.3900000000
  112      H      -4.8390000000     3.8430000000    -4.8840000000
  113      C      -4.4280000000     4.9620000000    -3.1090000000
  114      O      -5.1120000000     4.2770000000    -2.3460000000
  115      N      -3.9700000000     6.1820000000    -2.7260000000
  116      H      -3.3990000000     6.7010000000    -3.3770000000
  117      C      -4.2920000000     6.8060000000    -1.4420000000
  118      H      -4.8420000000     6.0540000000    -0.8730000000
  119      C      -3.0700000000     7.2890000000    -0.6730000000
  120      H      -2.6030000000     8.1290000000    -1.2080000000
  121      H      -3.4340000000     7.7020000000     0.2790000000
  122      C      -2.0010000000     6.2290000000    -0.3850000000
  123      H      -1.5050000000     5.9730000000    -1.3290000000
  124      C      -0.9580000000     6.8150000000     0.5640000000
  125      H      -0.1070000000     6.1370000000     0.6780000000
  126      H      -0.5710000000     7.7770000000     0.2070000000
  127      H      -1.3990000000     6.9790000000     1.5550000000
  128      C      -2.5770000000     4.9380000000     0.1940000000
  129      H      -3.1320000000     5.1390000000     1.1200000000
  130      H      -3.2440000000     4.4240000000    -0.5050000000
  131      H      -1.7660000000     4.2460000000     0.4380000000
  132      H      -4.9760000000     7.6470000000    -1.6170000000
  133      H      -7.4480000000     5.3470000000     3.0760000000
  134      C      -6.7310000000     4.5990000000     3.4360000000
  135      H      -7.2880000000     3.6900000000     3.6790000000
  136      C      -5.6500000000     4.3180000000     2.3860000000
  137      H      -5.1090000000     5.2590000000     2.2120000000
  138      C      -4.6440000000     3.2820000000     2.8960000000
  139      H      -4.1720000000     3.6110000000     3.8290000000
  140      H      -5.1430000000     2.3240000000     3.0950000000
  141      H      -3.8510000000     3.0960000000     2.1640000000
  142      C      -6.2550000000     3.8810000000     1.0490000000
  143      H      -6.6950000000     2.8790000000     1.1350000000
  144      H      -7.0480000000     4.5630000000     0.7210000000
  145      H      -5.5030000000     3.8460000000     0.2530000000
  146      H      -6.2870000000     4.9750000000     4.3650000000
  147      H       3.0490000000    -4.2540000000     7.5270000000
  148      C       2.0180000000    -3.9370000000     7.7180000000
  149      H       1.7980000000    -4.1210000000     8.7750000000
  150      C       1.8190000000    -2.4580000000     7.3650000000
  151      H       0.7910000000    -2.1630000000     7.6080000000
  152      H       2.4730000000    -1.8480000000     8.0020000000
  153      C       2.0990000000    -2.1390000000     5.9120000000
  154      C       1.0950000000    -1.6630000000     5.0660000000
  155      H       0.0900000000    -1.5260000000     5.4590000000
  156      C       1.3640000000    -1.3560000000     3.7330000000
  157      H       0.5670000000    -0.9940000000     3.0890000000
  158      C       2.6460000000    -1.5300000000     3.2230000000
  159      H       2.8690000000    -1.3110000000     2.1840000000
  160      C       3.6520000000    -2.0190000000     4.0510000000
  161      H       4.6440000000    -2.1790000000     3.6410000000
  162      C       3.3820000000    -2.3150000000     5.3820000000
  163      H       4.1790000000    -2.6870000000     6.0230000000
  164      H       1.3600000000    -4.5710000000     7.1140000000
  165      H      -2.9520000000    -1.3220000000     5.8170000000
  166      C      -3.7200000000    -1.0900000000     5.0670000000
  167      H      -4.2930000000    -0.2270000000     5.4220000000
  168      C      -3.0720000000    -0.8110000000     3.7090000000
  169      H      -3.8750000000    -0.5690000000     2.9950000000
  170      C      -2.1430000000     0.4030000000     3.7770000000
  171      H      -1.3040000000     0.2180000000     4.4610000000
  172      H      -2.6770000000     1.2910000000     4.1350000000
  173      H      -1.7240000000     0.6410000000     2.7930000000
  174      C      -2.3430000000    -2.0540000000     3.1950000000
  175      H      -1.5530000000    -2.3630000000     3.8900000000
  176      H      -1.8730000000    -1.8730000000     2.2230000000
  177      H      -3.0330000000    -2.8980000000     3.0790000000
  178      H      -4.4040000000    -1.9440000000     5.0120000000
  179      H     -10.1490000000     0.2780000000     3.9890000000
  180      C      -9.9860000000     1.0690000000     3.2510000000
  181      H     -10.4850000000     1.9760000000     3.6080000000
  182      C      -8.4980000000     1.3340000000     3.0260000000
  183      H      -8.0340000000     1.6530000000     3.9670000000
  184      H      -8.3910000000     2.1710000000     2.3270000000
  185      C      -7.6970000000     0.1590000000     2.4650000000
  186      H      -8.1380000000    -0.2020000000     1.5260000000
  187      H      -6.6690000000     0.4870000000     2.2570000000
  188      S      -7.6200000000    -1.2200000000     3.6560000000
  189      C      -6.5420000000    -2.3550000000     2.7440000000
  190      H      -6.9680000000    -2.6130000000     1.7700000000
  191      H      -5.5410000000    -1.9360000000     2.6060000000
  192      H      -6.4560000000    -3.2660000000     3.3410000000
  193      H     -10.4730000000     0.7600000000     2.3190000000
  194      H      -6.2570000000    -5.6480000000     3.4260000000
  195      C      -5.1930000000    -5.9100000000     3.4180000000
  196      H      -5.1250000000    -6.9950000000     3.5580000000
  197      C      -4.5220000000    -5.4620000000     2.1210000000
  198      H      -4.6630000000    -4.3790000000     1.9980000000
  199      H      -5.0250000000    -5.9290000000     1.2620000000
  200      C      -3.0190000000    -5.7650000000     2.0300000000
  201      H      -2.5330000000    -5.3440000000     2.9240000000
  202      C      -2.7300000000    -7.2680000000     1.9980000000
  203      H      -3.1140000000    -7.7870000000     2.8830000000
  204      H      -3.1840000000    -7.7260000000     1.1100000000
  205      H      -1.6500000000    -7.4500000000     1.9510000000
  206      C      -2.4310000000    -5.0850000000     0.7960000000
  207      H      -2.5240000000    -3.9960000000     0.8660000000
  208      H      -2.9490000000    -5.4080000000    -0.1140000000
  209      H      -1.3710000000    -5.3220000000     0.6620000000
  210      H      -4.7220000000    -5.4330000000     4.2870000000
  211      H       0.1290000000    -6.1590000000     3.3170000000
  212      C       1.1280000000    -6.3510000000     2.9060000000
  213      H       1.0030000000    -6.9550000000     1.9980000000
  214      C       1.8510000000    -5.0380000000     2.5840000000
  215      H       1.9500000000    -4.4610000000     3.5140000000
  216      C       3.2580000000    -5.2950000000     2.0370000000
  217      H       3.7770000000    -4.3530000000     1.8270000000
  218      H       3.8630000000    -5.8720000000     2.7480000000
  219      H       3.2080000000    -5.8670000000     1.1000000000
  220      C       1.0420000000    -4.1980000000     1.5970000000
  221      H       1.5600000000    -3.2610000000     1.3690000000
  222      H       0.0570000000    -3.9450000000     2.0070000000
  223      H       0.8880000000    -4.7370000000     0.6510000000
  224      H       1.6870000000    -6.9490000000     3.6350000000
  225      H       6.2940000000    -4.2240000000     2.1940000000
  226      C       7.0730000000    -3.9920000000     1.4630000000
  227      H       6.7280000000    -4.3570000000     0.4910000000
  228      C       7.3410000000    -2.4980000000     1.4050000000
  229      H       7.6880000000    -2.1160000000     2.3740000000
  230      H       8.1260000000    -2.2560000000     0.6830000000
  231      C       6.1060000000    -1.7180000000     1.0320000000
  232      O       4.9750000000    -2.1640000000     1.0850000000
  233      O       6.3800000000    -0.4730000000     0.6670000000
  234      H       5.5290000000    -0.0420000000     0.3920000000
  235      H       7.9820000000    -4.5390000000     1.7360000000
  236      H      10.9500000000    -0.5230000000    -4.3340000000
  237      C      10.3080000000    -1.0920000000    -3.6530000000
  238      H      10.9540000000    -1.7270000000    -3.0340000000
  239      C       9.4640000000    -0.1660000000    -2.7820000000
  240      H      10.1220000000     0.4780000000    -2.1820000000
  241      H       8.8690000000     0.5060000000    -3.4130000000
  242      C       8.5410000000    -0.9200000000    -1.8240000000
  243      H       9.1200000000    -1.6850000000    -1.2910000000
  244      H       8.1160000000    -0.2530000000    -1.0670000000
  245      S       7.1590000000    -1.8170000000    -2.6070000000
  246      C       6.0250000000    -0.4370000000    -2.9310000000
  247      H       6.4760000000     0.2910000000    -3.6110000000
  248      H       5.7520000000     0.0570000000    -1.9940000000
  249      H       5.1140000000    -0.8250000000    -3.3990000000
  250      H       9.6680000000    -1.7470000000    -4.2530000000
  251      H       5.3480000000    -4.4080000000    -3.2760000000
  252      C       4.9080000000    -4.7730000000    -2.3430000000
  253      H       5.7320000000    -5.0580000000    -1.6800000000
  254      C       4.0310000000    -3.7030000000    -1.6960000000
  255      H       3.6100000000    -4.0470000000    -0.7440000000
  256      H       3.2010000000    -3.4120000000    -2.3490000000
  257      H       4.6180000000    -2.8060000000    -1.4840000000
  258      H       4.3380000000    -5.6810000000    -2.5770000000
  259      H       1.1700000000    -9.1090000000    -2.3030000000
  260      C       0.3790000000    -9.0540000000    -1.5480000000
  261      H       0.5440000000    -9.8480000000    -0.8120000000
  262      C       0.3710000000    -7.6700000000    -0.8770000000
  263      H      -0.3920000000    -7.6670000000    -0.0850000000
  264      H       1.3320000000    -7.5120000000    -0.3720000000
  265      C       0.1170000000    -6.5250000000    -1.8140000000
  266      C       1.0310000000    -5.6010000000    -2.2560000000
  267      H       2.0820000000    -5.5220000000    -2.0140000000
  268      N       0.4450000000    -4.6950000000    -3.1020000000
  269      H       0.8810000000    -3.8780000000    -3.5560000000
  270      C      -0.8850000000    -5.0060000000    -3.2120000000
  271      C      -1.9010000000    -4.3410000000    -3.9070000000
  272      H      -1.6820000000    -3.4440000000    -4.4790000000
  273      C      -3.1840000000    -4.8520000000    -3.8180000000
  274      H      -3.9970000000    -4.3330000000    -4.3190000000
  275      C      -3.4500000000    -6.0100000000    -3.0580000000
  276      H      -4.4690000000    -6.3860000000    -3.0080000000
  277      C      -2.4420000000    -6.6660000000    -2.3710000000
  278      H      -2.6630000000    -7.5510000000    -1.7770000000
  279      C      -1.1330000000    -6.1600000000    -2.4280000000
  280      H      -0.5740000000    -9.2460000000    -2.0530000000
  281      O       0.5890000000     0.4260000000    -3.8400000000
  282      H       0.2560000000    -0.4650000000    -4.0420000000
  283      H       1.5540000000     0.2380000000    -3.9620000000
  284      O      -6.9800000000     2.2860000000    -2.7830000000
  285      H      -6.3050000000     2.9790000000    -2.6330000000
  286      H      -6.7360000000     1.5570000000    -2.1860000000
  287      O      -1.0010000000     2.6380000000    -3.3730000000
  288      H      -0.4710000000     1.8610000000    -3.6640000000
  289      H      -0.3910000000     3.1300000000    -2.8100000000
  290      O      -8.0380000000    -1.0290000000    -3.3300000000
  291      H      -7.7450000000    -0.7370000000    -2.4530000000
  292      H      -7.7040000000    -0.3340000000    -3.9280000000
  293      O      -6.6610000000     0.8310000000    -5.0010000000
  294      H      -6.6950000000     1.4780000000    -4.2510000000
  295      H      -7.2800000000     1.1700000000    -5.6560000000
  296      O      -5.6250000000    -1.9270000000    -4.6380000000
  297      H      -5.6210000000    -1.0160000000    -4.9670000000
  298      H      -6.4910000000    -1.9710000000    -4.1970000000
 ----------------------------------------------------------------
 Nuclear Repulsion Energy =       31018.45485513 hartrees
 There are      463 alpha and      463 beta electrons
 Requested basis set is 6-31G(d)
 There are 828 shells and 2099 basis functions

 Total QAlloc Memory Limit  12000 MB
 Mega-Array Size      3911 MB
 MEM_STATIC part      4000 MB

 A cutoff of  1.0D-14 yielded  99434 shell pairs
 There are    617416 function pairs
 Smallest overlap matrix eigenvalue = 3.58E-04

 Scale SEOQF with 1.000000e-02/1.000000e-02/1.000000e-02

 Standard Electronic Orientation quadrupole field applied
 Nucleus-field energy     =     0.0000000836 hartrees
 Guess from superposition of atomic densities
 Warning:  Energy on first SCF cycle will be non-variational
 SAD guess density has 925.000003 electrons

 -----------------------------------------------------------------------
  General SCF calculation program by
  Eric Jon Sundstrom, Paul Horn, Yuezhi Mao, Dmitri Zuev, Alec White,
  David Stuck, Shaama M.S., Shane Yost, Joonho Lee, David Small,
  Daniel Levine, Susi Lehtola, Hugh Burton, Evgeny Epifanovsky,
  Bang C. Huynh
 -----------------------------------------------------------------------
=================================================
        Doing projection-based embedding         
      F. Manby et al. JCTC, 8, 2564 (2012)       
=================================================

****************************************************
   Low-level SCF calculation for the whole system   
****************************************************
----------------------------------------------
 Summary of the low-level theory: 
 Exchange:     0.1670 Hartree-Fock + 1.0000 wB97X-V + LR-HF
 Correlation:  1.0000 wB97X-V
 Using Euler-Maclaurin-Lebedev (75,302) quadrature formula
 Nonlocal Correlation:  VV10 with C = 0.0100 and b = 6.00 and scale = 1.00000
 Grid used for NLC:  SG-1 standard quadrature
----------------------------------------------
 using 8 threads for integral computing
 -------------------------------------------------------
 OpenMP Integral computing Module                
 Release: version 1.0, May 2013, Q-Chem Inc. Pittsburgh 
 -------------------------------------------------------
 A restricted SCF calculation will be
 performed using DIIS
 SCF converges when DIIS error is below 1.0e-08
 ---------------------------------------
  Cycle       Energy         DIIS error
 ---------------------------------------
    1   -5831.7332771709      1.67e-02  
    2   -5800.2768084410      1.55e-03  
    3   -5800.7085694941      1.42e-03  
    4   -5801.4863227000      2.29e-04  
    5   -5801.5051419368      1.16e-04  
    6   -5801.5107846207      2.72e-05  
    7   -5801.5111211414      7.21e-06  
    8   -5801.5111523938      2.53e-06  
    9   -5801.5111571532      1.09e-06  
   10   -5801.5111583932      4.24e-07  
   11   -5801.5111586011      2.08e-07  
   12   -5801.5111586630      7.51e-08  
   13   -5801.5111586713      2.89e-08  
   14   -5801.5111586729      1.31e-08  
   15   -5801.5111586733      5.61e-09  Convergence criterion met
 ---------------------------------------
 SCF time:   CPU 61162.08s  wall 7808.00s 
 SCF   energy in the final basis set =    -5801.5111586733
 Total energy in the final basis set =    -5801.5111586733

****************************************************
             Start embedding calculation            
****************************************************
----------------------------------------------
 Summary of the high-level theory: 
 Exchange:     0.1670 Hartree-Fock + 1.0000 wB97X-V + LR-HF
 Correlation:  1.0000 wB97X-V
 Using Euler-Maclaurin-Lebedev (75,302) quadrature formula
 Nonlocal Correlation:  VV10 with C = 0.0100 and b = 6.00 and scale = 1.00000
 Grid used for NLC:  SG-1 standard quadrature
----------------------------------------------
Doing R-in-R Embedding Calculation
Number of fragments: 2
Embedded fragment(s): 1 
NOcc for each fragment
           75
          388
NBasis for each fragment
          352
         1747
Variational space of the embedded problem: 
NOcc (active)  = 75
NOcc (fixed)   = 388
NVir (total)   = 1636
Read converged orbitals from disk
=========================================================
       Doing SPADE partition for the orbital space       
     D. Claudino and N. Mayhall JCTC 15, 1053 (2019)     
=========================================================
SPADE singular values:
 1.0000 1.0000 1.0000 1.0000 1.0000 1.0000 1.0000 1.0000 1.0000 1.0000
 1.0000 1.0000 1.0000 1.0000 1.0000 1.0000 1.0000 1.0000 1.0000 1.0000
 1.0000 1.0000 1.0000 1.0000 1.0000 1.0000 1.0000 1.0000 1.0000 1.0000
 1.0000 1.0000 1.0000 1.0000 1.0000 1.0000 1.0000 1.0000 0.9999 0.9999
 0.9999 0.9999 0.9999 0.9998 0.9997 0.9997 0.9997 0.9996 0.9995 0.9994
 0.9994 0.9993 0.9993 0.9991 0.9990 0.9989 0.9988 0.9988 0.9988 0.9986
 0.9984 0.9983 0.9982 0.9980 0.9976 0.9975 0.9973 0.9969 0.9966 0.9960
 0.9934 0.9911 0.9802 0.9746 0.9710 0.1607 0.1386 0.1313 0.1023 0.0990
 0.0960 0.0918 0.0911 0.0854 0.0804 0.0764 0.0733 0.0707 0.0676 0.0661
 0.0659 0.0649 0.0624 0.0617 0.0581 0.0536 0.0500 0.0454 0.0427 0.0421
 0.0394 0.0382 0.0368 0.0367 0.0330 0.0315 0.0290 0.0279 0.0256 0.0246
 0.0236 0.0233 0.0223 0.0210 0.0200 0.0177 0.0170 0.0159 0.0155 0.0148
 0.0138 0.0137 0.0132 0.0127 0.0122 0.0118 0.0109 0.0103 0.0101 0.0093
 0.0091 0.0084 0.0075 0.0075 0.0068 0.0066 0.0062 0.0057 0.0053 0.0052
 0.0050 0.0049 0.0048 0.0045 0.0043 0.0042 0.0039 0.0037 0.0035 0.0033
 0.0032 0.0031 0.0030 0.0028 0.0028 0.0027 0.0026 0.0025 0.0024 0.0023
 0.0023 0.0022 0.0021 0.0020 0.0020 0.0019 0.0018 0.0017 0.0017 0.0016
 0.0015 0.0015 0.0014 0.0014 0.0014 0.0013 0.0013 0.0012 0.0012 0.0011
 0.0010 0.0010 0.0009 0.0009 0.0009 0.0009 0.0008 0.0008 0.0008 0.0008
 0.0008 0.0007 0.0007 0.0007 0.0007 0.0007 0.0006 0.0006 0.0006 0.0006
 0.0005 0.0005 0.0005 0.0005 0.0005 0.0005 0.0005 0.0005 0.0004 0.0004
 0.0004 0.0004 0.0004 0.0004 0.0004 0.0004 0.0004 0.0004 0.0003 0.0003
 0.0003 0.0003 0.0003 0.0003 0.0003 0.0003 0.0003 0.0003 0.0003 0.0003
 0.0002 0.0002 0.0002 0.0002 0.0002 0.0002 0.0002 0.0002 0.0002 0.0002
 0.0002 0.0002 0.0002 0.0002 0.0002 0.0002 0.0002 0.0001 0.0001 0.0001
 0.0001 0.0001 0.0001 0.0001 0.0001 0.0001 0.0001 0.0001 0.0001 0.0001
 0.0001 0.0001 0.0001 0.0001 0.0001 0.0001 0.0001 0.0001 0.0001 0.0001
 0.0001 0.0001 0.0001 0.0001 0.0001 0.0001 0.0001 0.0001 0.0001 0.0001
 0.0001 0.0001 0.0001 0.0001 0.0000 0.0000 0.0000 0.0000 0.0000 0.0000
 0.0000 0.0000 0.0000 0.0000 0.0000 0.0000 0.0000 0.0000 0.0000 0.0000
 0.0000 0.0000 0.0000 0.0000 0.0000 0.0000 0.0000 0.0000 0.0000 0.0000
 0.0000 0.0000 0.0000 0.0000 0.0000 0.0000 0.0000 0.0000 0.0000 0.0000
 0.0000 0.0000 0.0000 0.0000 0.0000 0.0000 0.0000 0.0000 0.0000 0.0000
 0.0000 0.0000 0.0000 0.0000 0.0000 0.0000 0.0000 0.0000 0.0000 0.0000
 0.0000 0.0000 0.0000 0.0000 0.0000 0.0000 0.0000 0.0000 0.0000 0.0000
 0.0000 0.0000
Early stop requested; no embedded SCF will be performed

 388 environment occs will be part of frozen-core in future post-HF calculations
 
 --------------------------------------------------------------
 
                    Orbital Energies (a.u.)
 --------------------------------------------------------------
 
 Alpha MOs
 -- Occupied --
-88.8172 -88.7872 -19.1938 -19.1918 -19.1808 -19.1644 -19.1641 -19.1584
-19.1485 -19.1360 -19.1338 -19.1172 -19.1141 -19.0815 -19.0794 -14.4167
-14.3569 -10.3525 -10.3415 -10.2807 -10.2805 -10.2753 -10.2713 -10.2665
-10.2540 -10.2432 -10.2406 -10.2383 -10.2365 -10.2357 -10.2334 -10.2301
-10.2300 -10.2292 -10.2291 -10.2279 -10.2275 -10.2269 -10.2265 -10.2264
-10.2260 -10.2251 -10.2249 -10.2247 -10.2243 -10.2221 -10.2217 -10.2213
-10.2212 -10.2203 -10.2198 -10.2196 -10.2195 -10.2193 -10.2191 -10.2190
-10.2190 -10.2188 -10.2187 -10.2168 -10.2168 -10.2162 -10.2142 -10.2136
-10.2128 -10.2126 -10.2126 -10.2120 -10.2117 -10.2114 -10.2114 -10.2108
-10.2103 -10.2088 -10.2076 -10.2068 -10.2044 -10.2039 -10.2013 -10.2005
-10.1965 -10.1936 -10.1933 -10.1879 -10.1869 -10.1861 -10.1854 -10.1849
-10.1848 -10.1836 -10.1824 -10.1818 -10.1817 -10.1805 -10.1777  -7.9838
 -7.9529  -5.9418  -5.9376  -5.9301  -5.9109  -5.9067  -5.8997  -1.1588
 -1.1287  -1.1251  -1.1107  -1.0732  -1.0626  -1.0600  -1.0544  -1.0368
 -1.0356  -1.0145  -1.0138  -1.0129  -1.0114  -0.9632  -0.9311  -0.9304
 -0.9283  -0.9048  -0.9030  -0.8898  -0.8812  -0.8797  -0.8777  -0.8775
 -0.8751  -0.8602  -0.8601  -0.8587  -0.8552  -0.8510  -0.8481  -0.8471
 -0.8432  -0.8190  -0.8176  -0.8154  -0.8092  -0.8036  -0.8027  -0.8003
 -0.7972  -0.7929  -0.7906  -0.7869  -0.7866  -0.7758  -0.7672  -0.7661
 -0.7627  -0.7613  -0.7547  -0.7538  -0.7528  -0.7488  -0.7488  -0.7449
 -0.7383  -0.7323  -0.7270  -0.7249  -0.7196  -0.7016  -0.7015  -0.7005
 -0.7001  -0.6844  -0.6803  -0.6787  -0.6754  -0.6745  -0.6678  -0.6665
 -0.6603  -0.6535  -0.6474  -0.6461  -0.6420  -0.6402  -0.6385  -0.6344
 -0.6335  -0.6261  -0.6238  -0.6215  -0.6137  -0.6127  -0.6089  -0.5994
 -0.5971  -0.5911  -0.5815  -0.5807  -0.5688  -0.5661  -0.5632  -0.5546
 -0.5466  -0.5433  -0.5428  -0.5415  -0.5405  -0.5391  -0.5371  -0.5350
 -0.5338  -0.5329  -0.5274  -0.5250  -0.5246  -0.5239  -0.5222  -0.5219
 -0.5209  -0.5188  -0.5175  -0.5158  -0.5140  -0.5090  -0.5063  -0.5054
 -0.5020  -0.5018  -0.4986  -0.4977  -0.4967  -0.4952  -0.4950  -0.4940
 -0.4928  -0.4910  -0.4903  -0.4881  -0.4871  -0.4851  -0.4842  -0.4838
 -0.4828  -0.4811  -0.4801  -0.4790  -0.4778  -0.4749  -0.4748  -0.4716
 -0.4705  -0.4702  -0.4700  -0.4671  -0.4657  -0.4657  -0.4654  -0.4647
 -0.4625  -0.4612  -0.4602  -0.4601  -0.4595  -0.4571  -0.4550  -0.4536
 -0.4532  -0.4524  -0.4514  -0.4493  -0.4477  -0.4476  -0.4447  -0.4436
 -0.4429  -0.4423  -0.4406  -0.4402  -0.4389  -0.4381  -0.4376  -0.4372
 -0.4360  -0.4348  -0.4330  -0.4314  -0.4308  -0.4306  -0.4286  -0.4252
 -0.4239  -0.4225  -0.4219  -0.4213  -0.4185  -0.4170  -0.4165  -0.4163
 -0.4159  -0.4142  -0.4138  -0.4134  -0.4124  -0.4098  -0.4095  -0.4078
 -0.4066  -0.4056  -0.4015  -0.3997  -0.3994  -0.3984  -0.3970  -0.3951
 -0.3949  -0.3941  -0.3928  -0.3916  -0.3912  -0.3910  -0.3898  -0.3863
 -0.3842  -0.3835  -0.3829  -0.3828  -0.3822  -0.3817  -0.3814  -0.3812
 -0.3804  -0.3795  -0.3770  -0.3761  -0.3754  -0.3742  -0.3727  -0.3725
 -0.3723  -0.3709  -0.3705  -0.3695  -0.3688  -0.3678  -0.3669  -0.3649
 -0.3648  -0.3630  -0.3625  -0.3617  -0.3610  -0.3597  -0.3567  -0.3549
 -0.3547  -0.3541  -0.3527  -0.3511  -0.3493  -0.3476  -0.3447  -0.3445
 -0.3438  -0.3425  -0.3404  -0.3373  -0.3359  -0.3303  -0.3211  -0.3195
 -0.3172  -0.3168  -0.3131  -0.3050  -0.3039  -0.2988  -0.2849  -0.2821
 -0.2764  -0.2754  -0.2679  -0.2646  -0.2540  -0.2442  -0.2430  -0.2383
 -0.2382  -0.2381  -0.2136  -0.1906 -10.2043 -10.5106 -10.1611 -10.1134
-10.2221 -10.0447 -10.1048 -10.1840  -9.9934  -9.9332  -9.9540  -9.7393
 -9.8423  -9.6986  -9.9412  -9.8784  -9.9109 -13.5639 -11.6443  -1.3587
 -3.0711 -10.5223  -5.7141  -2.0865  -1.3553  -1.1003  -1.1472  -1.2586
 -0.8253  -1.0183  -0.9258  -0.8998  -1.1388  -1.0919  -0.9614  -0.7551
 -0.9454  -0.8996  -0.6220  -0.7693  -0.7260  -0.6162  -0.4834  -0.5143
 -1.9641  -0.4790  -0.5333  -0.4925  -0.4819  -0.4603  -0.4564  -0.6044
 -0.5105  -0.4792  -0.4726  -0.5111  -0.4865  -0.4803  -0.4502  -0.4453
 -0.4730  -0.4084  -0.4395  -0.4059  -0.4218  -0.4526  -0.4316  -0.4157
 -0.4081  -0.3611  -0.3597  -0.4102  -0.5037  -0.3657  -0.6430
 -- Virtual --
  0.0877   0.1365   0.1428   0.1459   0.1497   0.1511   0.1539   0.1578
  0.1594   0.1608   0.1649   0.1781   0.1824   0.1863   0.1927   0.1983
  0.2007   0.2022   0.2070   0.2079   0.2107   0.2149   0.2178   0.2214
  0.2222   0.2232   0.2255   0.2278   0.2284   0.2321   0.2344   0.2355
  0.2382   0.2392   0.2401   0.2410   0.2412   0.2441   0.2465   0.2473
  0.2500   0.2511   0.2527   0.2551   0.2570   0.2587   0.2588   0.2612
  0.2616   0.2631   0.2657   0.2660   0.2669   0.2687   0.2689   0.2702
  0.2716   0.2732   0.2741   0.2755   0.2768   0.2775   0.2782   0.2791
  0.2819   0.2833   0.2842   0.2843   0.2863   0.2867   0.2880   0.2888
  0.2902   0.2905   0.2917   0.2922   0.2942   0.2946   0.2953   0.2969
  0.2971   0.2989   0.3004   0.3007   0.3020   0.3029   0.3041   0.3048
  0.3059   0.3065   0.3078   0.3083   0.3101   0.3106   0.3109   0.3118
  0.3125   0.3129   0.3149   0.3152   0.3162   0.3175   0.3180   0.3195
  0.3204   0.3212   0.3226   0.3228   0.3235   0.3245   0.3254   0.3268
  0.3272   0.3285   0.3291   0.3299   0.3299   0.3310   0.3320   0.3323
  0.3332   0.3345   0.3352   0.3361   0.3369   0.3383   0.3388   0.3393
  0.3400   0.3408   0.3425   0.3429   0.3444   0.3449   0.3452   0.3466
  0.3470   0.3485   0.3492   0.3509   0.3512   0.3527   0.3546   0.3553
  0.3562   0.3566   0.3584   0.3591   0.3606   0.3608   0.3624   0.3632
  0.3641   0.3659   0.3659   0.3666   0.3672   0.3683   0.3693   0.3712
  0.3723   0.3726   0.3739   0.3755   0.3760   0.3767   0.3779   0.3784
  0.3801   0.3808   0.3828   0.3843   0.3847   0.3856   0.3865   0.3870
  0.3876   0.3891   0.3897   0.3907   0.3924   0.3934   0.3936   0.3942
  0.3957   0.3960   0.3978   0.3990   0.4000   0.4007   0.4009   0.4017
  0.4026   0.4041   0.4059   0.4070   0.4075   0.4084   0.4093   0.4099
  0.4110   0.4118   0.4135   0.4148   0.4157   0.4177   0.4185   0.4190
  0.4209   0.4215   0.4219   0.4236   0.4247   0.4250   0.4259   0.4269
  0.4280   0.4306   0.4312   0.4320   0.4336   0.4351   0.4365   0.4379
  0.4390   0.4404   0.4416   0.4429   0.4446   0.4452   0.4475   0.4477
  0.4485   0.4502   0.4506   0.4529   0.4539   0.4549   0.4567   0.4585
  0.4601   0.4611   0.4613   0.4623   0.4637   0.4653   0.4692   0.4705
  0.4715   0.4731   0.4743   0.4763   0.4777   0.4788   0.4795   0.4815
  0.4834   0.4841   0.4884   0.4903   0.4915   0.4916   0.4939   0.4947
  0.4971   0.4995   0.5027   0.5056   0.5072   0.5096   0.5117   0.5157
  0.5169   0.5195   0.5216   0.5252   0.5254   0.5297   0.5340   0.5346
  0.5382   0.5409   0.5420   0.5464   0.5479   0.5498   0.5534   0.5578
  0.5626   0.5651   0.5666   0.5712   0.5743   0.5847   0.5901   0.5943
  0.5968   0.6018   0.6077   0.6192   0.6326   0.6366   0.6383   0.6422
  0.6426   0.6452   0.6477   0.6515   0.6537   0.6543   0.6550   0.6581
  0.6588   0.6597   0.6630   0.6637   0.6655   0.6669   0.6681   0.6683
  0.6713   0.6720   0.6736   0.6747   0.6770   0.6775   0.6789   0.6796
  0.6814   0.6846   0.6854   0.6861   0.6873   0.6893   0.6906   0.6914
  0.6929   0.6935   0.6955   0.6987   0.6998   0.7017   0.7024   0.7033
  0.7036   0.7048   0.7064   0.7079   0.7102   0.7117   0.7141   0.7153
  0.7170   0.7178   0.7187   0.7200   0.7207   0.7223   0.7250   0.7260
  0.7272   0.7280   0.7289   0.7322   0.7335   0.7354   0.7363   0.7374
  0.7397   0.7408   0.7426   0.7432   0.7438   0.7454   0.7470   0.7488
  0.7496   0.7517   0.7519   0.7533   0.7549   0.7555   0.7560   0.7562
  0.7578   0.7588   0.7619   0.7630   0.7634   0.7648   0.7667   0.7682
  0.7694   0.7701   0.7717   0.7720   0.7724   0.7759   0.7761   0.7782
  0.7829   0.7832   0.7846   0.7868   0.7875   0.7884   0.7905   0.7918
  0.7927   0.7935   0.7949   0.7959   0.7981   0.7992   0.7993   0.8010
  0.8038   0.8049   0.8060   0.8074   0.8093   0.8102   0.8127   0.8129
  0.8139   0.8170   0.8174   0.8178   0.8200   0.8230   0.8237   0.8257
  0.8267   0.8281   0.8291   0.8309   0.8337   0.8347   0.8357   0.8368
  0.8377   0.8397   0.8411   0.8415   0.8424   0.8440   0.8452   0.8453
  0.8469   0.8484   0.8492   0.8508   0.8535   0.8545   0.8558   0.8564
  0.8570   0.8575   0.8586   0.8611   0.8620   0.8629   0.8642   0.8651
  0.8667   0.8669   0.8686   0.8701   0.8721   0.8731   0.8746   0.8763
  0.8792   0.8817   0.8822   0.8841   0.8856   0.8883   0.8910   0.8915
  0.8935   0.8940   0.8958   0.8967   0.8978   0.8992   0.9006   0.9047
  0.9061   0.9074   0.9077   0.9100   0.9125   0.9132   0.9156   0.9170
  0.9176   0.9196   0.9217   0.9226   0.9234   0.9247   0.9270   0.9279
  0.9288   0.9319   0.9325   0.9339   0.9352   0.9364   0.9390   0.9391
  0.9408   0.9431   0.9439   0.9449   0.9476   0.9490   0.9508   0.9514
  0.9521   0.9549   0.9572   0.9587   0.9608   0.9617   0.9631   0.9644
  0.9657   0.9660   0.9673   0.9717   0.9734   0.9759   0.9782   0.9800
  0.9824   0.9853   0.9865   0.9881   0.9892   0.9910   0.9929   0.9933
  0.9944   0.9954   0.9967   0.9992   0.9997   1.0028   1.0034   1.0041
  1.0049   1.0069   1.0076   1.0092   1.0101   1.0118   1.0124   1.0130
  1.0147   1.0156   1.0172   1.0184   1.0200   1.0213   1.0215   1.0251
  1.0260   1.0268   1.0276   1.0281   1.0293   1.0315   1.0323   1.0326
  1.0346   1.0361   1.0365   1.0372   1.0384   1.0394   1.0403   1.0416
  1.0437   1.0448   1.0464   1.0474   1.0484   1.0495   1.0500   1.0506
  1.0518   1.0527   1.0548   1.0558   1.0574   1.0577   1.0595   1.0598
  1.0605   1.0615   1.0642   1.0649   1.0660   1.0665   1.0682   1.0691
  1.0700   1.0701   1.0715   1.0726   1.0728   1.0736   1.0743   1.0756
  1.0764   1.0773   1.0783   1.0788   1.0796   1.0807   1.0815   1.0822
  1.0830   1.0848   1.0857   1.0859   1.0879   1.0903   1.0911   1.0920
  1.0931   1.0952   1.0968   1.0975   1.0980   1.0991   1.0996   1.1006
  1.1011   1.1021   1.1029   1.1041   1.1051   1.1073   1.1084   1.1094
  1.1104   1.1120   1.1130   1.1137   1.1142   1.1154   1.1170   1.1184
  1.1191   1.1205   1.1215   1.1228   1.1238   1.1239   1.1257   1.1276
  1.1281   1.1292   1.1294   1.1314   1.1318   1.1332   1.1338   1.1362
  1.1369   1.1382   1.1385   1.1390   1.1397   1.1402   1.1422   1.1430
  1.1457   1.1464   1.1480   1.1492   1.1510   1.1518   1.1534   1.1541
  1.1556   1.1560   1.1582   1.1589   1.1606   1.1613   1.1634   1.1638
  1.1658   1.1674   1.1685   1.1702   1.1710   1.1713   1.1724   1.1752
  1.1761   1.1781   1.1791   1.1803   1.1815   1.1839   1.1850   1.1857
  1.1868   1.1876   1.1880   1.1916   1.1925   1.1938   1.1964   1.1975
  1.1986   1.2009   1.2015   1.2039   1.2045   1.2057   1.2061   1.2095
  1.2099   1.2124   1.2140   1.2146   1.2162   1.2168   1.2202   1.2225
  1.2242   1.2264   1.2278   1.2292   1.2306   1.2321   1.2338   1.2345
  1.2384   1.2414   1.2430   1.2455   1.2465   1.2476   1.2502   1.2521
  1.2542   1.2556   1.2565   1.2587   1.2601   1.2636   1.2676   1.2682
  1.2704   1.2714   1.2731   1.2750   1.2766   1.2791   1.2809   1.2819
  1.2834   1.2858   1.2892   1.2923   1.2940   1.2950   1.2990   1.3015
  1.3042   1.3052   1.3067   1.3089   1.3107   1.3123   1.3128   1.3158
  1.3171   1.3183   1.3219   1.3229   1.3250   1.3262   1.3278   1.3294
  1.3323   1.3359   1.3371   1.3387   1.3435   1.3449   1.3455   1.3483
  1.3501   1.3503   1.3553   1.3577   1.3602   1.3620   1.3633   1.3647
  1.3703   1.3721   1.3729   1.3752   1.3764   1.3802   1.3806   1.3817
  1.3838   1.3846   1.3854   1.3884   1.3940   1.3961   1.3995   1.4007
  1.4029   1.4044   1.4073   1.4096   1.4137   1.4164   1.4169   1.4183
  1.4241   1.4247   1.4269   1.4301   1.4321   1.4346   1.4384   1.4399
  1.4445   1.4466   1.4481   1.4525   1.4544   1.4553   1.4592   1.4594
  1.4630   1.4637   1.4681   1.4693   1.4758   1.4767   1.4791   1.4852
  1.4862   1.4895   1.4915   1.4968   1.5015   1.5046   1.5062   1.5083
  1.5096   1.5147   1.5183   1.5198   1.5247   1.5300   1.5310   1.5329
  1.5357   1.5381   1.5415   1.5431   1.5437   1.5519   1.5539   1.5555
  1.5573   1.5597   1.5610   1.5630   1.5648   1.5679   1.5692   1.5742
  1.5766   1.5808   1.5859   1.5870   1.5891   1.5935   1.5942   1.5967
  1.5972   1.5982   1.5997   1.6018   1.6026   1.6036   1.6072   1.6074
  1.6110   1.6122   1.6146   1.6171   1.6181   1.6189   1.6199   1.6222
  1.6243   1.6256   1.6269   1.6281   1.6292   1.6310   1.6331   1.6343
  1.6364   1.6380   1.6390   1.6398   1.6427   1.6432   1.6449   1.6464
  1.6507   1.6517   1.6520   1.6540   1.6565   1.6588   1.6621   1.6638
  1.6650   1.6664   1.6672   1.6717   1.6747   1.6781   1.6797   1.6812
  1.6824   1.6837   1.6850   1.6854   1.6877   1.6899   1.6920   1.6936
  1.6964   1.6977   1.7029   1.7047   1.7062   1.7102   1.7152   1.7160
  1.7185   1.7219   1.7237   1.7263   1.7316   1.7320   1.7368   1.7391
  1.7443   1.7459   1.7505   1.7599   1.7651   1.7694   1.7743   1.7792
  1.7883   1.7898   1.7920   1.7942   1.8009   1.8059   1.8071   1.8110
  1.8132   1.8177   1.8207   1.8236   1.8268   1.8312   1.8356   1.8411
  1.8434   1.8473   1.8510   1.8530   1.8563   1.8599   1.8619   1.8640
  1.8733   1.8769   1.8796   1.8818   1.8858   1.8878   1.8895   1.8916
  1.8927   1.8932   1.8963   1.8969   1.8977   1.9015   1.9028   1.9042
  1.9054   1.9079   1.9111   1.9129   1.9131   1.9151   1.9173   1.9182
  1.9203   1.9232   1.9253   1.9259   1.9287   1.9290   1.9310   1.9331
  1.9342   1.9358   1.9398   1.9422   1.9452   1.9470   1.9497   1.9519
  1.9534   1.9537   1.9570   1.9584   1.9604   1.9633   1.9639   1.9667
  1.9683   1.9712   1.9723   1.9753   1.9767   1.9784   1.9796   1.9822
  1.9831   1.9846   1.9860   1.9878   1.9899   1.9918   1.9930   1.9936
  1.9957   1.9974   1.9980   2.0017   2.0035   2.0077   2.0097   2.0124
  2.0137   2.0139   2.0148   2.0165   2.0182   2.0198   2.0211   2.0225
  2.0260   2.0263   2.0282   2.0302   2.0312   2.0354   2.0380   2.0469
  2.0493   2.0515   2.0535   2.0577   2.0596   2.0629   2.0645   2.0681
  2.0696   2.0706   2.0725   2.0735   2.0766   2.0775   2.0801   2.0812
  2.0845   2.0864   2.0898   2.0928   2.0964   2.0982   2.0993   2.1014
  2.1045   2.1064   2.1090   2.1104   2.1134   2.1147   2.1157   2.1169
  2.1173   2.1182   2.1196   2.1205   2.1238   2.1242   2.1267   2.1270
  2.1280   2.1289   2.1310   2.1327   2.1340   2.1355   2.1363   2.1373
  2.1386   2.1397   2.1424   2.1436   2.1441   2.1477   2.1490   2.1500
  2.1510   2.1530   2.1552   2.1565   2.1587   2.1602   2.1641   2.1652
  2.1662   2.1681   2.1686   2.1698   2.1723   2.1734   2.1754   2.1797
  2.1818   2.1833   2.1837   2.1846   2.1853   2.1864   2.1889   2.1909
  2.1937   2.1946   2.1961   2.1975   2.1999   2.2010   2.2038   2.2053
  2.2072   2.2129   2.2140   2.2152   2.2174   2.2200   2.2224   2.2231
  2.2287   2.2294   2.2316   2.2319   2.2332   2.2336   2.2354   2.2382
  2.2408   2.2455   2.2471   2.2489   2.2560   2.2578   2.2604   2.2609
  2.2635   2.2662   2.2668   2.2697   2.2715   2.2742   2.2754   2.2792
  2.2808   2.2854   2.2873   2.2914   2.2949   2.2959   2.2993   2.3008
  2.3053   2.3061   2.3076   2.3089   2.3103   2.3110   2.3120   2.3139
  2.3150   2.3172   2.3209   2.3238   2.3247   2.3274   2.3287   2.3299
  2.3328   2.3362   2.3385   2.3393   2.3414   2.3452   2.3488   2.3506
  2.3551   2.3579   2.3597   2.3647   2.3658   2.3677   2.3696   2.3738
  2.3790   2.3818   2.3832   2.3854   2.3875   2.3910   2.3969   2.4023
  2.4032   2.4050   2.4087   2.4127   2.4156   2.4178   2.4211   2.4229
  2.4230   2.4241   2.4258   2.4271   2.4275   2.4286   2.4288   2.4305
  2.4316   2.4323   2.4357   2.4365   2.4366   2.4414   2.4431   2.4444
  2.4459   2.4474   2.4494   2.4533   2.4541   2.4549   2.4562   2.4582
  2.4585   2.4590   2.4603   2.4610   2.4629   2.4641   2.4682   2.4704
  2.4713   2.4727   2.4732   2.4758   2.4794   2.4811   2.4837   2.4844
  2.4851   2.4861   2.4889   2.4899   2.4916   2.4925   2.4953   2.4958
  2.4968   2.4978   2.4982   2.4995   2.5012   2.5045   2.5100   2.5128
  2.5134   2.5171   2.5180   2.5221   2.5236   2.5263   2.5280   2.5283
  2.5296   2.5305   2.5317   2.5331   2.5373   2.5381   2.5393   2.5414
  2.5434   2.5474   2.5493   2.5520   2.5521   2.5524   2.5551   2.5602
  2.5613   2.5634   2.5640   2.5653   2.5773   2.5806   2.5859   2.5900
  2.5911   2.5920   2.5991   2.5996   2.6011   2.6054   2.6103   2.6132
  2.6163   2.6194   2.6251   2.6284   2.6305   2.6346   2.6509   2.6514
  2.6526   2.6585   2.6595   2.6628   2.6655   2.6678   2.6733   2.6786
  2.6806   2.6831   2.6852   2.6870   2.6880   2.6895   2.6918   2.6939
  2.6961   2.6975   2.6977   2.7024   2.7079   2.7089   2.7107   2.7136
  2.7198   2.7213   2.7221   2.7240   2.7326   2.7364   2.7396   2.7443
  2.7462   2.7508   2.7576   2.7643   2.7662   2.7685   2.7691   2.7734
  2.7791   2.7823   2.7856   2.7866   2.7919   2.7932   2.7969   2.8006
  2.8072   2.8083   2.8134   2.8177   2.8220   2.8251   2.8316   2.8333
  2.8366   2.8395   2.8426   2.8432   2.8445   2.8476   2.8493   2.8501
  2.8507   2.8523   2.8537   2.8544   2.8563   2.8641   2.8667   2.8699
  2.8729   2.8775   2.8775   2.8808   2.8817   2.8848   2.8873   2.8895
  2.8901   2.8922   2.8991   2.9002   2.9041   2.9062   2.9101   2.9133
  2.9159   2.9191   2.9213   2.9286   2.9335   2.9362   2.9373   2.9385
  2.9408   2.9454   2.9499   2.9523   2.9568   2.9627   2.9665   2.9692
  2.9722   2.9775   2.9866   2.9882   2.9958   3.0013   3.0102   3.0321
  3.0404   3.0447   3.0465   3.0538   3.0602   3.0725   3.0776   3.0814
  3.0858   3.0895   3.0915   3.0956   3.1104   3.1252   3.1282   3.1429
  3.1555   3.1684   3.1952   3.1961   3.2053   3.2101   3.2250   3.2257
  3.2437   3.2448   3.2591   3.2769   3.2966   3.3041   3.3149   3.3217
  3.3240   3.3622   3.3729   3.3834   3.4690   3.6039   3.6097   3.6180
  3.6665   3.9366   3.9794   3.9812   4.0925   4.1275   4.1422   4.1467
  4.1574   4.1890   4.2073   4.2669   4.2732   4.2822   4.2930   4.3138
  4.3160   4.3219   4.3269   4.3296   4.3339   4.3371   4.3416   4.3449
  4.3525   4.3542   4.3590   4.3624   4.3653   4.3688   4.3703   4.3765
  4.3780   4.3816   4.3831   4.3872   4.3920   4.3964   4.4073   4.4092
  4.4121   4.4211   4.4263   4.4427   4.4450   4.4539   4.4588   4.4679
  4.4732   4.4766   4.4804   4.4833   4.4891   4.4943   4.5022   4.5090
  4.5122   4.5187   4.5228   4.5263   4.5291   4.5325   4.5335   4.5360
  4.5424   4.5462   4.5506   4.5596   4.5616   4.5659   4.5760   4.5772
  4.5843   4.5892   4.5911   4.5977   4.6069   4.6167   4.6237   4.6243
  4.6305   4.6410   4.6426   4.6454   4.6509   4.6559   4.6683   4.6784
  4.6829   4.6909   4.6962   4.7107   4.7174   4.7224   4.7353   4.7525
  4.7595   4.7640   4.7784   4.8028   4.8076   4.8111   4.8147   4.8355
  4.8386   4.8433   4.8806   4.9046   4.9312   4.9520   4.9574   4.9735
  4.9904   5.0339   5.0451   5.0514
 --------------------------------------------------------------
 
          Ground-State Mulliken Net Atomic Charges

     Atom                 Charge (a.u.)
  ----------------------------------------
      1 C                     0.484013
      2 O                    -0.600362
      3 C                    -0.284005
      4 C                     0.168988
      5 C                    -0.203601
      6 C                    -0.317083
      7 C                    -0.403182
      8 C                    -0.394534
      9 C                    -0.315925
     10 C                    -0.128955
     11 C                    -0.135875
     12 C                    -0.134634
     13 C                     0.005695
     14 C                    -0.306787
     15 C                    -0.328673
     16 C                    -0.309438
     17 C                    -0.335140
     18 C                     0.109909
     19 C                    -0.514604
     20 O                    -0.667668
     21 H                     0.213253
     22 H                     0.213620
     23 H                     0.152180
     24 H                     0.163408
     25 H                     0.205267
     26 H                     0.182925
     27 H                     0.177599
     28 H                     0.235022
     29 H                     0.146881
     30 H                     0.194471
     31 H                     0.152571
     32 H                     0.129636
     33 H                     0.115132
     34 H                     0.132430
     35 H                     0.139426
     36 H                     0.183329
     37 H                     0.143148
     38 H                     0.168563
     39 H                     0.191525
     40 H                     0.142454
     41 H                     0.176938
     42 H                     0.122050
     43 H                     0.179485
     44 H                     0.122508
     45 H                     0.186965
     46 H                     0.419520
     47 H                     0.143027
     48 C                    -0.454174
     49 H                     0.157364
     50 C                    -0.346732
     51 H                     0.148003
     52 H                     0.151589
     53 C                     0.106765
     54 C                    -0.196187
     55 H                     0.140215
     56 C                    -0.181462
     57 H                     0.159716
     58 C                     0.321061
     59 O                    -0.732998
     60 H                     0.471399
     61 C                    -0.200635
     62 H                     0.167916
     63 C                    -0.200112
     64 H                     0.148520
     65 H                     0.160076
     66 H                     0.148471
     67 C                    -0.466984
     68 H                     0.157359
     69 C                    -0.112207
     70 H                     0.137107
     71 C                    -0.467523
     72 H                     0.142068
     73 H                     0.150556
     74 H                     0.156904
     75 C                    -0.467946
     76 H                     0.150263
     77 H                     0.164789
     78 H                     0.157944
     79 H                     0.140571
     80 H                     0.139453
     81 C                    -0.471608
     82 H                     0.165880
     83 C                    -0.342311
     84 H                     0.152313
     85 H                     0.142925
     86 C                     0.593894
     87 O                    -0.627243
     88 O                    -0.592779
     89 H                     0.155146
     90 H                     0.146352
     91 C                    -0.458207
     92 H                     0.165142
     93 C                    -0.357827
     94 H                     0.132699
     95 H                     0.188307
     96 C                     0.085315
     97 C                    -0.184081
     98 H                     0.135737
     99 C                    -0.199696
    100 H                     0.155974
    101 C                     0.346378
    102 O                    -0.692251
    103 H                     0.467905
    104 C                    -0.242856
    105 H                     0.172616
    106 C                    -0.219561
    107 H                     0.175486
    108 H                     0.139295
    109 H                     0.153588
    110 C                    -0.574666
    111 H                     0.257944
    112 H                     0.194723
    113 C                     0.604204
    114 O                    -0.539586
    115 N                    -0.613179
    116 H                     0.342568
    117 C                    -0.158299
    118 H                     0.210138
    119 C                    -0.299297
    120 H                     0.137125
    121 H                     0.149340
    122 C                    -0.122879
    123 H                     0.159273
    124 C                    -0.472426
    125 H                     0.178014
    126 H                     0.142948
    127 H                     0.146880
    128 C                    -0.504151
    129 H                     0.147630
    130 H                     0.187916
    131 H                     0.171877
    132 H                     0.159556
    133 H                     0.145225
    134 C                    -0.465289
    135 H                     0.153614
    136 C                    -0.117882
    137 H                     0.136997
    138 C                    -0.471318
    139 H                     0.149292
    140 H                     0.145682
    141 H                     0.177275
    142 C                    -0.482026
    143 H                     0.124830
    144 H                     0.151884
    145 H                     0.196040
    146 H                     0.148292
    147 H                     0.154990
    148 C                    -0.460619
    149 H                     0.146536
    150 C                    -0.346998
    151 H                     0.151241
    152 H                     0.155721
    153 C                     0.119199
    154 C                    -0.211410
    155 H                     0.141573
    156 C                    -0.149812
    157 H                     0.149211
    158 C                    -0.168706
    159 H                     0.190801
    160 C                    -0.151576
    161 H                     0.155400
    162 C                    -0.196808
    163 H                     0.137639
    164 H                     0.165041
    165 H                     0.140639
    166 C                    -0.450008
    167 H                     0.153201
    168 C                    -0.127012
    169 H                     0.138871
    170 C                    -0.477509
    171 H                     0.152645
    172 H                     0.153912
    173 H                     0.164568
    174 C                    -0.487015
    175 H                     0.156389
    176 H                     0.175138
    177 H                     0.157291
    178 H                     0.151610
    179 H                     0.176832
    180 C                    -0.467383
    181 H                     0.153757
    182 C                    -0.310009
    183 H                     0.171196
    184 H                     0.166274
    185 C                    -0.452471
    186 H                     0.182041
    187 H                     0.174539
    188 S                     0.090457
    189 C                    -0.641789
    190 H                     0.197737
    191 H                     0.198375
    192 H                     0.202215
    193 H                     0.157973
    194 H                     0.147796
    195 C                    -0.473175
    196 H                     0.153265
    197 C                    -0.279418
    198 H                     0.140944
    199 H                     0.144607
    200 C                    -0.112154
    201 H                     0.129596
    202 C                    -0.472292
    203 H                     0.140915
    204 H                     0.146179
    205 H                     0.165802
    206 C                    -0.482663
    207 H                     0.147409
    208 H                     0.174458
    209 H                     0.170281
    210 H                     0.145911
    211 H                     0.145956
    212 C                    -0.465752
    213 H                     0.150415
    214 C                    -0.109039
    215 H                     0.145595
    216 C                    -0.480181
    217 H                     0.191618
    218 H                     0.128888
    219 H                     0.138713
    220 C                    -0.468095
    221 H                     0.154668
    222 H                     0.144660
    223 H                     0.160076
    224 H                     0.136912
    225 H                     0.173547
    226 C                    -0.473535
    227 H                     0.185361
    228 C                    -0.384789
    229 H                     0.176957
    230 H                     0.186634
    231 C                     0.600819
    232 O                    -0.471665
    233 O                    -0.611979
    234 H                     0.471667
    235 H                     0.142635
    236 H                     0.144140
    237 C                    -0.468393
    238 H                     0.139066
    239 C                    -0.273077
    240 H                     0.144070
    241 H                     0.156249
    242 C                    -0.462313
    243 H                     0.162999
    244 H                     0.207521
    245 S                     0.061508
    246 C                    -0.644175
    247 H                     0.172727
    248 H                     0.173741
    249 H                     0.249587
    250 H                     0.181900
    251 H                     0.166166
    252 C                    -0.469292
    253 H                     0.147710
    254 C                    -0.491081
    255 H                     0.156100
    256 H                     0.159984
    257 H                     0.180601
    258 H                     0.140378
    259 H                     0.152648
    260 C                    -0.454156
    261 H                     0.136470
    262 C                    -0.349641
    263 H                     0.151607
    264 H                     0.150282
    265 C                     0.011395
    266 C                    -0.006934
    267 H                     0.174344
    268 N                    -0.723793
    269 H                     0.411831
    270 C                     0.266944
    271 C                    -0.194839
    272 H                     0.169700
    273 C                    -0.188642
    274 H                     0.181893
    275 C                    -0.181062
    276 H                     0.130042
    277 C                    -0.217393
    278 H                     0.130347
    279 C                     0.033356
    280 H                     0.154624
    281 O                    -0.872076
    282 H                     0.420559
    283 H                     0.428919
    284 O                    -0.884880
    285 H                     0.452486
    286 H                     0.430286
    287 O                    -0.839296
    288 H                     0.452937
    289 H                     0.388163
    290 O                    -0.862894
    291 H                     0.418346
    292 H                     0.403788
    293 O                    -0.835589
    294 H                     0.439404
    295 H                     0.396332
    296 O                    -0.847941
    297 H                     0.417517
    298 H                     0.419948
  ----------------------------------------
  Sum of atomic charges =    -1.000000

 -----------------------------------------------------------------
                    Cartesian Multipole Moments
 -----------------------------------------------------------------
    Charge (ESU x 10^10)
                -4.8032
    Dipole Moment (Debye)
         X      -1.2851      Y      12.6373      Z      11.1730
       Tot      16.9171
    Quadrupole Moments (Debye-Ang)
        XX    -873.7458     XY     -44.7324     YY    -807.5277
        XZ       8.2306     YZ     -49.3356     ZZ    -819.5298
    Octopole Moments (Debye-Ang^2)
       XXX     319.1187    XXY     224.4073    XYY    -190.8712
       YYY     522.5510    XXZ     165.0840    XYZ      80.8609
       YYZ      -2.4208    XZZ      26.4424    YZZ     280.5346
       ZZZ      11.0323
    Hexadecapole Moments (Debye-Ang^3)
      XXXX -104179.5224   XXXY   -1500.8088   XXYY  -29062.8255
      XYYY   -1605.7800   YYYY  -76102.0000   XXXZ    1023.7673
      XXYZ    -915.4183   XYYZ     420.2087   YYYZ   -1509.3748
      XXZZ  -24691.4208   XYZZ    -900.3835   YYZZ  -20282.4095
      XZZZ    1716.3995   YZZZ   -1305.0654   ZZZZ  -44151.2796
 -----------------------------------------------------------------
 Total job time:  7961.76s(wall), 61899.16s(cpu) 
 Tue Aug  6 15:11:51 2024

        *************************************************************
        *                                                           *
        *  Thank you very much for using Q-Chem.  Have a nice day.  *
        *                                                           *
        *************************************************************



Running Job 2 of 2 19nt_mm_min_distance_cutoff4_optimized_spade_wb97x-v_631gd.in
qchem 19nt_mm_min_distance_cutoff4_optimized_spade_wb97x-v_631gd.in_2102164.1 ./qchem2102164/ 1
srun -n 1 /cm/shared/apps/spack/0.17.3/cpu/b/opt/spack/linux-rocky8-zen2/gcc-10.2.0/qchem-6.0-rytxnwjazd34ekd2gqyi5ufsaimxsd3r/exe/qcprog.exe 19nt_mm_min_distance_cutoff4_optimized_spade_wb97x-v_631gd.in_2102164.1 ./qchem2102164/

                  Welcome to Q-Chem
     A Quantum Leap Into The Future Of Chemistry


 Q-Chem 6.0, Q-Chem, Inc., Pleasanton, CA (2022)

 License issued to: University of California, San Diego (site)

 E. Epifanovsky,  A. T. B. Gilbert,  Xintian Feng,  Joonho Lee,  Yuezhi Mao,  
 N. Mardirossian,  P. Pokhilko,  A. White,  M. Wormit,  M. P. Coons,  
 A. L. Dempwolff,  Zhengting Gan,  D. Hait,  P. R. Horn,  L. D. Jacobson,  
 I. Kaliman,  J. Kussmann,  A. W. Lange,  Ka Un Lao,  D. S. Levine,  Jie Liu,  
 S. C. McKenzie,  A. F. Morrison,  K. Nanda,  F. Plasser,  D. R. Rehn,  
 M. L. Vidal,  Zhi-Qiang You,  Ying Zhu,  B. Alam,  B. Albrecht,  
 A. Aldossary,  E. Alguire,  J. H. Andersen,  V. Athavale,  D. Barton,  
 K. Begam,  A. Behn,  N. Bellonzi,  Y. A. Bernard,  E. J. Berquist,  
 H. Burton,  A. Carreras,  K. Carter-Fenk,  Romit Chakraborty,  
 Chandrima Chakravarty,  Junhan Chen,  A. D. Chien,  K. D. Closser,  
 V. Cofer-Shabica,  L. Cunha,  S. Dasgupta,  Jia Deng,  M. de Wergifosse,  
 M. Diedenhofen,  Hainam Do,  S. Ehlert,  Po-Tung Fang,  S. Fatehi,  
 Qingguo Feng,  T. Friedhoff,  B. Ganoe,  J. Gayvert,  Qinghui Ge,  
 G. Gidofalvi,  M. Goldey,  J. Gomes,  C. Gonzalez-Espinoza,  S. Gulania,  
 A. Gunina,  J. A. Gyamfi,  M. W. D. Hanson-Heine,  P. H. P. Harbach,  
 A. W. Hauser,  M. F. Herbst,  M. Hernandez Vera,  M. Hodecker,  
 Z. C. Holden,  S. Houck,  Xunkun Huang,  Kerwin Hui,  B. C. Huynh,  
 K. Ikeda,  M. Ivanov,  Hyunjun Ji,  Zuxin Jin,  Hanjie Jiang,  B. Kaduk,  
 S. Kaehler,  R. Kang,  K. Khistyaev,  Jaehoon Kim,  Yongbin Kim,  
 P. Klunzinger,  Z. Koczor-Benda,  Joong Hoon Koh,  D. Kosenkov,  
 Saikiran Kotaru,  L. Koulias,  T. Kowalczyk,  C. M. Krauter,  K. Kue,  
 A. Kunitsa,  T. Kus,  A. Landau,  K. V. Lawler,  D. Lefrancois,  S. Lehtola,  
 Rain Li,  Shaozhi Li,  Yi-Pei Li,  Jiashu Liang,  M. Liebenthal,  
 Hung-Hsuan Lin,  You-Sheng Lin,  Fenglai Liu,  Kuan-Yu Liu,  
 M. Loipersberger,  A. Luenser,  C. Malbon,  A. Manjanath,  P. Manohar,  
 E. Mansoor,  S. F. Manzer,  Shan-Ping Mao,  A. V. Marenich,  T. Markovich,  
 S. Mason,  F. Matz,  S. A. Maurer,  P. F. McLaughlin,  M. F. S. J. Menger,  
 J.-M. Mewes,  S. A. Mewes,  P. Morgante,  Mohammad Mostafanejad,  
[...]
          217         218         219         220         221         222
    1   1.8154317   2.2041645   1.1956113  -0.3333782   0.5512591  -1.6797612
    2  -0.2547218  -2.6475976  -2.6917803  -0.3927313   0.9846387  -0.1347241
    3   0.2934822   1.8808291  -1.0343962   0.0162349  -0.3943866   0.9911714
          223         224         225         226         227         228
    1  -0.2132212   1.0710900   0.5347433   1.7768103   1.2257440   2.5954293
    2  -1.3775573  -2.9505636  -2.0699666  -2.0383802  -2.4493374  -0.7387636
    3  -1.1757781   2.3688207   2.0810222   0.7443819  -1.0945642   1.0325093
          229         230         231         232         233         234
    1   2.7262561   3.6195810   1.7421392  -0.4401956   1.7774220  -1.1532674
    2   0.0584238  -0.4326885  -0.4538109  -0.9126953   1.1762020   1.6898636
    3   2.7732325  -0.3510964   0.7326586   0.4913202   0.2790790  -0.5399095
          235         236         237         238         239         240
    1   3.0521905   2.6880448   2.2542789   3.0284145   2.1138350   3.0258857
    2  -2.3071445   0.7970120  -0.4290281  -1.4386406   0.9635522   1.6799533
    3   1.0621643  -2.0655011  -1.3154557   0.1867166  -0.7857689   0.4985024
          241         242         243         244         245         246
    1   0.9039364   2.3328089   3.2406457   1.6276028   1.3590619   0.4044300
    2   1.9894665   0.1337124  -1.6419053   1.4923991  -1.0994983   1.0496540
    3  -2.1445086   0.2719278   1.0062520   1.1417495  -1.1596016  -1.4356166
          247         248         249         250         251         252
    1   1.4984769   0.1841972  -0.4052784   0.9911988   1.9830650   1.4523315
    2   1.9911766   1.5143108   0.0104519  -1.4868287  -1.2059258  -1.9944063
    3  -2.6283448   0.3308804  -1.9614957  -2.3580847  -2.4842024  -0.9348597
          253         254         255         256         257         258
    1   2.5885517   0.5051504   0.0559232  -0.5277865   1.2470089   0.4837959
    2  -2.3319592  -0.7668585  -1.4764275  -0.2955455   0.5003209  -3.2003483
    3   0.3363644  -0.2666238   1.0774067  -1.1953041  -0.1458944  -1.1963975
          259         260         261         262         263         264
    1   1.6559188   0.2386046   0.4524507   0.3903254  -1.1219343   2.1312301
    2  -2.4315410  -2.8224529  -3.4799669  -2.2320775  -2.2179000  -1.9460875
    3  -1.8337171  -0.5468677   0.9367449   0.5022136   1.5853171   1.0036149
          265         266         267         268         269         270
    1   0.2526849   1.5532783   2.3948466   0.5952029   0.7255141  -0.6433315
    2  -2.0518727  -1.3558498  -1.4588981  -0.1469502   0.5566160  -0.5165149
    3  -0.1833386  -0.4360420  -0.2178302  -1.5360905  -1.9184645  -1.5461392
          271         272         273         274         275         276
    1  -0.8218653  -0.5519187  -1.9371042  -2.5561948  -2.2757723  -3.2512976
    2   0.3158980   1.2970182  -0.3350040   0.1552036  -1.5399208  -1.9311610
    3  -2.0475154  -2.6598642  -1.7596230  -2.1826985  -0.9833339  -0.7642921
          277         278         279         280         281         282
    1  -1.4171009  -1.6125950  -0.7164776  -1.5312103  -0.4953457  -1.7134966
    2  -2.3972865  -3.4438574  -1.8202417  -2.8116793   0.6246856  -1.6026670
    3  -0.3595527   0.4041564  -0.6701951  -1.3583041  -1.0660261  -1.6696912
          283         284         285         286         287         288
    1   1.8082576  -1.9231127  -0.3507503  -0.8364275  -0.7820160   0.4846481
    2   0.6575072   0.3209216   1.5394651  -1.7181034   0.0833476  -1.3274789
    3  -1.3342522  -0.7029050  -0.3835498   1.1197164  -1.1483255  -1.8420140
          289         290         291         292         293         294
    1   1.0930507  -1.9494700  -0.9352614  -1.1713247  -0.8661221  -1.1482253
    2   1.1557897  -0.8085517   0.1582753   1.0492255  -0.0873422   1.3919412
    3   0.6412943  -0.5751036   1.8495844  -2.0341024  -1.6240071  -0.0594760
          295         296         297         298
    1  -2.7569200  -0.5979767  -0.4816870  -2.9166850
    2   1.0165351  -0.8534952   1.5732161  -1.1084795
    3  -3.2506737  -1.2621753  -2.2240439  -0.0469479
 EField
            1           2           3           4           5           6
    1  -0.0274603  -0.0565146  -0.0124307  -0.0068397  -0.0032343  -0.0056835
    2  -0.0089814  -0.0139165  -0.0106829  -0.0043381  -0.0040712  -0.0036966
    3  -0.0089120  -0.0115337  -0.0112487  -0.0141839  -0.0158675  -0.0075108
            7           8           9          10          11          12
    1  -0.0162498  -0.0012220   0.0030926   0.0044961   0.0021231   0.0049434
    2  -0.0003431  -0.0014727  -0.0032758  -0.0016060  -0.0016097  -0.0031560
    3  -0.0073634  -0.0140051  -0.0093838  -0.0087187  -0.0106083  -0.0076504
           13          14          15          16          17          18
    1   0.0100255   0.0058192   0.0031226   0.0057989   0.0099476   0.0114279
    2  -0.0033946  -0.0009341  -0.0017959  -0.0043128  -0.0064253  -0.0066117
    3  -0.0051148  -0.0048184  -0.0101832  -0.0102220  -0.0090983  -0.0002367
           19          20          21          22          23          24
    1   0.0132120   0.0131235  -0.0067241  -0.0004415  -0.0043840  -0.0015520
    2  -0.0041480  -0.0100365  -0.0150046  -0.0111347  -0.0014775  -0.0048429
    3  -0.0060512   0.0201015  -0.0050323  -0.0225015  -0.0054413  -0.0052865
           25          26          27          28          29          30
    1  -0.0137558  -0.0177684  -0.0056005   0.0034047   0.0039093   0.0026676
    2  -0.0005998   0.0068704   0.0001627  -0.0001316  -0.0037794  -0.0030638
    3  -0.0079101  -0.0020147  -0.0094271  -0.0195974  -0.0110983  -0.0082881
           31          32          33          34          35          36
    1   0.0060593   0.0011682   0.0034847   0.0041878   0.0062726   0.0049787
    2   0.0002900  -0.0013731  -0.0018212  -0.0002378  -0.0010095  -0.0035664
    3  -0.0046158  -0.0112008  -0.0076106  -0.0044036  -0.0036401  -0.0164392
           37          38          39          40          41          42
    1   0.0004006   0.0061869   0.0005815   0.0083291   0.0152729   0.0064272
    2  -0.0046060  -0.0024661  -0.0037414  -0.0035267  -0.0097599  -0.0026736
    3  -0.0078220  -0.0098529  -0.0098609  -0.0069504  -0.0126145  -0.0030703
           43          44          45          46          47          48
    1   0.0101466   0.0222610   0.0110291   0.0040665   0.0092796  -0.0005441
    2  -0.0138569  -0.0002873   0.0015360  -0.0005784   0.0118325   0.0004965
    3  -0.0078070  -0.0056516  -0.0028443   0.0144787   0.0299461  -0.0001236
           49          50          51          52          53          54
    1  -0.0041178   0.0007246   0.0315670   0.0046321  -0.0027583  -0.0050651
    2   0.0264694   0.0004601   0.0124205  -0.0248704   0.0015927  -0.0042205
    3  -0.0195521   0.0010038  -0.0014206   0.0220976  -0.0025846   0.0022386
           55          56          57          58          59          60
    1   0.0246551   0.0016248   0.0104549   0.0182937   0.0288219  -0.0036658
    2   0.0294803   0.0026307   0.0214148   0.0182135   0.0631674   0.0109796
    3   0.0019483   0.0076334  -0.0316261   0.0322876  -0.0961190  -0.0098651
           61          62          63          64          65          66
    1   0.0078227  -0.0226885   0.0042256  -0.0093946  -0.0310043   0.0261543
    2   0.0123285  -0.0217614   0.0083209  -0.0173093  -0.0107377   0.0166516
    3   0.0121684   0.0183403  -0.0018702   0.0345593   0.0039734   0.0081162
           67          68          69          70          71          72
    1  -0.0000410  -0.0114958  -0.0007885   0.0120460   0.0016954  -0.0233282
    2  -0.0036318   0.0125842  -0.0005665  -0.0110046   0.0014895   0.0029480
    3  -0.0021944  -0.0284183  -0.0007806   0.0290002  -0.0017855   0.0232927
           73          74          75          76          77          78
    1  -0.0163638   0.0037426  -0.0039651   0.0053243   0.0273001  -0.0107982
    2   0.0076272  -0.0335586   0.0015839  -0.0312914   0.0170671   0.0071210
    3  -0.0298716  -0.0038250   0.0000015  -0.0033058   0.0017553  -0.0322231
           79          80          81          82          83          84
    1  -0.0234836   0.0175158  -0.0035090  -0.0338108  -0.0034788   0.0289589
    2   0.0060655  -0.0230957   0.0011948  -0.0070331   0.0027593   0.0099213
    3   0.0227040  -0.0127820   0.0015052  -0.0022726   0.0046943   0.0071151
           85          86          87          88          89          90
    1  -0.0085148  -0.0015611  -0.0926317   0.0389432   0.0036890   0.0043525
    2  -0.0286855  -0.0019437  -0.0195086   0.0840267   0.0284622   0.0275884
    3   0.0175121   0.0022038   0.0236777   0.0110321  -0.0139254   0.0160232
           91          92          93          94          95          96
    1   0.0007605   0.0277225  -0.0012899  -0.0289557  -0.0072829   0.0031307
    2  -0.0023180  -0.0049156  -0.0049376  -0.0013908  -0.0323092  -0.0020196
    3   0.0007936  -0.0161647  -0.0011040   0.0171040  -0.0138929   0.0020937
           97          98          99         100         101         102
    1   0.0041066  -0.0257967  -0.0041095   0.0024429  -0.0248598   0.0193710
    2  -0.0085423   0.0253219  -0.0046117   0.0235498   0.0013001   0.0729459
    3  -0.0016650   0.0039977  -0.0049306   0.0284180  -0.0186297   0.0828563
          103         104         105         106         107         108
    1   0.0275631  -0.0118421   0.0184657  -0.0041835  -0.0055998  -0.0233541
    2  -0.0313570   0.0018498  -0.0241483   0.0024219  -0.0272478   0.0026320
    3  -0.0058546  -0.0016134  -0.0104733   0.0053881  -0.0260677  -0.0230045
          109         110         111         112         113         114
    1   0.0072457   0.0037498   0.0307372  -0.0221644  -0.0006062  -0.0541596
    2   0.0215153  -0.0057205  -0.0235661  -0.0216799  -0.0102403  -0.0554917
    3  -0.0256667  -0.0014281   0.0038911  -0.0129833  -0.0053648   0.0681184
          115         116         117         118         119         120
    1  -0.0021150   0.0263772  -0.0047752  -0.0179237   0.0035990   0.0154179
    2  -0.0057414   0.0209711   0.0036956  -0.0261256  -0.0050017   0.0256504
    3   0.0041247  -0.0284513   0.0189651   0.0168933   0.0012736  -0.0138111
          121         122         123         124         125         126
    1  -0.0092726   0.0015198   0.0162927  -0.0011525   0.0255352   0.0126060
    2   0.0125292  -0.0032471  -0.0120347  -0.0045017  -0.0210799   0.0279768
    3   0.0290139  -0.0015946  -0.0291351  -0.0018588   0.0013702  -0.0099548
          127         128         129         130         131         132
    1  -0.0123564   0.0009817  -0.0163346  -0.0193973   0.0248703  -0.0222634
    2   0.0038195  -0.0010940   0.0023965  -0.0196551  -0.0257495   0.0236942
    3   0.0303219  -0.0024730   0.0275845  -0.0226864   0.0056559  -0.0053556
          133         134         135         136         137         138
    1  -0.0211612   0.0022925  -0.0169455   0.0000875   0.0171117  -0.0013966
    2   0.0213215  -0.0025725  -0.0276181  -0.0010192   0.0280608   0.0009434
    3  -0.0101581  -0.0028178   0.0072820  -0.0006292  -0.0057507  -0.0025728
          139         140         141         142         143         144
    1   0.0152332  -0.0139929   0.0247239   0.0033282  -0.0137402  -0.0232640
    2   0.0083918  -0.0310699  -0.0074069  -0.0006816  -0.0351523   0.0181979
    3   0.0274095   0.0055927  -0.0225495   0.0005858   0.0000925  -0.0117095
          145         146         147         148         149         150
    1   0.0216856   0.0126752   0.0293845  -0.0008800  -0.0070468  -0.0013667
    2  -0.0032763   0.0107455  -0.0113032  -0.0006641  -0.0067785   0.0001178
    3  -0.0258500   0.0275090  -0.0064327  -0.0016359   0.0315303   0.0001084
          151         152         153         154         155         156
    1  -0.0312085   0.0183171   0.0000520   0.0064784  -0.0353400   0.0037981
    2   0.0094287   0.0197132  -0.0001477  -0.0019993   0.0043241  -0.0047313
    3   0.0078069   0.0192983  -0.0067922  -0.0036650   0.0122217   0.0029776
          157         158         159         160         161         162
    1  -0.0310564  -0.0048932   0.0044736  -0.0091654   0.0310541  -0.0080528
    2   0.0115622  -0.0051583   0.0000148  -0.0019669  -0.0095405   0.0020861
    3  -0.0250175   0.0045847  -0.0354407   0.0026850  -0.0152149  -0.0058546
          163         164         165         166         167         168
    1   0.0260809  -0.0195222   0.0215974   0.0009703  -0.0190240  -0.0001159
    2  -0.0135491  -0.0197408  -0.0072343   0.0006321   0.0251593  -0.0001243
    3   0.0216239  -0.0189673   0.0225446  -0.0038890   0.0101941  -0.0015339
          169         170         171         172         173         174
    1  -0.0240378  -0.0017189   0.0251209  -0.0158410   0.0128053  -0.0006525
    2   0.0086784  -0.0026180  -0.0042468   0.0272972   0.0073667   0.0017493
    3  -0.0246045  -0.0016128   0.0185610   0.0087111  -0.0326900  -0.0016163
          175         176         177         178         179         180
    1   0.0249308   0.0153038  -0.0189955  -0.0219338  -0.0046866   0.0006482
    2  -0.0115994   0.0037251  -0.0270120  -0.0250971  -0.0249400  -0.0014789
    3   0.0178225  -0.0343898  -0.0065217  -0.0014208   0.0215812   0.0000268
          181         182         183         184         185         186
    1  -0.0155405  -0.0000934   0.0151682   0.0048734   0.0010611  -0.0101188
    2   0.0262874   0.0027589   0.0099932   0.0264167   0.0108055  -0.0091737
    3   0.0105213   0.0000709   0.0276444  -0.0211199  -0.0097812  -0.0272353
          187         188         189         190         191         192
    1   0.0335467  -0.0186694   0.0096564  -0.0110073   0.0324650   0.0051589
    2   0.0101980  -0.0019898  -0.0071802  -0.0088868   0.0140514  -0.0290190
    3  -0.0098955   0.0387894  -0.0079956  -0.0301903  -0.0056687   0.0158005
          193         194         195         196         197         198
    1  -0.0151648  -0.0314469   0.0022179   0.0022497   0.0050707  -0.0030469
    2  -0.0094726   0.0068675   0.0004110  -0.0312181   0.0000430   0.0330189
    3  -0.0268005  -0.0001509  -0.0026457   0.0034619  -0.0032084  -0.0077939
          199         200         201         202         203         204
    1  -0.0136771   0.0001152   0.0163891   0.0005483  -0.0108504  -0.0125340
    2  -0.0117738   0.0019450   0.0139706   0.0044441  -0.0154234  -0.0131817
    3  -0.0282613  -0.0028124   0.0258504  -0.0016626   0.0256411  -0.0280912
          205         206         207         208         209         210
    1   0.0315358   0.0004551  -0.0005666  -0.0120756   0.0325540   0.0143887
    2  -0.0042656   0.0003758   0.0349996  -0.0044504  -0.0032385   0.0137960
    3  -0.0028342  -0.0036688  -0.0044618  -0.0339040  -0.0098152   0.0257682
          211         212         213         214         215         216
    1  -0.0306765   0.0012349  -0.0049125  -0.0009821   0.0021796  -0.0045367
    2   0.0060791   0.0044642  -0.0170351   0.0015619   0.0196889   0.0032456
    3   0.0106493  -0.0034140  -0.0284344  -0.0011907   0.0274484  -0.0012392
          217         218         219         220         221         222
    1   0.0137607   0.0175382  -0.0021731   0.0002283   0.0132233  -0.0321662
    2   0.0280330  -0.0172970  -0.0159640  -0.0005826   0.0281989   0.0097160
    3  -0.0091826   0.0200477  -0.0299843  -0.0030542  -0.0125564   0.0077479
          223         224         225         226         227         228
    1  -0.0070832   0.0160349  -0.0272541  -0.0035646  -0.0135125   0.0041395
    2  -0.0116977  -0.0179203  -0.0102877  -0.0057453  -0.0138169  -0.0078594
    3  -0.0338612   0.0210640   0.0198698  -0.0006939  -0.0294476  -0.0006632
          229         230         231         232         233         234
    1   0.0144570   0.0264558   0.0008296  -0.1052218   0.1062164  -0.0031219
    2   0.0077727   0.0036088  -0.0314112  -0.0531215   0.0364109  -0.0150068
    3   0.0314759  -0.0227981   0.0085055   0.0040117   0.0030608   0.0021732
          235         236         237         238         239         240
    1   0.0261467   0.0195777  -0.0018391   0.0201018   0.0012182   0.0212613
    2  -0.0200385   0.0157960  -0.0012998  -0.0203880  -0.0008350   0.0202024
    3   0.0077198  -0.0218455  -0.0012701   0.0164924  -0.0024272   0.0156909
          241         242         243         244         245         246
    1  -0.0160633   0.0103195   0.0190984  -0.0089257  -0.0041204  -0.0132596
    2   0.0199569   0.0064171  -0.0245637   0.0154805  -0.0468354   0.0053493
    3  -0.0212883   0.0026725   0.0156655   0.0218297  -0.0099283  -0.0110822
          247         248         249         250         251         252
    1   0.0118657  -0.0065777  -0.0360158  -0.0206248   0.0120375  -0.0019412
    2   0.0204666   0.0065292  -0.0112576  -0.0203513   0.0111906   0.0007953
    3  -0.0280609   0.0109699  -0.0211249  -0.0181214  -0.0279161  -0.0013344
          253         254         255         256         257         258
    1   0.0234012  -0.0063043  -0.0172919  -0.0317082   0.0106814  -0.0182917
    2  -0.0082744   0.0028969  -0.0055091   0.0134429   0.0242907  -0.0270270
    3   0.0185686   0.0010812   0.0298162  -0.0175485   0.0078030  -0.0078918
          259         260         261         262         263         264
    1   0.0226379  -0.0003527   0.0047874  -0.0008728  -0.0227878   0.0278380
    2   0.0000661   0.0037407  -0.0236211   0.0011269   0.0032824   0.0071909
    3  -0.0235580  -0.0010447   0.0219249   0.0007347   0.0237904   0.0160995
          265         266         267         268         269         270
    1   0.0015269  -0.0061542   0.0349028   0.0040729   0.0141551  -0.0182550
    2   0.0080598  -0.0113922   0.0059384   0.0140010   0.0443758  -0.0006976
    3  -0.0032757   0.0123019   0.0095294  -0.0048071  -0.0167832   0.0049413
          271         272         273         274         275         276
    1  -0.0061510   0.0077733   0.0066762  -0.0258834   0.0100668  -0.0325428
    2  -0.0003722   0.0340949   0.0026879   0.0228604   0.0054086  -0.0103274
    3   0.0060958  -0.0159077   0.0052925  -0.0139046   0.0017298   0.0019566
          277         278         279         280         281         282
    1  -0.0017417  -0.0076551  -0.0009031  -0.0282855  -0.0419689  -0.0152119
    2   0.0119232  -0.0277325   0.0048642  -0.0039286   0.0763495  -0.0500736
    3  -0.0044588   0.0195915   0.0010344  -0.0165322   0.0338461   0.0009129
          283         284         285         286         287         288
    1   0.0390539  -0.0847296   0.0379574   0.0105341  -0.1022160   0.0246852
    2  -0.0141395   0.0228431   0.0414184  -0.0098179   0.0101892  -0.0471839
    3  -0.0010672  -0.0616956   0.0069086   0.0175282  -0.0250241  -0.0058592
          289         290         291         292         293         294
    1   0.0294426  -0.0640818   0.0072408   0.0186325   0.0696835   0.0004179
    2   0.0212503  -0.0954469  -0.0038051   0.0291373  -0.0803552   0.0314223
    3   0.0323748  -0.0376032   0.0259036  -0.0412084  -0.0010945   0.0320115
          295         296         297         298
    1  -0.0305011   0.0822314   0.0061067  -0.0362774
    2   0.0149176  -0.0826410   0.0448832  -0.0061932
    3  -0.0393166  -0.0072270  -0.0142314   0.0269715
  --- DONE ESP SUMMARY ---
 Total job time:  11.14s(wall), 43.84s(cpu) 
 Tue Aug  6 15:12:03 2024

        *************************************************************
        *                                                           *
        *  Thank you very much for using Q-Chem.  Have a nice day.  *
        *                                                           *
        *************************************************************


