 Entering Gaussian System, Link 0=g16
 Initial command:
 /cm/shared/apps/spack/cpu/opt/spack/linux-centos8-zen/gcc-8.3.1/gaussian-16.C.01-po5bqktfeugvmjyga3v7eigbecnokxng/g16/l1.exe "/scratch/hklem/job_26062715/Gau-1176180.inp" -scrdir="/scratch/hklem/job_26062715/"
 Entering Link 1 = /cm/shared/apps/spack/cpu/opt/spack/linux-centos8-zen/gcc-8.3.1/gaussian-16.C.01-po5bqktfeugvmjyga3v7eigbecnokxng/g16/l1.exe PID=   1176182.
  
 Copyright (c) 1988-2019, Gaussian, Inc.  All Rights Reserved.
  
 This is part of the Gaussian(R) 16 program.  It is based on
 the Gaussian(R) 09 system (copyright 2009, Gaussian, Inc.),
 the Gaussian(R) 03 system (copyright 2003, Gaussian, Inc.),
 the Gaussian(R) 98 system (copyright 1998, Gaussian, Inc.),
 the Gaussian(R) 94 system (copyright 1995, Gaussian, Inc.),
 the Gaussian 92(TM) system (copyright 1992, Gaussian, Inc.),
 the Gaussian 90(TM) system (copyright 1990, Gaussian, Inc.),
 the Gaussian 88(TM) system (copyright 1988, Gaussian, Inc.),
 the Gaussian 86(TM) system (copyright 1986, Carnegie Mellon
 University), and the Gaussian 82(TM) system (copyright 1983,
 Carnegie Mellon University). Gaussian is a federally registered
 trademark of Gaussian, Inc.
  
 This software contains proprietary and confidential information,
 including trade secrets, belonging to Gaussian, Inc.
  
 This software is provided under written license and may be
 used, copied, transmitted, or stored only in accord with that
 written license.
  
 The following legend is applicable only to US Government
 contracts under FAR:
  
                    RESTRICTED RIGHTS LEGEND
  
 Use, reproduction and disclosure by the US Government is
 subject to restrictions as set forth in subparagraphs (a)
 and (c) of the Commercial Computer Software - Restricted
 Rights clause in FAR 52.227-19.
  
 Gaussian, Inc.
 340 Quinnipiac St., Bldg. 40, Wallingford CT 06492
  
  
 ---------------------------------------------------------------
 Warning -- This program may not be used in any manner that
 competes with the business of Gaussian, Inc. or will provide
 assistance to any competitor of Gaussian, Inc.  The licensee
 of this program is prohibited from giving any competitor of
 Gaussian, Inc. access to this program.  By using this program,
 the user acknowledges that Gaussian, Inc. is engaged in the
 business of creating and licensing software in the field of
 computational chemistry and represents and warrants to the
 licensee that it is not a competitor of Gaussian, Inc. and that
 it will not use this program in any manner prohibited above.
 ---------------------------------------------------------------
  

 Cite this work as:
 Gaussian 16, Revision C.01,
 M. J. Frisch, G. W. Trucks, H. B. Schlegel, G. E. Scuseria, 
 M. A. Robb, J. R. Cheeseman, G. Scalmani, V. Barone, 
 G. A. Petersson, H. Nakatsuji, X. Li, M. Caricato, A. V. Marenich, 
 J. Bloino, B. G. Janesko, R. Gomperts, B. Mennucci, H. P. Hratchian, 
 J. V. Ortiz, A. F. Izmaylov, J. L. Sonnenberg, D. Williams-Young, 
 F. Ding, F. Lipparini, F. Egidi, J. Goings, B. Peng, A. Petrone, 
 T. Henderson, D. Ranasinghe, V. G. Zakrzewski, J. Gao, N. Rega, 
 G. Zheng, W. Liang, M. Hada, M. Ehara, K. Toyota, R. Fukuda, 
 J. Hasegawa, M. Ishida, T. Nakajima, Y. Honda, O. Kitao, H. Nakai, 
 T. Vreven, K. Throssell, J. A. Montgomery, Jr., J. E. Peralta, 
 F. Ogliaro, M. J. Bearpark, J. J. Heyd, E. N. Brothers, K. N. Kudin, 
 V. N. Staroverov, T. A. Keith, R. Kobayashi, J. Normand, 
 K. Raghavachari, A. P. Rendell, J. C. Burant, S. S. Iyengar, 
 J. Tomasi, M. Cossi, J. M. Millam, M. Klene, C. Adamo, R. Cammi, 
 J. W. Ochterski, R. L. Martin, K. Morokuma, O. Farkas, 
 J. B. Foresman, and D. J. Fox, Gaussian, Inc., Wallingford CT, 2019.
 
 ******************************************
 Gaussian 16:  ES64L-G16RevC.01  3-Jul-2019
                 1-Nov-2023 
 ******************************************
 %nprocshared=24
 Will use up to   24 processors via shared memory.
 %mem=48GB
 --------------------------------------------------------
 # HF/6-31+G* SCF=Tight Pop=MK IOp(6/33=2,6/42=6,6/43=20)
 --------------------------------------------------------
 1/38=1,172=1/1;
 2/12=2,17=6,18=5,40=1/2;
 3/5=1,6=6,7=11,11=9,25=1,30=1/1,2,3;
 4//1;
 5/5=2,32=2,38=5/2;
 6/7=2,8=2,9=2,10=2,15=8,20=1,28=1,33=2,42=6,43=20/1,2;
 99/5=1,9=1/99;
 -----------------
 EQU_b3lyp_opt_esp
 -----------------
 Symbolic Z-matrix:
 Charge = -1 Multiplicity = 1
 C                    0     4.69179  -0.14054   0.10871 
 O                    0     5.9474   -0.10798   0.21322 
 C                    0     3.83773   1.01019   0.08154 
 C                    0     2.44311   0.94101  -0.03638 
 C                    0     1.76487  -0.33598  -0.14365 
 C                    0     2.60105  -1.49677  -0.11608 
 C                    0     3.96251  -1.40907   0.00116 
 C                    0     1.62363   2.1133   -0.05148 
 C                    0     0.25674   2.03564  -0.16171 
 C                    0    -0.4088    0.78654  -0.26475 
 C                    0     0.34691  -0.39234  -0.26344 
 C                    0    -1.90392   0.70566  -0.45343 
 C                    0    -2.50296  -0.58033   0.16051 
 C                    0    -1.86128  -1.77196  -0.54706 
 C                    0    -0.327    -1.76549  -0.33704 
 C                    0    -2.84274   1.82778   0.03977 
 C                    0    -4.24087   1.1757   -0.07962 
 C                    0    -3.9961   -0.35048  -0.05939 
 O                    0    -4.85954  -1.19522  -0.19352 
 C                    0    -2.31187  -0.67541   1.69726 
 H                    0     2.1447   -2.48243  -0.18928 
 H                    0     4.57283  -2.31188   0.01831 
 H                    0     2.11048   3.08413   0.03286 
 H                    0    -0.3341    2.95095  -0.1703 
 H                    0    -2.11772   0.62318  -1.53842 
 H                    0    -2.09327  -1.70162  -1.6185 
 H                    0    -2.28848  -2.72081  -0.19816 
 H                    0    -0.09316  -2.31337   0.5875 
 H                    0     0.13204  -2.35936  -1.13812 
 H                    0    -2.75717   2.74126  -0.55755 
 H                    0     4.31483   1.987     0.16021 
 H                    0    -2.61631   2.09942   1.07721 
 H                    0    -4.72843   1.41959  -1.03257 
 H                    0    -4.94689   1.45782   0.71037 
 H                    0    -2.81715   0.1373    2.23177 
 H                    0    -2.73061  -1.62094   2.06113 
 H                    0    -1.25134  -0.62931   1.95641 
 
                          Input orientation:                          
 ---------------------------------------------------------------------
 Center     Atomic      Atomic             Coordinates (Angstroms)
 Number     Number       Type             X           Y           Z
 ---------------------------------------------------------------------
      1          6           0        4.691785   -0.140535    0.108710
      2          8           0        5.947395   -0.107975    0.213223
      3          6           0        3.837734    1.010190    0.081535
      4          6           0        2.443111    0.941010   -0.036375
      5          6           0        1.764874   -0.335981   -0.143653
      6          6           0        2.601049   -1.496772   -0.116083
      7          6           0        3.962510   -1.409069    0.001164
      8          6           0        1.623634    2.113302   -0.051484
      9          6           0        0.256738    2.035638   -0.161710
     10          6           0       -0.408795    0.786541   -0.264748
     11          6           0        0.346910   -0.392340   -0.263438
     12          6           0       -1.903921    0.705660   -0.453427
     13          6           0       -2.502962   -0.580332    0.160513
     14          6           0       -1.861281   -1.771960   -0.547064
     15          6           0       -0.327000   -1.765493   -0.337039
     16          6           0       -2.842741    1.827775    0.039768
     17          6           0       -4.240869    1.175698   -0.079620
     18          6           0       -3.996100   -0.350477   -0.059388
     19          8           0       -4.859536   -1.195223   -0.193521
     20          6           0       -2.311865   -0.675413    1.697258
     21          1           0        2.144704   -2.482425   -0.189284
     22          1           0        4.572832   -2.311876    0.018305
     23          1           0        2.110475    3.084125    0.032859
     24          1           0       -0.334098    2.950953   -0.170301
     25          1           0       -2.117724    0.623181   -1.538416
     26          1           0       -2.093270   -1.701624   -1.618504
     27          1           0       -2.288476   -2.720810   -0.198161
     28          1           0       -0.093159   -2.313370    0.587499
     29          1           0        0.132041   -2.359357   -1.138123
     30          1           0       -2.757167    2.741262   -0.557550
     31          1           0        4.314834    1.986998    0.160214
     32          1           0       -2.616310    2.099423    1.077213
     33          1           0       -4.728432    1.419587   -1.032573
     34          1           0       -4.946888    1.457816    0.710369
     35          1           0       -2.817147    0.137296    2.231768
     36          1           0       -2.730613   -1.620938    2.061130
     37          1           0       -1.251336   -0.629310    1.956412
 ---------------------------------------------------------------------
                    Distance matrix (angstroms):
                    1          2          3          4          5
     1  C    0.000000
     2  O    1.260373   0.000000
     3  C    1.433286   2.391298   0.000000
     4  C    2.499465   3.666425   1.401307   0.000000
     5  C    2.944265   4.203906   2.481861   1.449903   0.000000
     6  C    2.502217   3.638026   2.802374   2.444193   1.430868
     7  C    1.467170   2.382768   2.423807   2.798724   2.449917
     8  C    3.810380   4.868167   2.477254   1.430398   2.455083
     9  C    4.947575   6.092555   3.732860   2.448295   2.810583
    10  C    5.197582   6.436596   4.266490   2.865202   2.449399
    11  C    4.368047   5.627922   3.777823   2.494682   1.424130
    12  C    6.673483   7.921464   5.774558   4.373329   3.826360
    13  C    7.208362   8.463713   6.537616   5.178502   4.285633
    14  C    6.784855   8.020119   6.372932   5.113590   3.920941
    15  C    5.294089   6.512925   5.022413   3.884466   2.541031
    16  C    7.787688   9.002428   6.730448   5.360259   5.093682
    17  C    9.031071  10.272989   8.081905   6.688239   6.193402
    18  C    8.692047   9.950187   7.952373   6.567489   5.761608
    19  O    9.614127  10.869099   8.976748   7.610311   6.680089
    20  C    7.201437   8.410691   6.577947   5.313013   4.485975
    21  H    3.472876   4.501165   3.890765   3.439816   2.180269
    22  H    2.176475   2.604726   3.403012   3.888440   3.437298
    23  H    4.131265   4.994396   2.699444   2.169881   3.442052
    24  H    5.907169   6.997234   4.608054   3.430845   3.900042
    25  H    7.047390   8.285468   6.183971   4.812313   4.235555
    26  H    7.173370   8.399240   6.739501   5.483192   4.350338
    27  H    7.448223   8.650186   7.178373   5.985233   4.703193
    28  H    5.276944   6.441439   5.172424   4.172874   2.810149
    29  H    5.221976   6.380690   5.154956   4.176998   2.783732
    30  H    8.014708   9.191390   6.848194   5.527696   5.485398
    31  H    2.161282   2.656497   1.089940   2.153157   3.462782
    32  H    7.704782   8.885726   6.620611   5.308459   5.159116
    33  H    9.616496  10.856276   8.648008   7.256203   6.784926
    34  H    9.788807  11.017452   8.818468   7.445589   6.999629
    35  H    7.808241   8.997326   7.047899   5.784526   5.182811
    36  H    7.816363   9.000647   7.347436   6.142518   5.169293
    37  H    6.242883   7.425108   5.665841   4.481746   3.686982
                    6          7          8          9         10
     6  C    0.000000
     7  C    1.369312   0.000000
     8  C    3.740608   4.228500   0.000000
     9  C    4.239787   5.062142   1.373531   0.000000
    10  C    3.780844   4.898951   2.436502   1.419082   0.000000
    11  C    2.514483   3.765145   2.820140   2.431781   1.400304
    12  C    5.025859   6.252499   3.819248   2.553897   1.509153
    13  C    5.193005   6.520316   4.932484   3.816159   2.536676
    14  C    4.491532   5.860784   5.242661   4.374049   2.955562
    15  C    2.948644   4.317559   4.351042   3.849687   2.554368
    16  C    6.380576   7.535920   4.476422   3.112968   2.664769
    17  C    7.345425   8.601336   5.939048   4.579815   3.856230
    18  C    6.696236   8.028932   6.136096   4.877566   3.768785
    19  O    7.467078   8.826785   7.279973   6.051094   4.872531
    20  C    5.300902   6.540854   5.130612   4.171724   3.099750
    21  H    1.088633   2.119618   4.627225   4.896741   4.148758
    22  H    2.137845   1.089884   5.318349   6.128781   5.873407
    23  H    4.609497   4.860024   1.089323   2.138580   3.422599
    24  H    5.329192   6.123727   2.132719   1.089478   2.167759
    25  H    5.365077   6.593147   4.292923   3.086815   2.137605
    26  H    4.933139   6.275459   5.551990   4.648862   3.295615
    27  H    5.041077   6.390244   6.220511   5.394742   3.979842
    28  H    2.901830   4.196427   4.790731   4.426919   3.230387
    29  H    2.807956   4.107738   4.838420   4.503878   3.309375
    30  H    6.845897   7.917794   4.454420   3.120612   3.069449
    31  H    3.892307   3.417997   2.702467   4.071135   4.892276
    32  H    6.448055   7.533145   4.387627   3.129441   2.897868
    33  H    7.941435   9.197955   6.464713   5.098023   4.432783
    34  H    8.147636   9.386127   6.646942   5.307742   4.689963
    35  H    6.126943   7.302779   5.370137   4.333729   3.529061
    36  H    5.760407   7.006158   6.112868   5.218796   4.073881
    37  H    4.459663   5.622740   4.451856   3.723261   2.765513
                   11         12         13         14         15
    11  C    0.000000
    12  C    2.511561   0.000000
    13  C    2.887360   1.545816   0.000000
    14  C    2.619142   2.479755   1.527219   0.000000
    15  C    1.531379   2.933739   2.527247   1.548603   0.000000
    16  C    3.898040   1.543945   2.434956   3.777000   4.402557
    17  C    4.851829   2.412881   2.482262   3.817019   4.902575
    18  C    4.348002   2.376532   1.526647   2.610727   3.942291
    19  O    5.268452   3.523715   2.461071   3.073622   4.570524
    20  C    3.315651   2.588286   1.551497   2.538193   3.044064
    21  H    2.757901   5.159944   5.033996   4.084199   2.577818
    22  H    4.649991   7.160753   7.285968   6.481432   4.942991
    23  H    3.909445   4.691369   5.893076   6.300216   5.440304
    24  H    3.413218   2.754241   4.157329   4.977966   4.719398
    25  H    2.954873   1.108925   2.117360   2.604850   3.218037
    26  H    3.083003   2.681096   2.142439   1.098522   2.183104
    27  H    3.517285   3.457418   2.180894   1.097518   2.186162
    28  H    2.146651   3.671094   2.998814   2.169473   1.099828
    29  H    2.163423   3.742764   3.434331   2.160490   1.097784
    30  H    4.420549   2.209648   3.407818   4.601293   5.124956
    31  H    4.645982   6.378973   7.285158   7.264599   5.989580
    32  H    4.097182   2.189277   2.834479   4.265671   4.709419
    33  H    5.443689   2.970347   3.221156   4.317667   5.477327
    34  H    5.691720   3.343622   3.229421   4.640427   5.729760
    35  H    4.064213   2.892627   2.214452   3.504404   4.052186
    36  H    4.047742   3.524128   2.178768   2.753402   3.398451
    37  H    2.745593   2.831137   2.189571   2.818701   2.721255
                   16         17         18         19         20
    16  C    0.000000
    17  C    1.547327   0.000000
    18  C    2.466749   1.545811   0.000000
    19  O    3.641484   2.452955   1.215364   0.000000
    20  C    3.048779   3.210135   2.455206   3.214946   0.000000
    21  H    6.595824   7.359989   6.501657   7.121537   5.165786
    22  H    8.492814   9.479140   8.790888   9.500597   7.272960
    23  H    5.110070   6.632821   7.006801   8.182000   6.038331
    24  H    2.756619   4.292157   4.931734   6.137663   4.533196
    25  H    2.113613   2.634598   2.581440   3.554275   3.491937
    26  H    3.970923   3.906319   2.806636   3.152657   3.477811
    27  H    4.588403   4.359893   2.924674   2.989613   2.788693
    28  H    5.000929   5.460965   4.416374   4.957680   2.972730
    29  H    5.269614   5.721834   4.716017   5.211844   4.104599
    30  H    1.094792   2.209249   3.367784   4.477542   4.117781
    31  H    7.160359   8.597429   8.636182   9.717033   7.305072
    32  H    1.096064   2.197890   3.032770   4.183482   2.859520
    33  H    2.207343   1.097870   2.148610   2.749260   4.204854
    34  H    2.239199   1.096420   2.183219   2.804151   3.531000
    35  H    2.768255   2.906506   2.622451   3.439329   1.096133
    36  H    3.999012   3.832083   2.777071   3.130016   1.096253
    37  H    3.499051   4.042374   3.416859   4.238110   1.092707
                   21         22         23         24         25
    21  H    0.000000
    22  H    2.442946   0.000000
    23  H    5.571086   5.931293   0.000000
    24  H    5.972137   7.197979   2.456613   0.000000
    25  H    5.443642   7.470039   5.138367   3.235983   0.000000
    26  H    4.540126   6.891188   6.580415   5.180584   2.326313
    27  H    4.439594   6.876891   7.287071   5.999105   3.606621
    28  H    2.374869   4.700580   5.856328   5.324041   4.152314
    29  H    2.228509   4.589140   5.909052   5.417874   3.757288
    30  H    7.172926   8.921586   4.915290   2.462762   2.420176
    31  H    4.980698   4.308946   2.465584   4.759309   6.791402
    32  H    6.727897   8.500859   4.939920   2.736766   3.044568
    33  H    7.948386  10.076789   7.118742   4.732733   2.775957
    34  H    8.162448  10.262290   7.273945   4.927765   3.709153
    35  H    6.111006   8.093803   6.148208   4.455573   3.865173
    36  H    5.438312   7.615172   7.048946   5.623589   4.285841
    37  H    4.423927   6.364607   5.365765   4.264096   3.812241
                   26         27         28         29         30
    26  H    0.000000
    27  H    1.759039   0.000000
    28  H    3.039922   2.366999   0.000000
    29  H    2.369681   2.621656   1.740862   0.000000
    30  H    4.615801   5.493911   5.827296   5.890747   0.000000
    31  H    7.604838   8.117610   6.173017   6.170270   7.148237
    32  H    4.689181   4.996869   5.106746   5.686991   1.761888
    33  H    4.126664   4.877757   6.168092   6.157577   2.420404
    34  H    4.852715   5.035226   6.147815   6.616891   2.837205
    35  H    4.327842   3.788511   4.016154   5.127100   3.816351
    36  H    3.735294   2.551392   3.099551   4.356061   5.087925
    37  H    3.826060   3.176825   2.459950   3.805646   4.466351
                   31         32         33         34         35
    31  H    0.000000
    32  H    6.992445   0.000000
    33  H    9.139221   3.061770   0.000000
    34  H    9.293126   2.444960   1.756995   0.000000
    35  H    7.653619   2.285449   3.994146   2.931591   0.000000
    36  H    8.140578   3.849967   4.775675   4.026805   1.768613
    37  H    6.407312   3.175237   5.022172   4.423327   1.765013
                   36         37
    36  H    0.000000
    37  H    1.783971   0.000000
 Stoichiometry    C18H17O2(1-)
 Framework group  C1[X(C18H17O2)]
 Deg. of freedom   105
 Full point group                 C1      NOp   1
 Largest Abelian subgroup         C1      NOp   1
 Largest concise Abelian subgroup C1      NOp   1
                         Standard orientation:                         
 ---------------------------------------------------------------------
 Center     Atomic      Atomic             Coordinates (Angstroms)
 Number     Number       Type             X           Y           Z
 ---------------------------------------------------------------------
      1          6           0        4.691785   -0.140535    0.108710
      2          8           0        5.947395   -0.107975    0.213223
      3          6           0        3.837734    1.010190    0.081535
      4          6           0        2.443111    0.941010   -0.036375
      5          6           0        1.764874   -0.335981   -0.143653
      6          6           0        2.601049   -1.496772   -0.116083
      7          6           0        3.962510   -1.409069    0.001164
      8          6           0        1.623634    2.113302   -0.051484
      9          6           0        0.256738    2.035638   -0.161710
     10          6           0       -0.408795    0.786541   -0.264748
     11          6           0        0.346910   -0.392340   -0.263438
     12          6           0       -1.903921    0.705660   -0.453427
     13          6           0       -2.502962   -0.580332    0.160513
     14          6           0       -1.861281   -1.771960   -0.547064
     15          6           0       -0.327000   -1.765493   -0.337039
     16          6           0       -2.842741    1.827775    0.039768
     17          6           0       -4.240869    1.175698   -0.079620
     18          6           0       -3.996100   -0.350477   -0.059388
     19          8           0       -4.859536   -1.195223   -0.193521
     20          6           0       -2.311865   -0.675413    1.697258
     21          1           0        2.144704   -2.482425   -0.189284
     22          1           0        4.572832   -2.311876    0.018305
     23          1           0        2.110475    3.084125    0.032859
     24          1           0       -0.334098    2.950953   -0.170301
     25          1           0       -2.117724    0.623181   -1.538416
     26          1           0       -2.093270   -1.701624   -1.618504
     27          1           0       -2.288476   -2.720810   -0.198161
     28          1           0       -0.093159   -2.313370    0.587499
     29          1           0        0.132041   -2.359357   -1.138123
     30          1           0       -2.757167    2.741262   -0.557550
     31          1           0        4.314834    1.986998    0.160214
     32          1           0       -2.616310    2.099423    1.077213
     33          1           0       -4.728432    1.419587   -1.032573
     34          1           0       -4.946888    1.457816    0.710369
     35          1           0       -2.817147    0.137296    2.231768
     36          1           0       -2.730613   -1.620938    2.061130
     37          1           0       -1.251336   -0.629310    1.956412
 ---------------------------------------------------------------------
 Rotational constants (GHZ):           1.0031220           0.1844605           0.1627773
 Standard basis: 6-31+G(d) (6D, 7F)
 There are   414 symmetry adapted cartesian basis functions of A   symmetry.
 There are   414 symmetry adapted basis functions of A   symmetry.
   414 basis functions,   708 primitive gaussians,   414 cartesian basis functions
    71 alpha electrons       71 beta electrons
       nuclear repulsion energy      1485.2121904018 Hartrees.
 NAtoms=   37 NActive=   37 NUniq=   37 SFac= 1.00D+00 NAtFMM=   60 NAOKFM=F Big=F
 Integral buffers will be    131072 words long.
 Raffenetti 1 integral format.
 Two-electron integral symmetry is turned on.
 One-electron integrals computed using PRISM.
 NBasis=   414 RedAO= T EigKep=  1.56D-06  NBF=   414
 NBsUse=   408 1.00D-06 EigRej=  9.09D-07 NBFU=   408
 ExpMin= 4.38D-02 ExpMax= 5.48D+03 ExpMxC= 8.25D+02 IAcc=3 IRadAn=         5 AccDes= 0.00D+00
 Harris functional with IExCor=  205 and IRadAn=       5 diagonalized for initial guess.
 HarFok:  IExCor=  205 AccDes= 0.00D+00 IRadAn=         5 IDoV= 1 UseB2=F ITyADJ=14
 ICtDFT=  3500011 ScaDFX=  1.000000  1.000000  1.000000  1.000000
 FoFCou: FMM=F IPFlag=           0 FMFlag=      100000 FMFlg1=           0
         NFxFlg=           0 DoJE=T BraDBF=F KetDBF=T FulRan=T
         wScrn=  0.000000 ICntrl=       500 IOpCl=  0 I1Cent=   200000004 NGrid=           0
         NMat0=    1 NMatS0=      1 NMatT0=    0 NMatD0=    1 NMtDS0=    0 NMtDT0=    0
 Petite list used in FoFCou.
 Requested convergence on RMS density matrix=1.00D-08 within 128 cycles.
 Requested convergence on MAX density matrix=1.00D-06.
 Requested convergence on             energy=1.00D-06.
 No special actions if energy rises.
 SCF Done:  E(RHF) =  -841.305666347     A.U. after   18 cycles
            NFock= 18  Conv=0.34D-08     -V/T= 2.0020
 SCF density gives NOpUse=  1 NOpAll=  1.

 **********************************************************************

            Population analysis using the SCF Density.

 **********************************************************************

 Orbital symmetries:
 BldTbl:  Degeneracy threshold= 1.00D-02
       Occupied  (A) (A) (A) (A) (A) (A) (A) (A) (A) (A) (A) (A)
                 (A) (A) (A) (A) (A) (A) (A) (A) (A) (A) (A) (A)
                 (A) (A) (A) (A) (A) (A) (A) (A) (A) (A) (A) (A)
                 (A) (A) (A) (A) (A) (A) (A) (A) (A) (A) (A) (A)
                 (A) (A) (A) (A) (A) (A) (A) (A) (A) (A) (A) (A)
                 (A) (A) (A) (A) (A) (A) (A) (A) (A) (A) (A)
       Virtual   (A) (A) (A) (A) (A) (A) (A) (A) (A) (A) (A) (A)
                 (A) (A) (A) (A) (A) (A) (A) (A) (A) (A) (A) (A)
                 (A) (A) (A) (A) (A) (A) (A) (A) (A) (A) (A) (A)
                 (A) (A) (A) (A) (A) (A) (A) (A) (A) (A) (A) (A)
                 (A) (A) (A) (A) (A) (A) (A) (A) (A) (A) (A) (A)
                 (A) (A) (A) (A) (A) (A) (A) (A) (A) (A) (A) (A)
                 (A) (A) (A) (A) (A) (A) (A) (A) (A) (A) (A) (A)
                 (A) (A) (A) (A) (A) (A) (A) (A) (A) (A) (A) (A)
                 (A) (A) (A) (A) (A) (A) (A) (A) (A) (A) (A) (A)
                 (A) (A) (A) (A) (A) (A) (A) (A) (A) (A) (A) (A)
                 (A) (A) (A) (A) (A) (A) (A) (A) (A) (A) (A) (A)
                 (A) (A) (A) (A) (A) (A) (A) (A) (A) (A) (A) (A)
                 (A) (A) (A) (A) (A) (A) (A) (A) (A) (A) (A) (A)
                 (A) (A) (A) (A) (A) (A) (A) (A) (A) (A) (A) (A)
                 (A) (A) (A) (A) (A) (A) (A) (A) (A) (A) (A) (A)
                 (A) (A) (A) (A) (A) (A) (A) (A) (A) (A) (A) (A)
                 (A) (A) (A) (A) (A) (A) (A) (A) (A) (A) (A) (A)
                 (A) (A) (A) (A) (A) (A) (A) (A) (A) (A) (A) (A)
                 (A) (A) (A) (A) (A) (A) (A) (A) (A) (A) (A) (A)
                 (A) (A) (A) (A) (A) (A) (A) (A) (A) (A) (A) (A)
                 (A) (A) (A) (A) (A) (A) (A) (A) (A) (A) (A) (A)
                 (A) (A) (A) (A) (A) (A) (A) (A) (A) (A) (A) (A)
                 (A) (A) (A) (A) (A) (A) (A) (A) (A) (A) (A) (A)
                 (A) (A) (A) (A) (A) (A) (A) (A) (A) (A) (A) (A)
                 (A) (A) (A) (A) (A) (A) (A) (A) (A) (A) (A) (A)
                 (A) (A) (A) (A) (A) (A) (A) (A) (A) (A) (A) (A)
                 (A) (A) (A) (A) (A) (A) (A) (A) (A) (A) (A) (A)
                 (A) (A) (A) (A) (A) (A) (A) (A) (A) (A) (A) (A)
                 (A)
 The electronic state is 1-A.
 Alpha  occ. eigenvalues --  -20.48584 -20.33060 -11.25645 -11.16668 -11.16081
 Alpha  occ. eigenvalues --  -11.15643 -11.15172 -11.14621 -11.14471 -11.13980
 Alpha  occ. eigenvalues --  -11.13905 -11.13541 -11.12287 -11.11628 -11.11439
 Alpha  occ. eigenvalues --  -11.10956 -11.10954 -11.10061 -11.08662 -11.05469
 Alpha  occ. eigenvalues --   -1.31004  -1.15146  -1.08093  -1.03175  -0.98242
 Alpha  occ. eigenvalues --   -0.96011  -0.92996  -0.89673  -0.87127  -0.85018
 Alpha  occ. eigenvalues --   -0.82274  -0.81086  -0.75212  -0.71902  -0.70748
 Alpha  occ. eigenvalues --   -0.65491  -0.65410  -0.61804  -0.58316  -0.58002
 Alpha  occ. eigenvalues --   -0.55256  -0.55077  -0.54586  -0.52829  -0.51167
 Alpha  occ. eigenvalues --   -0.49911  -0.48843  -0.46909  -0.46511  -0.46157
 Alpha  occ. eigenvalues --   -0.45592  -0.45324  -0.44865  -0.43555  -0.42452
 Alpha  occ. eigenvalues --   -0.40998  -0.40593  -0.40088  -0.39291  -0.38388
 Alpha  occ. eigenvalues --   -0.37670  -0.36061  -0.35884  -0.33956  -0.32826
 Alpha  occ. eigenvalues --   -0.30580  -0.27259  -0.23212  -0.22212  -0.17034
 Alpha  occ. eigenvalues --   -0.09681
 Alpha virt. eigenvalues --    0.13468   0.14613   0.15150   0.15575   0.16452
 Alpha virt. eigenvalues --    0.16951   0.17327   0.18510   0.18885   0.19781
 Alpha virt. eigenvalues --    0.20218   0.21061   0.21268   0.21741   0.21858
 Alpha virt. eigenvalues --    0.22305   0.22614   0.23151   0.23357   0.23405
 Alpha virt. eigenvalues --    0.24775   0.25287   0.25550   0.26064   0.26751
 Alpha virt. eigenvalues --    0.27042   0.27880   0.28241   0.28662   0.28825
 Alpha virt. eigenvalues --    0.29132   0.29568   0.30020   0.30449   0.31183
 Alpha virt. eigenvalues --    0.32144   0.32674   0.33247   0.33373   0.33469
 Alpha virt. eigenvalues --    0.33954   0.35175   0.35431   0.35744   0.36145
 Alpha virt. eigenvalues --    0.36628   0.36970   0.37527   0.38045   0.38627
 Alpha virt. eigenvalues --    0.39078   0.39406   0.39427   0.39925   0.40645
 Alpha virt. eigenvalues --    0.40988   0.41761   0.42641   0.43036   0.43308
 Alpha virt. eigenvalues --    0.43564   0.44083   0.44511   0.44695   0.45214
 Alpha virt. eigenvalues --    0.45968   0.46243   0.46655   0.47738   0.48034
 Alpha virt. eigenvalues --    0.48584   0.48804   0.48981   0.50646   0.50824
 Alpha virt. eigenvalues --    0.51203   0.51398   0.51860   0.52347   0.52752
 Alpha virt. eigenvalues --    0.53044   0.53296   0.54260   0.54559   0.54977
 Alpha virt. eigenvalues --    0.55368   0.55514   0.56197   0.56491   0.57007
 Alpha virt. eigenvalues --    0.57904   0.58474   0.59172   0.59446   0.60194
 Alpha virt. eigenvalues --    0.60814   0.61643   0.62039   0.62734   0.63272
 Alpha virt. eigenvalues --    0.63982   0.64213   0.64910   0.65390   0.66042
 Alpha virt. eigenvalues --    0.66897   0.68521   0.69064   0.70879   0.71766
 Alpha virt. eigenvalues --    0.73358   0.75826   0.78800   0.79616   0.82244
 Alpha virt. eigenvalues --    0.83902   0.89207   0.91312   0.96170   0.97972
 Alpha virt. eigenvalues --    0.98295   0.99650   1.00576   1.02065   1.02414
 Alpha virt. eigenvalues --    1.03455   1.03559   1.04676   1.05426   1.07157
 Alpha virt. eigenvalues --    1.07837   1.08461   1.09242   1.09511   1.10948
 Alpha virt. eigenvalues --    1.11216   1.11988   1.12275   1.12418   1.13080
 Alpha virt. eigenvalues --    1.13671   1.13702   1.14303   1.15028   1.15577
 Alpha virt. eigenvalues --    1.16648   1.17571   1.18093   1.19341   1.21026
 Alpha virt. eigenvalues --    1.21793   1.22345   1.23927   1.24756   1.27617
 Alpha virt. eigenvalues --    1.28253   1.29075   1.29380   1.30031   1.30153
 Alpha virt. eigenvalues --    1.32213   1.33935   1.34012   1.34287   1.36300
 Alpha virt. eigenvalues --    1.36612   1.37079   1.37510   1.39249   1.40388
 Alpha virt. eigenvalues --    1.41551   1.43422   1.44220   1.44641   1.46365
 Alpha virt. eigenvalues --    1.47966   1.49224   1.50093   1.50202   1.51146
 Alpha virt. eigenvalues --    1.52649   1.53230   1.53696   1.55170   1.55327
 Alpha virt. eigenvalues --    1.56415   1.56742   1.59037   1.59842   1.60715
 Alpha virt. eigenvalues --    1.63950   1.64698   1.66114   1.66497   1.66911
 Alpha virt. eigenvalues --    1.67203   1.68287   1.69311   1.71131   1.72042
 Alpha virt. eigenvalues --    1.72234   1.75167   1.76386   1.79090   1.80058
 Alpha virt. eigenvalues --    1.81690   1.82707   1.85869   1.86785   1.88020
 Alpha virt. eigenvalues --    1.88353   1.89380   1.90510   1.91063   1.92275
 Alpha virt. eigenvalues --    1.92463   1.93503   1.94849   1.96030   1.99150
 Alpha virt. eigenvalues --    2.04523   2.06073   2.07945   2.09205   2.10197
 Alpha virt. eigenvalues --    2.12260   2.14401   2.17518   2.19243   2.21981
 Alpha virt. eigenvalues --    2.22286   2.22787   2.24095   2.25490   2.26709
 Alpha virt. eigenvalues --    2.28653   2.29644   2.29830   2.30804   2.31684
 Alpha virt. eigenvalues --    2.32965   2.34876   2.35865   2.37210   2.38016
 Alpha virt. eigenvalues --    2.39421   2.40308   2.41486   2.42523   2.43734
 Alpha virt. eigenvalues --    2.43971   2.45055   2.47297   2.47897   2.48850
 Alpha virt. eigenvalues --    2.50515   2.51629   2.52170   2.52526   2.54110
 Alpha virt. eigenvalues --    2.54476   2.56277   2.57791   2.61220   2.62900
 Alpha virt. eigenvalues --    2.64680   2.65315   2.67684   2.69424   2.70173
 Alpha virt. eigenvalues --    2.71491   2.72074   2.73588   2.75558   2.77204
 Alpha virt. eigenvalues --    2.78754   2.81325   2.82003   2.83170   2.84610
 Alpha virt. eigenvalues --    2.84866   2.87654   2.88360   2.89503   2.90193
 Alpha virt. eigenvalues --    2.94500   2.95001   3.01335   3.02396   3.06358
 Alpha virt. eigenvalues --    3.07749   3.09413   3.11965   3.12487   3.15240
 Alpha virt. eigenvalues --    3.15560   3.16952   3.17150   3.20449   3.22529
 Alpha virt. eigenvalues --    3.24767   3.27485   3.29142   3.33654   3.34954
 Alpha virt. eigenvalues --    3.35712   3.38760   3.44029   3.45823   3.51924
 Alpha virt. eigenvalues --    3.54183   3.62599   3.65905   3.69169   3.73753
 Alpha virt. eigenvalues --    3.88540   3.98285   4.75877   4.81376   4.83095
 Alpha virt. eigenvalues --    4.83732   4.85394   4.86930   4.89025   4.91085
 Alpha virt. eigenvalues --    4.94242   4.96633   4.98588   5.02147   5.03430
 Alpha virt. eigenvalues --    5.05703   5.12037   5.18361   5.24088   5.32150
 Alpha virt. eigenvalues --    5.39683   5.48497
          Condensed to atoms (all electrons):
               1          2          3          4          5          6
     1  C    6.625529   0.521318   0.213611  -0.636437   0.345525  -0.207261
     2  O    0.521318   8.688359  -0.199196  -0.000918  -0.048523   0.006130
     3  C    0.213611  -0.199196   8.268214  -0.444168  -0.121056   0.439962
     4  C   -0.636437  -0.000918  -0.444168   8.459769   0.368197  -0.126611
     5  C    0.345525  -0.048523  -0.121056   0.368197   7.314804  -0.604918
     6  C   -0.207261   0.006130   0.439962  -0.126611  -0.604918   7.608386
     7  C    0.235146  -0.206112  -1.161929   0.138343  -1.029418   0.657184
     8  C   -0.392337   0.028782  -0.440595  -0.170669  -0.520103   0.287681
     9  C   -0.071726   0.005141   0.129187  -1.403237  -0.312690   0.442958
    10  C   -0.087778   0.000700  -0.258166   0.440493  -0.247929  -0.619758
    11  C   -0.216461   0.000673  -0.428043   0.021282   1.256941  -1.054706
    12  C   -0.010262   0.000231   0.127999  -0.220559  -0.177304  -0.147354
    13  C   -0.039595  -0.000122  -0.081222  -0.136373  -0.146109  -0.273341
    14  C   -0.072392   0.000117   0.024377  -0.098014  -0.125108  -0.756914
    15  C   -0.096218  -0.000698  -0.094348  -0.648166  -0.073653   0.175579
    16  C   -0.002251   0.000011  -0.013177  -0.064153  -0.085441  -0.045894
    17  C    0.000397   0.000001  -0.001135  -0.024452  -0.026199  -0.018299
    18  C   -0.006135  -0.000003  -0.010558  -0.042700   0.003815  -0.046145
    19  O   -0.000007   0.000000  -0.000050  -0.000507   0.000041  -0.000843
    20  C    0.015047   0.000049   0.020183   0.027978   0.000798   0.138980
    21  H   -0.030381  -0.000363  -0.022263  -0.036905   0.051551   0.265341
    22  H    0.103016  -0.000225   0.023306   0.030662  -0.009701  -0.134603
    23  H    0.007260   0.000012   0.059856  -0.059839   0.006866   0.008455
    24  H   -0.000210  -0.000000   0.000758  -0.011111  -0.005480   0.002915
    25  H   -0.000223   0.000000  -0.000849   0.003484  -0.002064  -0.003617
    26  H    0.000113  -0.000000  -0.000305  -0.000065  -0.001368   0.007757
    27  H    0.000014  -0.000000   0.000350   0.002266   0.007880   0.006861
    28  H    0.003303  -0.000001   0.006337   0.025276  -0.006021   0.073095
    29  H   -0.000321   0.000001   0.000157  -0.015837  -0.004300  -0.035238
    30  H   -0.000010   0.000000  -0.000228   0.000856  -0.000418  -0.000239
    31  H    0.107592  -0.000122   0.291944  -0.150907   0.021922  -0.019762
    32  H   -0.000031  -0.000000   0.000659   0.000916   0.002136   0.000521
    33  H   -0.000000   0.000000   0.000004   0.000106   0.000105   0.000064
    34  H    0.000000   0.000000   0.000004  -0.000004   0.000041   0.000041
    35  H   -0.000010   0.000000   0.000063   0.002101  -0.007922  -0.001774
    36  H   -0.000059   0.000000   0.000108   0.000010   0.009034  -0.000836
    37  H    0.001025  -0.000000  -0.002162  -0.002390   0.004200   0.012678
               7          8          9         10         11         12
     1  C    0.235146  -0.392337  -0.071726  -0.087778  -0.216461  -0.010262
     2  O   -0.206112   0.028782   0.005141   0.000700   0.000673   0.000231
     3  C   -1.161929  -0.440595   0.129187  -0.258166  -0.428043   0.127999
     4  C    0.138343  -0.170669  -1.403237   0.440493   0.021282  -0.220559
     5  C   -1.029418  -0.520103  -0.312690  -0.247929   1.256941  -0.177304
     6  C    0.657184   0.287681   0.442958  -0.619758  -1.054706  -0.147354
     7  C    7.957740   0.161056   0.128247  -0.205822  -0.359127  -0.082633
     8  C    0.161056   7.274110   1.393462  -1.055783   0.011029  -0.393122
     9  C    0.128247   1.393462   7.690007  -0.648196  -0.185439  -0.349449
    10  C   -0.205822  -1.055783  -0.648196   8.099678   0.577761   0.138964
    11  C   -0.359127   0.011029  -0.185439   0.577761   7.277471  -0.187635
    12  C   -0.082633  -0.393122  -0.349449   0.138964  -0.187635   8.152769
    13  C    0.033965  -0.053881  -0.174344  -0.045784  -0.464968  -0.632924
    14  C   -0.062389  -0.089889  -0.271834  -0.318814   0.379318   0.095202
    15  C   -0.103709   0.146877   0.027229  -0.013214  -0.210115   0.239663
    16  C   -0.005919  -0.062976  -0.137808  -0.129600  -0.137538  -0.177492
    17  C   -0.003258  -0.027110  -0.315944   0.176203  -0.229665  -0.129501
    18  C    0.016878  -0.056385   0.002023  -0.060781  -0.210711  -0.342392
    19  O   -0.000025  -0.000088  -0.006103  -0.000809  -0.016054  -0.055061
    20  C   -0.011560   0.076103   0.082077  -0.266440   0.134227   0.020185
    21  H   -0.103088   0.005645  -0.000450  -0.002981   0.047220   0.002728
    22  H    0.324616   0.005300   0.000517   0.002514  -0.008985  -0.000062
    23  H    0.004430   0.355491  -0.052068   0.002029  -0.013869   0.002015
    24  H   -0.000709  -0.064359   0.372729  -0.083538   0.026611   0.046752
    25  H   -0.000139   0.000201   0.029419  -0.032140   0.025073   0.445815
    26  H    0.000746   0.001739   0.013641   0.000007   0.026486  -0.056828
    27  H   -0.000258  -0.000075   0.001312  -0.005120   0.004531   0.038435
    28  H    0.000170  -0.000425   0.014237   0.004025   0.041714  -0.041094
    29  H    0.007457  -0.002421   0.000984  -0.014676  -0.046153   0.002268
    30  H    0.000015   0.012458   0.012380  -0.009747  -0.008532  -0.080672
    31  H    0.019390   0.018155   0.024174   0.011565  -0.000316   0.000819
    32  H   -0.000020  -0.015345   0.027957  -0.042637   0.023327   0.065455
    33  H    0.000002   0.000259   0.007253  -0.014205   0.005660   0.024888
    34  H    0.000001   0.000198   0.002286   0.008569   0.003123   0.052663
    35  H   -0.000141  -0.002722  -0.006669  -0.041999   0.008023  -0.046945
    36  H    0.000046  -0.001099  -0.010285   0.008658  -0.021338   0.055177
    37  H    0.000519   0.010565   0.021266   0.041556  -0.015712  -0.040605
              13         14         15         16         17         18
     1  C   -0.039595  -0.072392  -0.096218  -0.002251   0.000397  -0.006135
     2  O   -0.000122   0.000117  -0.000698   0.000011   0.000001  -0.000003
     3  C   -0.081222   0.024377  -0.094348  -0.013177  -0.001135  -0.010558
     4  C   -0.136373  -0.098014  -0.648166  -0.064153  -0.024452  -0.042700
     5  C   -0.146109  -0.125108  -0.073653  -0.085441  -0.026199   0.003815
     6  C   -0.273341  -0.756914   0.175579  -0.045894  -0.018299  -0.046145
     7  C    0.033965  -0.062389  -0.103709  -0.005919  -0.003258   0.016878
     8  C   -0.053881  -0.089889   0.146877  -0.062976  -0.027110  -0.056385
     9  C   -0.174344  -0.271834   0.027229  -0.137808  -0.315944   0.002023
    10  C   -0.045784  -0.318814  -0.013214  -0.129600   0.176203  -0.060781
    11  C   -0.464968   0.379318  -0.210115  -0.137538  -0.229665  -0.210711
    12  C   -0.632924   0.095202   0.239663  -0.177492  -0.129501  -0.342392
    13  C   11.706988  -1.079611   0.537869  -0.479878   0.377503  -2.813741
    14  C   -1.079611  10.836218  -2.566991   0.051709  -0.290288   0.829456
    15  C    0.537869  -2.566991   8.913371  -0.069407   0.209111  -1.223644
    16  C   -0.479878   0.051709  -0.069407   6.727439  -0.375615   1.068686
    17  C    0.377503  -0.290288   0.209111  -0.375615   7.489327  -0.973729
    18  C   -2.813741   0.829456  -1.223644   1.068686  -0.973729  10.494886
    19  O    0.124913  -0.064067   0.009554  -0.012523  -0.061015   0.467016
    20  C   -0.598875  -0.116096   0.464156  -0.152832   0.151161  -1.150565
    21  H    0.001550   0.042553   0.096108   0.000173   0.000027   0.000284
    22  H   -0.000016  -0.000802  -0.005416   0.000002   0.000000  -0.000004
    23  H    0.000399  -0.000515   0.001261  -0.000118  -0.000033  -0.000125
    24  H    0.005855  -0.001562   0.008349   0.006803   0.010944   0.002190
    25  H   -0.124954   0.036064  -0.034654  -0.046249  -0.059012   0.075309
    26  H    0.032022   0.291237  -0.029071   0.006603  -0.011194   0.057267
    27  H   -0.028407   0.288562   0.028634   0.000166  -0.001168  -0.031325
    28  H   -0.065376  -0.097870   0.337081  -0.008951  -0.001652  -0.007539
    29  H    0.086584   0.017308   0.331071   0.004641  -0.001635   0.026516
    30  H    0.065512   0.008260  -0.001050   0.370558   0.009840  -0.029674
    31  H    0.000033   0.000104   0.000906   0.000070   0.000000   0.000004
    32  H    0.002665   0.016281  -0.011078   0.397887  -0.127583   0.014810
    33  H    0.057533   0.019619  -0.001166  -0.026026   0.304135  -0.027816
    34  H   -0.033647  -0.001268   0.000445  -0.053801   0.332277   0.016078
    35  H   -0.030578   0.027037  -0.026849   0.080905  -0.047833   0.142263
    36  H   -0.166183   0.047394  -0.016433  -0.023400   0.019447   0.002796
    37  H   -0.014383  -0.169599   0.125272  -0.003634   0.006577  -0.077831
              19         20         21         22         23         24
     1  C   -0.000007   0.015047  -0.030381   0.103016   0.007260  -0.000210
     2  O    0.000000   0.000049  -0.000363  -0.000225   0.000012  -0.000000
     3  C   -0.000050   0.020183  -0.022263   0.023306   0.059856   0.000758
     4  C   -0.000507   0.027978  -0.036905   0.030662  -0.059839  -0.011111
     5  C    0.000041   0.000798   0.051551  -0.009701   0.006866  -0.005480
     6  C   -0.000843   0.138980   0.265341  -0.134603   0.008455   0.002915
     7  C   -0.000025  -0.011560  -0.103088   0.324616   0.004430  -0.000709
     8  C   -0.000088   0.076103   0.005645   0.005300   0.355491  -0.064359
     9  C   -0.006103   0.082077  -0.000450   0.000517  -0.052068   0.372729
    10  C   -0.000809  -0.266440  -0.002981   0.002514   0.002029  -0.083538
    11  C   -0.016054   0.134227   0.047220  -0.008985  -0.013869   0.026611
    12  C   -0.055061   0.020185   0.002728  -0.000062   0.002015   0.046752
    13  C    0.124913  -0.598875   0.001550  -0.000016   0.000399   0.005855
    14  C   -0.064067  -0.116096   0.042553  -0.000802  -0.000515  -0.001562
    15  C    0.009554   0.464156   0.096108  -0.005416   0.001261   0.008349
    16  C   -0.012523  -0.152832   0.000173   0.000002  -0.000118   0.006803
    17  C   -0.061015   0.151161   0.000027   0.000000  -0.000033   0.010944
    18  C    0.467016  -1.150565   0.000284  -0.000004  -0.000125   0.002190
    19  O    8.183039  -0.026849   0.000000  -0.000000  -0.000000  -0.000001
    20  C   -0.026849   6.791289   0.000217   0.000012  -0.000044   0.002215
    21  H    0.000000   0.000217   0.481624  -0.001079   0.000001   0.000000
    22  H   -0.000000   0.000012  -0.001079   0.460646   0.000000  -0.000000
    23  H   -0.000000  -0.000044   0.000001   0.000000   0.461711  -0.000504
    24  H   -0.000001   0.002215   0.000000  -0.000000  -0.000504   0.480323
    25  H   -0.001006  -0.050355  -0.000000   0.000000   0.000001   0.000175
    26  H   -0.005314  -0.011477  -0.000011   0.000000  -0.000000   0.000001
    27  H   -0.001856   0.016745   0.000009  -0.000000   0.000000  -0.000000
    28  H   -0.000195   0.040034  -0.002380   0.000002  -0.000000   0.000002
    29  H    0.000018  -0.028376  -0.002624   0.000002  -0.000000   0.000002
    30  H   -0.000026  -0.009046   0.000000   0.000000   0.000002  -0.001552
    31  H   -0.000000   0.000008   0.000011  -0.000101   0.002029  -0.000007
    32  H   -0.000975  -0.020526   0.000000   0.000000   0.000001  -0.000544
    33  H   -0.007883  -0.013142   0.000000   0.000000   0.000000  -0.000003
    34  H   -0.003690   0.011371  -0.000000   0.000000   0.000000   0.000001
    35  H   -0.001767   0.302865   0.000000   0.000000   0.000000  -0.000000
    36  H    0.003489   0.441567   0.000000  -0.000000  -0.000000   0.000000
    37  H    0.000139   0.455694   0.000003   0.000000  -0.000000  -0.000004
              25         26         27         28         29         30
     1  C   -0.000223   0.000113   0.000014   0.003303  -0.000321  -0.000010
     2  O    0.000000  -0.000000  -0.000000  -0.000001   0.000001   0.000000
     3  C   -0.000849  -0.000305   0.000350   0.006337   0.000157  -0.000228
     4  C    0.003484  -0.000065   0.002266   0.025276  -0.015837   0.000856
     5  C   -0.002064  -0.001368   0.007880  -0.006021  -0.004300  -0.000418
     6  C   -0.003617   0.007757   0.006861   0.073095  -0.035238  -0.000239
     7  C   -0.000139   0.000746  -0.000258   0.000170   0.007457   0.000015
     8  C    0.000201   0.001739  -0.000075  -0.000425  -0.002421   0.012458
     9  C    0.029419   0.013641   0.001312   0.014237   0.000984   0.012380
    10  C   -0.032140   0.000007  -0.005120   0.004025  -0.014676  -0.009747
    11  C    0.025073   0.026486   0.004531   0.041714  -0.046153  -0.008532
    12  C    0.445815  -0.056828   0.038435  -0.041094   0.002268  -0.080672
    13  C   -0.124954   0.032022  -0.028407  -0.065376   0.086584   0.065512
    14  C    0.036064   0.291237   0.288562  -0.097870   0.017308   0.008260
    15  C   -0.034654  -0.029071   0.028634   0.337081   0.331071  -0.001050
    16  C   -0.046249   0.006603   0.000166  -0.008951   0.004641   0.370558
    17  C   -0.059012  -0.011194  -0.001168  -0.001652  -0.001635   0.009840
    18  C    0.075309   0.057267  -0.031325  -0.007539   0.026516  -0.029674
    19  O   -0.001006  -0.005314  -0.001856  -0.000195   0.000018  -0.000026
    20  C   -0.050355  -0.011477   0.016745   0.040034  -0.028376  -0.009046
    21  H   -0.000000  -0.000011   0.000009  -0.002380  -0.002624   0.000000
    22  H    0.000000   0.000000  -0.000000   0.000002   0.000002   0.000000
    23  H    0.000001  -0.000000   0.000000  -0.000000  -0.000000   0.000002
    24  H    0.000175   0.000001  -0.000000   0.000002   0.000002  -0.001552
    25  H    0.518363   0.001411  -0.000066  -0.000126   0.000228  -0.004681
    26  H    0.001411   0.500542  -0.024477   0.003075  -0.004827  -0.000002
    27  H   -0.000066  -0.024477   0.490456  -0.004306  -0.000811   0.000001
    28  H   -0.000126   0.003075  -0.004306   0.505806  -0.036326   0.000000
    29  H    0.000228  -0.004827  -0.000811  -0.036326   0.500245  -0.000000
    30  H   -0.004681  -0.000002   0.000001   0.000000  -0.000000   0.490328
    31  H    0.000000   0.000000   0.000000  -0.000000  -0.000000  -0.000000
    32  H    0.003098   0.000002   0.000002  -0.000000   0.000000  -0.024793
    33  H   -0.000122   0.000016  -0.000000   0.000000  -0.000000  -0.003456
    34  H   -0.000054  -0.000002   0.000001  -0.000000  -0.000000   0.000696
    35  H   -0.000169  -0.000106  -0.000154  -0.000013  -0.000002   0.000057
    36  H   -0.000109  -0.000051   0.002029   0.000087  -0.000020  -0.000000
    37  H    0.000012  -0.000068   0.000453  -0.002833   0.000103  -0.000019
              31         32         33         34         35         36
     1  C    0.107592  -0.000031  -0.000000   0.000000  -0.000010  -0.000059
     2  O   -0.000122  -0.000000   0.000000   0.000000   0.000000   0.000000
     3  C    0.291944   0.000659   0.000004   0.000004   0.000063   0.000108
     4  C   -0.150907   0.000916   0.000106  -0.000004   0.002101   0.000010
     5  C    0.021922   0.002136   0.000105   0.000041  -0.007922   0.009034
     6  C   -0.019762   0.000521   0.000064   0.000041  -0.001774  -0.000836
     7  C    0.019390  -0.000020   0.000002   0.000001  -0.000141   0.000046
     8  C    0.018155  -0.015345   0.000259   0.000198  -0.002722  -0.001099
     9  C    0.024174   0.027957   0.007253   0.002286  -0.006669  -0.010285
    10  C    0.011565  -0.042637  -0.014205   0.008569  -0.041999   0.008658
    11  C   -0.000316   0.023327   0.005660   0.003123   0.008023  -0.021338
    12  C    0.000819   0.065455   0.024888   0.052663  -0.046945   0.055177
    13  C    0.000033   0.002665   0.057533  -0.033647  -0.030578  -0.166183
    14  C    0.000104   0.016281   0.019619  -0.001268   0.027037   0.047394
    15  C    0.000906  -0.011078  -0.001166   0.000445  -0.026849  -0.016433
    16  C    0.000070   0.397887  -0.026026  -0.053801   0.080905  -0.023400
    17  C    0.000000  -0.127583   0.304135   0.332277  -0.047833   0.019447
    18  C    0.000004   0.014810  -0.027816   0.016078   0.142263   0.002796
    19  O   -0.000000  -0.000975  -0.007883  -0.003690  -0.001767   0.003489
    20  C    0.000008  -0.020526  -0.013142   0.011371   0.302865   0.441567
    21  H    0.000011   0.000000   0.000000  -0.000000   0.000000   0.000000
    22  H   -0.000101   0.000000   0.000000   0.000000   0.000000  -0.000000
    23  H    0.002029   0.000001   0.000000   0.000000   0.000000  -0.000000
    24  H   -0.000007  -0.000544  -0.000003   0.000001  -0.000000   0.000000
    25  H    0.000000   0.003098  -0.000122  -0.000054  -0.000169  -0.000109
    26  H    0.000000   0.000002   0.000016  -0.000002  -0.000106  -0.000051
    27  H    0.000000   0.000002  -0.000000   0.000001  -0.000154   0.002029
    28  H   -0.000000  -0.000000   0.000000  -0.000000  -0.000013   0.000087
    29  H   -0.000000   0.000000  -0.000000  -0.000000  -0.000002  -0.000020
    30  H   -0.000000  -0.024793  -0.003456   0.000696   0.000057  -0.000000
    31  H    0.469170   0.000000   0.000000  -0.000000  -0.000000   0.000000
    32  H    0.000000   0.471623   0.002062  -0.002904  -0.003089  -0.000029
    33  H    0.000000   0.002062   0.460590  -0.017107  -0.000044  -0.000004
    34  H   -0.000000  -0.002904  -0.017107   0.462585  -0.000479   0.000022
    35  H   -0.000000  -0.003089  -0.000044  -0.000479   0.513153  -0.028679
    36  H    0.000000  -0.000029  -0.000004   0.000022  -0.028679   0.489650
    37  H    0.000000   0.000136  -0.000002   0.000018  -0.024104  -0.022801
              37
     1  C    0.001025
     2  O   -0.000000
     3  C   -0.002162
     4  C   -0.002390
     5  C    0.004200
     6  C    0.012678
     7  C    0.000519
     8  C    0.010565
     9  C    0.021266
    10  C    0.041556
    11  C   -0.015712
    12  C   -0.040605
    13  C   -0.014383
    14  C   -0.169599
    15  C    0.125272
    16  C   -0.003634
    17  C    0.006577
    18  C   -0.077831
    19  O    0.000139
    20  C    0.455694
    21  H    0.000003
    22  H    0.000000
    23  H   -0.000000
    24  H   -0.000004
    25  H    0.000012
    26  H   -0.000068
    27  H    0.000453
    28  H   -0.002833
    29  H    0.000103
    30  H   -0.000019
    31  H    0.000000
    32  H    0.000136
    33  H   -0.000002
    34  H    0.000018
    35  H   -0.024104
    36  H   -0.022801
    37  H    0.449245
 Mulliken charges:
               1
     1  C   -0.308789
     2  O   -0.795240
     3  C   -0.327627
     4  C    0.772284
     5  C    0.161868
     6  C   -0.036477
     7  C   -0.349695
     8  C   -0.439726
     9  C   -0.482244
    10  C    0.693195
    11  C   -0.055103
    12  C   -0.340133
    13  C    0.450919
    14  C   -0.826792
    15  C   -0.426658
    16  C   -0.600967
    17  C   -0.360628
    18  C   -0.108471
    19  O   -0.521494
    20  C   -0.736778
    21  H    0.207480
    22  H    0.210399
    23  H    0.215295
    24  H    0.202963
    25  H    0.221937
    26  H    0.202500
    27  H    0.209319
    28  H    0.220863
    29  H    0.215982
    30  H    0.203181
    31  H    0.203318
    32  H    0.220018
    33  H    0.228682
    34  H    0.222536
    35  H    0.195584
    36  H    0.211813
    37  H    0.246688
 Sum of Mulliken charges =  -1.00000
 Mulliken charges with hydrogens summed into heavy atoms:
               1
     1  C   -0.308789
     2  O   -0.795240
     3  C   -0.124309
     4  C    0.772284
     5  C    0.161868
     6  C    0.171003
     7  C   -0.139296
     8  C   -0.224431
     9  C   -0.279281
    10  C    0.693195
    11  C   -0.055103
    12  C   -0.118196
    13  C    0.450919
    14  C   -0.414973
    15  C    0.010187
    16  C   -0.177768
    17  C    0.090589
    18  C   -0.108471
    19  O   -0.521494
    20  C   -0.082693
 DipInt: DoE/N= T F RetVal/Mat= T F Init=T NMatP=  1 IDeriv=0 Min/MaxMlt=  0  4
 Entering OneElI...
 OneElI was handed  6442012031 working-precision words.
 Multipole integrals L=0 to 4 MinM= 0 MaxM= 0.
 Requested accuracy = 0.1000D-12
 ShPair: Thresh= 1.00D-13 NBox=     0 BxSize= 0.00D+00 RnKept= 2.08D+01
         NSMCal=                 9045 NSMKep=                7801
 PrmmSu-InSpLW:  IPartL=    0 NPrtUS=    1 NPrtUL=    1 DoSpLW=F IThBeg=    0 IThEnd=    0 NThAct=    1.
 PrSmSu:  IncTry=   512 NBBP=           7801 NTPThr=   100 NPartT=    1 Incr=          78 LDynOK=F GPUOK=F.
 PrsmSu:  NPrtUS=   1 ThrOK=F IAlg=2 LenDen=           0 ISkipM=0 DoSpLW=F IThBeg=    0 IThEnd=    0.
 Prism:   IPart=     0 DynPar=F LinDyn=F Incr=          78.
 PRISM was handed  6441363716 working-precision words and  7801 shell-pairs
 IPart=  0 NShTot=        7801 NBatch=         192 AvBLen=        40.6
 PrsmSu-ThDecC:  IPartSL=    0    0 NPrtUSL=    1    1 IThBeg=    0 IThEnd=    0 CPU=   -1 GPU=   -1 NThAct=    1.
 PrSmSu:  NxtVal=             79.
 Electronic moments (au):
       -142.00000000         -6.10816781          0.45576357         -0.01254980
      -5212.94529847      -1000.14735463       -258.91940150         -9.96628488
         -3.81159602         -0.17873068      -7323.08084992       -445.29127492
       -309.45806873        349.42901183       1033.80854193       -577.11930607
        612.12286286        162.58692565        193.29095384        -65.66471361
    -381495.50433433     -16104.75537123      -2622.82676006       3090.08833484
      -7238.43010607        322.38149019       -354.66545309       1450.92778252
        348.82374695     -25619.93428190      -6962.73176487      -1611.67506056
       -109.76433304       -245.19475579       -507.17804656
 Electronic spatial extent (au):  <R**2>=           6472.0121
 DipInt: DoE/N= F T RetVal/Mat= T F Init=T NMatP=  1 IDeriv=0 Min/MaxMlt=  0  4
 Nuclear    moments (au):
        141.00000000          0.00000000          0.00000000         -0.00000000
       5019.78457316        907.58466959        164.52357957         -0.00000000
          0.00014614          0.00007727       6586.46648183        439.78051582
        309.53267866       -344.09666528       -932.64967884        561.65797529
       -654.38135783       -170.00943804       -191.47290262         72.96853324
     349210.78952248      12351.80334787       1598.69592546      -3880.02746471
       6733.59256450       -338.28683248        351.82739630      -1424.74498958
       -336.38994900      21604.10320673       3508.54595393        765.21391167
         76.62863064        242.02280150        501.81244762
 Total      moments (au):
         -1.00000000         -6.10816781          0.45576357         -0.01254980
       -193.16072531        -92.56268504        -94.39582193         -9.96628488
         -3.81144988         -0.17865340       -736.61436809         -5.51075910
          0.07460993          5.33234655        101.15886308        -15.46133078
        -42.25849497         -7.42251239          1.81805122          7.30381963
     -32284.71481184      -3752.95202336      -1024.13083460       -789.93912987
       -504.83754157        -15.90534230         -2.83805678         26.18279294
         12.43379796      -4015.83107517      -3454.18581094       -846.46114889
        -33.13570241         -3.17195429         -5.36559895
 Traceless Quadrup. (au):
        -66.45431455         34.14372572         32.31058883         -9.96628488
         -3.81144988         -0.17865340
 Charge=             -1.0000 electrons
 Dipole moment (field-independent basis, Debye):
    X=            -15.5254    Y=              1.1584    Z=             -0.0319  Tot=             15.5686
 Quadrupole moment (field-independent basis, Debye-Ang):
   XX=           -259.8078   YY=           -124.5000   ZZ=           -126.9656
   XY=            -13.4050   XZ=             -5.1265   YZ=             -0.2403
 Traceless Quadrupole moment (field-independent basis, Debye-Ang):
   XX=            -89.3833   YY=             45.9245   ZZ=             43.4588
   XY=            -13.4050   XZ=             -5.1265   YZ=             -0.2403
 Octapole moment (field-independent basis, Debye-Ang**2):
  XXX=           -524.2937  YYY=             -3.9223  ZZZ=              0.0531  XYY=              3.7954
  XXY=             72.0010  XXZ=            -11.0048  XZZ=            -30.0780  YZZ=             -5.2831
  YYZ=              1.2940  XYZ=              5.1986
 Hexadecapole moment (field-independent basis, Debye-Ang**3):
 XXXX=         -12159.9717 YYYY=          -1413.5417 ZZZZ=           -385.7368 XXXY=           -297.5290
 XXXZ=           -190.1460 YYYX=             -5.9907 YYYZ=             -1.0689 ZZZX=              9.8617
 ZZZY=              4.6832 XXYY=          -1512.5545 XXZZ=          -1301.0120 YYZZ=           -318.8179
 XXYZ=            -12.4805 YYXZ=             -1.1947 ZZXY=             -2.0209
 N-N= 1.485212190402D+03 E-N=-4.951555679031D+03  KE= 8.396064249914D+02
 Entering OneElI...
 OneElI was handed  6442096560 working-precision words.
 Calculate electrostatic properties
    NBasis =   414  MinDer = 0  MaxDer = 0
    NGrid  =    37  NMatD  =   1
 Requested accuracy = 0.1000D-12
 ShPair: Thresh= 1.00D-13 NBox=     0 BxSize= 0.00D+00 RnKept= 2.08D+01
         NSMCal=                 9045 NSMKep=                7333
 PrmmSu-InSpLW:  IPartL=    0 NPrtUS=   24 NPrtUL=    1 DoSpLW=F IThBeg=    0 IThEnd=   23 NThAct=   24.
 PrSmSu:  IncTry=   512 NBBP=         271321 NTPThr=   100 NPartT=   24 Incr=         113 LDynOK=F GPUOK=F.
 PrsmSu:  NPrtUS=  24 ThrOK=T IAlg=2 LenDen=           0 ISkipM=0 DoSpLW=F IThBeg=    0 IThEnd=   23.
 Prism:   IPart=     0 DynPar=F LinDyn=F Incr=         113.
 PRISM was handed   268203127 working-precision words and  7333 shell-pairs
 PRISM was handed   268203127 working-precision words and  7333 shell-pairs
 PRISM was handed   268203127 working-precision words and  7333 shell-pairs
 PRISM was handed   268203127 working-precision words and  7333 shell-pairs
 PRISM was handed   268203127 working-precision words and  7333 shell-pairs
 PRISM was handed   268203127 working-precision words and  7333 shell-pairs
 PRISM was handed   268203127 working-precision words and  7333 shell-pairs
 PRISM was handed   268203127 working-precision words and  7333 shell-pairs
 PRISM was handed   268203127 working-precision words and  7333 shell-pairs
 PRISM was handed   268203127 working-precision words and  7333 shell-pairs
 PRISM was handed   268203127 working-precision words and  7333 shell-pairs
 PRISM was handed   268203127 working-precision words and  7333 shell-pairs
 PRISM was handed   268203127 working-precision words and  7333 shell-pairs
 PRISM was handed   268203127 working-precision words and  7333 shell-pairs
 PRISM was handed   268203127 working-precision words and  7333 shell-pairs
 PRISM was handed   268203127 working-precision words and  7333 shell-pairs
 PRISM was handed   268203127 working-precision words and  7333 shell-pairs
 IPart=  0 NShTot=       12062 NBatch=         340 AvBLen=        35.5
 PrsmSu-ThDecC:  IPartSL=    0    0 NPrtUSL=   24    1 IThBeg=    0 IThEnd=   23 CPU=   -1 GPU=   -1 NThAct=   24.
 IPart=  9 NShTot=       11470 NBatch=         323 AvBLen=        35.5
 PrsmSu-ThDecC:  IPartSL=    9    0 NPrtUSL=   24    1 IThBeg=    0 IThEnd=   23 CPU=   -1 GPU=   -1 NThAct=   23.
 IPart= 18 NShTot=       10804 NBatch=         304 AvBLen=        35.5
 PrsmSu-ThDecC:  IPartSL=   18    0 NPrtUSL=   24    1 IThBeg=    0 IThEnd=   23 CPU=   -1 GPU=   -1 NThAct=   22.
 IPart= 11 NShTot=       11359 NBatch=         320 AvBLen=        35.5
 PrsmSu-ThDecC:  IPartSL=   11    0 NPrtUSL=   24    1 IThBeg=    0 IThEnd=   23 CPU=   -1 GPU=   -1 NThAct=   21.
 IPart=  2 NShTot=       11877 NBatch=         335 AvBLen=        35.5
 PrsmSu-ThDecC:  IPartSL=    2    0 NPrtUSL=   24    1 IThBeg=    0 IThEnd=   23 CPU=   -1 GPU=   -1 NThAct=   20.
 IPart= 16 NShTot=       10989 NBatch=         310 AvBLen=        35.4
 PrsmSu-ThDecC:  IPartSL=   16    0 NPrtUSL=   24    1 IThBeg=    0 IThEnd=   23 CPU=   -1 GPU=   -1 NThAct=   19.
 IPart= 10 NShTot=       11433 NBatch=         322 AvBLen=        35.5
 PrsmSu-ThDecC:  IPartSL=   10    0 NPrtUSL=   24    1 IThBeg=    0 IThEnd=   23 CPU=   -1 GPU=   -1 NThAct=   18.
 PRISM was handed   268203127 working-precision words and  7333 shell-pairs
 PRISM was handed   268203127 working-precision words and  7333 shell-pairs
 PRISM was handed   268203127 working-precision words and  7333 shell-pairs
 PRISM was handed   268203127 working-precision words and  7333 shell-pairs
 PRISM was handed   268203127 working-precision words and  7333 shell-pairs
 PRISM was handed   268203127 working-precision words and  7333 shell-pairs
 PRISM was handed   268203127 working-precision words and  7333 shell-pairs
 IPart= 23 NShTot=       10582 NBatch=         298 AvBLen=        35.5
 PrsmSu-ThDecC:  IPartSL=   23    0 NPrtUSL=   24    1 IThBeg=    0 IThEnd=   23 CPU=   -1 GPU=   -1 NThAct=   17.
 IPart= 13 NShTot=       11322 NBatch=         319 AvBLen=        35.5
 PrsmSu-ThDecC:  IPartSL=   13    0 NPrtUSL=   24    1 IThBeg=    0 IThEnd=   23 CPU=   -1 GPU=   -1 NThAct=   16.
 IPart= 19 NShTot=       10804 NBatch=         304 AvBLen=        35.5
 PrsmSu-ThDecC:  IPartSL=   19    0 NPrtUSL=   24    1 IThBeg=    0 IThEnd=   23 CPU=   -1 GPU=   -1 NThAct=   15.
 IPart=  3 NShTot=       11840 NBatch=         334 AvBLen=        35.4
 PrsmSu-ThDecC:  IPartSL=    3    0 NPrtUSL=   24    1 IThBeg=    0 IThEnd=   23 CPU=   -1 GPU=   -1 NThAct=   14.
 IPart= 20 NShTot=       10693 NBatch=         301 AvBLen=        35.5
 PrsmSu-ThDecC:  IPartSL=   20    0 NPrtUSL=   24    1 IThBeg=    0 IThEnd=   23 CPU=   -1 GPU=   -1 NThAct=   13.
 IPart=  5 NShTot=       11729 NBatch=         331 AvBLen=        35.4
 PrsmSu-ThDecC:  IPartSL=    5    0 NPrtUSL=   24    1 IThBeg=    0 IThEnd=   23 CPU=   -1 GPU=   -1 NThAct=   12.
 IPart=  1 NShTot=       11951 NBatch=         337 AvBLen=        35.5
 PrsmSu-ThDecC:  IPartSL=    1    0 NPrtUSL=   24    1 IThBeg=    0 IThEnd=   23 CPU=   -1 GPU=   -1 NThAct=   11.
 IPart= 15 NShTot=       11063 NBatch=         312 AvBLen=        35.5
 PrsmSu-ThDecC:  IPartSL=   15    0 NPrtUSL=   24    1 IThBeg=    0 IThEnd=   23 CPU=   -1 GPU=   -1 NThAct=   10.
 IPart= 12 NShTot=       11322 NBatch=         319 AvBLen=        35.5
 PrsmSu-ThDecC:  IPartSL=   12    0 NPrtUSL=   24    1 IThBeg=    0 IThEnd=   23 CPU=   -1 GPU=   -1 NThAct=    9.
 IPart=  7 NShTot=       11581 NBatch=         326 AvBLen=        35.5
 PrsmSu-ThDecC:  IPartSL=    7    0 NPrtUSL=   24    1 IThBeg=    0 IThEnd=   23 CPU=   -1 GPU=   -1 NThAct=    8.
 IPart=  6 NShTot=       11655 NBatch=         328 AvBLen=        35.5
 PrsmSu-ThDecC:  IPartSL=    6    0 NPrtUSL=   24    1 IThBeg=    0 IThEnd=   23 CPU=   -1 GPU=   -1 NThAct=    7.
 IPart= 14 NShTot=       11285 NBatch=         318 AvBLen=        35.5
 PrsmSu-ThDecC:  IPartSL=   14    0 NPrtUSL=   24    1 IThBeg=    0 IThEnd=   23 CPU=   -1 GPU=   -1 NThAct=    6.
 IPart=  8 NShTot=       11581 NBatch=         326 AvBLen=        35.5
 PrsmSu-ThDecC:  IPartSL=    8    0 NPrtUSL=   24    1 IThBeg=    0 IThEnd=   23 CPU=   -1 GPU=   -1 NThAct=    5.
 IPart=  4 NShTot=       11803 NBatch=         333 AvBLen=        35.4
 PrsmSu-ThDecC:  IPartSL=    4    0 NPrtUSL=   24    1 IThBeg=    0 IThEnd=   23 CPU=   -1 GPU=   -1 NThAct=    4.
 IPart= 21 NShTot=       10656 NBatch=         300 AvBLen=        35.5
 PrsmSu-ThDecC:  IPartSL=   21    0 NPrtUSL=   24    1 IThBeg=    0 IThEnd=   23 CPU=   -1 GPU=   -1 NThAct=    3.
 IPart= 17 NShTot=       10841 NBatch=         305 AvBLen=        35.5
 PrsmSu-ThDecC:  IPartSL=   17    0 NPrtUSL=   24    1 IThBeg=    0 IThEnd=   23 CPU=   -1 GPU=   -1 NThAct=    2.
 IPart= 22 NShTot=       10619 NBatch=         299 AvBLen=        35.5
 PrsmSu-ThDecC:  IPartSL=   22    0 NPrtUSL=   24    1 IThBeg=    0 IThEnd=   23 CPU=   -1 GPU=   -1 NThAct=    1.
 PrSmSu:  NxtVal=           2713.
 --------------------------------------------------------
       Center         ----      EFG at Nuclei      ----
                      3XX-RR        3YY-RR        3ZZ-RR
 --------------------------------------------------------
     1   Atom        0.256380      0.278859     -0.535239
     2   Atom       -1.239193      1.446284     -0.207092
     3   Atom        0.044856      0.009576     -0.054431
     4   Atom        0.258379      0.158202     -0.416581
     5   Atom        0.065653      0.086694     -0.152347
     6   Atom        0.229320      0.101608     -0.330928
     7   Atom        0.180097      0.107175     -0.287272
     8   Atom        0.172558      0.086698     -0.259256
     9   Atom        0.200885      0.102330     -0.303215
    10   Atom        0.003171      0.122044     -0.125215
    11   Atom        0.205644      0.126619     -0.332263
    12   Atom        0.049392     -0.034574     -0.014818
    13   Atom       -0.042353      0.072758     -0.030404
    14   Atom       -0.002338     -0.003608      0.005946
    15   Atom       -0.036880      0.004722      0.032159
    16   Atom       -0.049911      0.014997      0.034914
    17   Atom        0.021541     -0.036930      0.015389
    18   Atom        0.366901      0.307802     -0.674703
    19   Atom        0.553553      0.655261     -1.208814
    20   Atom        0.059045      0.004621     -0.063666
    21   Atom        0.062379     -0.227349      0.164970
    22   Atom        0.008420     -0.172371      0.163951
    23   Atom        0.053525     -0.218939      0.165414
    24   Atom        0.008364     -0.176112      0.167748
    25   Atom        0.119108      0.131432     -0.250539
    26   Atom        0.126386      0.141173     -0.267559
    27   Atom        0.081957     -0.182899      0.100942
    28   Atom        0.120647      0.038212     -0.158859
    29   Atom        0.064836      0.019547     -0.084383
    30   Atom        0.143786     -0.160001      0.016215
    31   Atom        0.056269     -0.229351      0.173082
    32   Atom        0.128875      0.119992     -0.248867
    33   Atom        0.063080      0.122219     -0.185298
    34   Atom       -0.032688      0.116683     -0.083995
    35   Atom        0.056867     -0.095581      0.038714
    36   Atom        0.087643     -0.182009      0.094367
    37   Atom       -0.267159      0.151046      0.116113
 --------------------------------------------------------
                        XY            XZ            YZ
 --------------------------------------------------------
     1   Atom       -0.043064      0.063992      0.026990
     2   Atom       -0.060905     -0.087270      0.055962
     3   Atom       -0.043601      0.006154     -0.000713
     4   Atom        0.002399      0.056121      0.024175
     5   Atom       -0.004972      0.018077      0.008760
     6   Atom       -0.026734      0.046422      0.014451
     7   Atom        0.044936      0.041111      0.018279
     8   Atom       -0.030560      0.034845      0.012885
     9   Atom        0.045134      0.044211      0.026948
    10   Atom       -0.009225      0.003016      0.007326
    11   Atom       -0.064633      0.043560      0.006151
    12   Atom        0.022004      0.013622      0.002340
    13   Atom        0.012645     -0.008912      0.014671
    14   Atom        0.011820      0.005773     -0.027663
    15   Atom       -0.011245     -0.008689     -0.000257
    16   Atom       -0.027432      0.000760     -0.000773
    17   Atom        0.010115     -0.001620      0.001027
    18   Atom       -0.013718      0.135625      0.022386
    19   Atom       -1.262262      0.206221     -0.123966
    20   Atom        0.015862     -0.000500      0.011570
    21   Atom       -0.171953     -0.015299     -0.028647
    22   Atom        0.209765     -0.005172      0.004933
    23   Atom       -0.178135     -0.017434     -0.032274
    24   Atom        0.206290     -0.003877      0.001977
    25   Atom       -0.005905     -0.076755     -0.030074
    26   Atom        0.011720     -0.088384      0.026594
    27   Atom       -0.143638      0.055730      0.120885
    28   Atom        0.041832     -0.075519      0.182226
    29   Atom        0.095743      0.130022     -0.175637
    30   Atom       -0.028690      0.017105      0.204408
    31   Atom       -0.175323     -0.016929     -0.030784
    32   Atom       -0.023536     -0.082443     -0.101461
    33   Atom        0.043008     -0.168581      0.086050
    34   Atom        0.072889      0.206437     -0.083136
    35   Atom        0.157414      0.096451     -0.157795
    36   Atom       -0.147069      0.055509      0.125866
    37   Atom       -0.014144     -0.102344     -0.005592
 --------------------------------------------------------


 ---------------------------------------------------------------------------------
              Nuclear Quadrupole Coupling Constant in Principal Axis System
 ---------------------------------------------------------------------------------

       Atom             a.u.   MegaHertz   Gauss  10(-4) cm-1        Axes


 ---------------------------------------------------------------------------------

 No NMR shielding tensors so no spin-rotation constants.
 Leave Link  601 at Wed Nov  1 16:15:28 2023, MaxMem=  6442450944 cpu:              11.6 elap:               0.7
 FitSet:  NAtFit=    37 NAtPot=    37 NAtFrz=     0 MDM=    41 TotChg=  -1.00000
 Merz-Kollman atomic radii used.
 Atom Element Radius
    1     6    1.50
    2     8    1.40
    3     6    1.50
    4     6    1.50
    5     6    1.50
    6     6    1.50
    7     6    1.50
    8     6    1.50
    9     6    1.50
   10     6    1.50
   11     6    1.50
   12     6    1.50
   13     6    1.50
   14     6    1.50
   15     6    1.50
   16     6    1.50
   17     6    1.50
   18     6    1.50
   19     8    1.40
   20     6    1.50
   21     1    1.20
   22     1    1.20
   23     1    1.20
   24     1    1.20
   25     1    1.20
   26     1    1.20
   27     1    1.20
   28     1    1.20
   29     1    1.20
   30     1    1.20
   31     1    1.20
   32     1    1.20
   33     1    1.20
   34     1    1.20
   35     1    1.20
   36     1    1.20
   37     1    1.20
 Generate VDW surfaces: Layer= 4 Dens= 6 Start= 1.400 Inc= 0.200

 **********************************************************************

            Electrostatic Properties Using The SCF Density.

 **********************************************************************

       Atomic Center    1 is at   4.691785 -0.140535  0.108710
       Atomic Center    2 is at   5.947395 -0.107975  0.213223
       Atomic Center    3 is at   3.837734  1.010190  0.081535
       Atomic Center    4 is at   2.443111  0.941010 -0.036375
       Atomic Center    5 is at   1.764874 -0.335981 -0.143653
       Atomic Center    6 is at   2.601049 -1.496772 -0.116083
       Atomic Center    7 is at   3.962510 -1.409069  0.001164
       Atomic Center    8 is at   1.623634  2.113302 -0.051484
       Atomic Center    9 is at   0.256738  2.035638 -0.161710
       Atomic Center   10 is at  -0.408795  0.786541 -0.264748
       Atomic Center   11 is at   0.346910 -0.392340 -0.263438
       Atomic Center   12 is at  -1.903921  0.705660 -0.453427
       Atomic Center   13 is at  -2.502962 -0.580332  0.160513
       Atomic Center   14 is at  -1.861281 -1.771960 -0.547064
       Atomic Center   15 is at  -0.327000 -1.765493 -0.337039
       Atomic Center   16 is at  -2.842741  1.827775  0.039768
       Atomic Center   17 is at  -4.240869  1.175698 -0.079620
       Atomic Center   18 is at  -3.996100 -0.350477 -0.059388
       Atomic Center   19 is at  -4.859536 -1.195223 -0.193521
       Atomic Center   20 is at  -2.311865 -0.675413  1.697258
       Atomic Center   21 is at   2.144704 -2.482425 -0.189284
       Atomic Center   22 is at   4.572832 -2.311876  0.018305
       Atomic Center   23 is at   2.110475  3.084125  0.032859
       Atomic Center   24 is at  -0.334098  2.950953 -0.170301
       Atomic Center   25 is at  -2.117724  0.623181 -1.538416
       Atomic Center   26 is at  -2.093270 -1.701624 -1.618504
       Atomic Center   27 is at  -2.288476 -2.720810 -0.198161
       Atomic Center   28 is at  -0.093159 -2.313370  0.587499
       Atomic Center   29 is at   0.132041 -2.359357 -1.138123
       Atomic Center   30 is at  -2.757167  2.741262 -0.557550
       Atomic Center   31 is at   4.314834  1.986998  0.160214
       Atomic Center   32 is at  -2.616310  2.099423  1.077213
       Atomic Center   33 is at  -4.728432  1.419587 -1.032573
       Atomic Center   34 is at  -4.946888  1.457816  0.710369
       Atomic Center   35 is at  -2.817147  0.137296  2.231768
       Atomic Center   36 is at  -2.730613 -1.620938  2.061130
       Atomic Center   37 is at  -1.251336 -0.629310  1.956412
      ESP Fit Center   38 is at   4.691785 -0.140535  2.208710
      ESP Fit Center   39 is at   5.101475 -0.140535  2.168359
      ESP Fit Center   40 is at   4.896630  0.214267  2.168359
      ESP Fit Center   41 is at   4.486940  0.214267  2.168359
      ESP Fit Center   42 is at   4.282095 -0.140535  2.168359
      ESP Fit Center   43 is at   4.486940 -0.495337  2.168359
      ESP Fit Center   44 is at   4.896630 -0.495337  2.168359
      ESP Fit Center   45 is at   5.093603  0.555434  2.048857
      ESP Fit Center   46 is at   4.691785  0.663100  2.048857
      ESP Fit Center   47 is at   3.995816  0.261283  2.048857
      ESP Fit Center   48 is at   3.888150 -0.140535  2.048857
      ESP Fit Center   49 is at   3.995816 -0.542353  2.048857
      ESP Fit Center   50 is at   4.289967 -0.836503  2.048857
      ESP Fit Center   51 is at   4.691785 -0.944170  2.048857
      ESP Fit Center   52 is at   5.093603 -0.836503  2.048857
      ESP Fit Center   53 is at   5.387753 -0.542353  2.048857
      ESP Fit Center   54 is at   5.211827  0.903850  1.854796
      ESP Fit Center   55 is at   3.544953 -0.354915  1.854796
      ESP Fit Center   56 is at   5.211827 -1.184920  1.854796
      ESP Fit Center   57 is at   5.308645  1.210200  1.593634
      ESP Fit Center   58 is at   5.664204 -1.262766 -1.376214
      ESP Fit Center   59 is at   5.553985  0.645464 -1.637376
      ESP Fit Center   60 is at   5.211827  0.903850 -1.637376
      ESP Fit Center   61 is at   5.553985 -0.926534 -1.637376
      ESP Fit Center   62 is at   5.495420 -0.140535 -1.831437
      ESP Fit Center   63 is at   5.387753  0.261283 -1.831437
      ESP Fit Center   64 is at   5.093603  0.555434 -1.831437
      ESP Fit Center   65 is at   4.691785  0.663100 -1.831437
      ESP Fit Center   66 is at   3.888150 -0.140535 -1.831437
      ESP Fit Center   67 is at   5.093603 -0.836503 -1.831437
      ESP Fit Center   68 is at   5.387753 -0.542353 -1.831437
      ESP Fit Center   69 is at   5.101475 -0.140535 -1.950939
      ESP Fit Center   70 is at   4.896630  0.214267 -1.950939
      ESP Fit Center   71 is at   4.486940  0.214267 -1.950939
      ESP Fit Center   72 is at   4.282095 -0.140535 -1.950939
      ESP Fit Center   73 is at   4.486940 -0.495337 -1.950939
      ESP Fit Center   74 is at   4.896630 -0.495337 -1.950939
      ESP Fit Center   75 is at   4.691785 -0.140535 -1.991290
      ESP Fit Center   76 is at   5.947395 -0.107975  2.173223
      ESP Fit Center   77 is at   6.354902 -0.107975  2.130392
      ESP Fit Center   78 is at   6.151148  0.244936  2.130392
      ESP Fit Center   79 is at   5.743642  0.244936  2.130392
      ESP Fit Center   80 is at   5.539888 -0.107975  2.130392
      ESP Fit Center   81 is at   5.743642 -0.460886  2.130392
      ESP Fit Center   82 is at   6.151148 -0.460886  2.130392
      ESP Fit Center   83 is at   6.744599 -0.107975  2.003772
      ESP Fit Center   84 is at   6.637794  0.290627  2.003772
      ESP Fit Center   85 is at   6.345997  0.582424  2.003772
      ESP Fit Center   86 is at   5.947395  0.689229  2.003772
      ESP Fit Center   87 is at   5.548793  0.582424  2.003772
      ESP Fit Center   88 is at   5.548793 -0.798374  2.003772
      ESP Fit Center   89 is at   5.947395 -0.905179  2.003772
      ESP Fit Center   90 is at   6.345997 -0.798374  2.003772
      ESP Fit Center   91 is at   6.637794 -0.506577  2.003772
      ESP Fit Center   92 is at   7.099454 -0.107975  1.798896
      ESP Fit Center   93 is at   7.021658  0.308197  1.798896
      ESP Fit Center   94 is at   6.798777  0.668162  1.798896
      ESP Fit Center   95 is at   6.460912  0.923306  1.798896
      ESP Fit Center   96 is at   6.053694  1.039170  1.798896
      ESP Fit Center   97 is at   5.632119  1.000105  1.798896
      ESP Fit Center   98 is at   5.632119 -1.216055  1.798896
      ESP Fit Center   99 is at   6.053694 -1.255119  1.798896
      ESP Fit Center  100 is at   6.460912 -1.139256  1.798896
      ESP Fit Center  101 is at   6.798777 -0.884112  1.798896
      ESP Fit Center  102 is at   7.021658 -0.524147  1.798896
      ESP Fit Center  103 is at   7.403959 -0.107975  1.524719
      ESP Fit Center  104 is at   7.344958  0.302387  1.524719
      ESP Fit Center  105 is at   7.172734  0.679503  1.524719
      ESP Fit Center  106 is at   6.901241  0.992823  1.524719
      ESP Fit Center  107 is at   6.552473  1.216962  1.524719
      ESP Fit Center  108 is at   6.154686  1.333763  1.524719
      ESP Fit Center  109 is at   5.740104  1.333763  1.524719
      ESP Fit Center  110 is at   5.740104 -1.549713  1.524719
      ESP Fit Center  111 is at   6.154686 -1.549713  1.524719
      ESP Fit Center  112 is at   6.552473 -1.432912  1.524719
      ESP Fit Center  113 is at   6.901241 -1.208772  1.524719
      ESP Fit Center  114 is at   7.172734 -0.895453  1.524719
      ESP Fit Center  115 is at   7.344958 -0.518336  1.524719
      ESP Fit Center  116 is at   7.644805 -0.107975  1.193223
      ESP Fit Center  117 is at   7.591478  0.314154  1.193223
      ESP Fit Center  118 is at   7.434847  0.709759  1.193223
      ESP Fit Center  119 is at   7.184753  1.053982  1.193223
      ESP Fit Center  120 is at   6.856913  1.325196  1.193223
      ESP Fit Center  121 is at   6.471923  1.506358  1.193223
      ESP Fit Center  122 is at   6.053976  1.586085  1.193223
      ESP Fit Center  123 is at   5.629332  1.559369  1.193223
      ESP Fit Center  124 is at   6.053976 -1.802035  1.193223
      ESP Fit Center  125 is at   6.471923 -1.722308  1.193223
[...]
 8080 Fit      -0.071069
 8081 Fit      -0.072494
 8082 Fit      -0.074750
 8083 Fit      -0.077970
 8084 Fit      -0.082342
 8085 Fit      -0.088099
 8086 Fit      -0.070687
 8087 Fit      -0.070703
 8088 Fit      -0.071471
 8089 Fit      -0.073094
 8090 Fit      -0.075684
 8091 Fit      -0.079377
 8092 Fit      -0.084303
 8093 Fit      -0.090489
 8094 Fit      -0.097902
 8095 Fit      -0.102829
 8096 Fit      -0.106004
 8097 Fit      -0.071279
 8098 Fit      -0.071361
 8099 Fit      -0.072227
 8100 Fit      -0.074041
 8101 Fit      -0.076926
 8102 Fit      -0.080960
 8103 Fit      -0.086094
 8104 Fit      -0.091992
 8105 Fit      -0.092029
 8106 Fit      -0.095946
 8107 Fit      -0.097883
 8108 Fit      -0.097426
 8109 Fit      -0.094608
 8110 Fit      -0.072437
 8111 Fit      -0.072322
 8112 Fit      -0.073020
 8113 Fit      -0.074805
 8114 Fit      -0.077816
 8115 Fit      -0.082010
 8116 Fit      -0.087020
 8117 Fit      -0.087183
 8118 Fit      -0.090171
 8119 Fit      -0.090272
 8120 Fit      -0.087389
 8121 Fit      -0.082785
 8122 Fit      -0.074224
 8123 Fit      -0.074077
 8124 Fit      -0.075365
 8125 Fit      -0.078322
 8126 Fit      -0.082646
 8127 Fit      -0.083234
 8128 Fit      -0.084556
 8129 Fit      -0.081308
 8130 Fit      -0.077552
 8131 Fit      -0.076616
 8132 Fit      -0.079066
 8133 Fit      -0.080062
 8134 Fit      -0.063074
 8135 Fit      -0.060722
 8136 Fit      -0.058773
 8137 Fit      -0.057257
 8138 Fit      -0.062911
 8139 Fit      -0.060585
 8140 Fit      -0.058531
 8141 Fit      -0.056864
 8142 Fit      -0.055607
 8143 Fit      -0.054743
 8144 Fit      -0.060664
 8145 Fit      -0.058541
 8146 Fit      -0.056746
 8147 Fit      -0.055333
 8148 Fit      -0.054305
 8149 Fit      -0.053644
 8150 Fit      -0.053325
 8151 Fit      -0.060622
 8152 Fit      -0.058407
 8153 Fit      -0.056525
 8154 Fit      -0.055025
 8155 Fit      -0.053909
 8156 Fit      -0.053160
 8157 Fit      -0.052753
 8158 Fit      -0.052662
 8159 Fit      -0.062659
 8160 Fit      -0.059968
 8161 Fit      -0.057653
 8162 Fit      -0.055765
 8163 Fit      -0.054308
 8164 Fit      -0.053261
 8165 Fit      -0.052595
 8166 Fit      -0.052269
 8167 Fit      -0.052239
 8168 Fit      -0.061813
 8169 Fit      -0.058969
 8170 Fit      -0.056671
 8171 Fit      -0.054888
 8172 Fit      -0.053580
 8173 Fit      -0.052704
 8174 Fit      -0.052203
 8175 Fit      -0.052001
 8176 Fit      -0.064387
 8177 Fit      -0.060908
 8178 Fit      -0.058135
 8179 Fit      -0.055978
 8180 Fit      -0.054369
 8181 Fit      -0.053246
 8182 Fit      -0.052538
 8183 Fit      -0.052150
 8184 Fit      -0.051923
 8185 Fit      -0.066066
 8186 Fit      -0.062039
 8187 Fit      -0.058891
 8188 Fit      -0.056498
 8189 Fit      -0.054763
 8190 Fit      -0.053594
 8191 Fit      -0.052879
 8192 Fit      -0.052455
 8193 Fit      -0.072788
 8194 Fit      -0.067630
 8195 Fit      -0.063293
 8196 Fit      -0.059861
 8197 Fit      -0.057280
 8198 Fit      -0.055456
 8199 Fit      -0.054274
 8200 Fit      -0.053580
 8201 Fit      -0.053151
 8202 Fit      -0.076288
 8203 Fit      -0.072697
 8204 Fit      -0.068140
 8205 Fit      -0.063817
 8206 Fit      -0.060293
 8207 Fit      -0.057710
 8208 Fit      -0.056020
 8209 Fit      -0.055074
 8210 Fit      -0.054669
 8211 Fit      -0.070826
 8212 Fit      -0.067654
 8213 Fit      -0.063552
 8214 Fit      -0.060080
 8215 Fit      -0.057845
 8216 Fit      -0.056867
 8217 Fit      -0.057016
 8218 Fit      -0.066343
 8219 Fit      -0.063172
 8220 Fit      -0.060074
 8221 Fit      -0.059623
 8222 Fit      -0.062670
 8223 Fit      -0.123296
 8224 Fit      -0.132605
 8225 Fit      -0.123839
 8226 Fit      -0.117911
 8227 Fit      -0.114886
 8228 Fit      -0.114732
 8229 Fit      -0.136169
 8230 Fit      -0.125686
 8231 Fit      -0.117951
 8232 Fit      -0.112737
 8233 Fit      -0.109791
 8234 Fit      -0.108959
 8235 Fit      -0.110254
 8236 Fit      -0.140460
 8237 Fit      -0.128098
 8238 Fit      -0.118903
 8239 Fit      -0.112317
 8240 Fit      -0.107891
 8241 Fit      -0.105305
 8242 Fit      -0.104371
 8243 Fit      -0.105058
 8244 Fit      -0.131409
 8245 Fit      -0.120994
 8246 Fit      -0.113348
 8247 Fit      -0.107863
 8248 Fit      -0.104114
 8249 Fit      -0.101806
 8250 Fit      -0.100732
 8251 Fit      -0.133560
 8252 Fit      -0.122075
 8253 Fit      -0.113681
 8254 Fit      -0.107587
 8255 Fit      -0.103273
 8256 Fit      -0.100376
 8257 Fit      -0.098613
 8258 Fit      -0.135666
 8259 Fit      -0.123571
 8260 Fit      -0.114710
 8261 Fit      -0.108203
 8262 Fit      -0.103484
 8263 Fit      -0.100161
 8264 Fit      -0.097931
 8265 Fit      -0.096497
 8266 Fit      -0.136586
 8267 Fit      -0.124384
 8268 Fit      -0.115410
 8269 Fit      -0.108777
 8270 Fit      -0.103916
 8271 Fit      -0.100436
 8272 Fit      -0.098031
 8273 Fit      -0.096409
 8274 Fit      -0.135451
 8275 Fit      -0.123602
 8276 Fit      -0.114891
 8277 Fit      -0.108479
 8278 Fit      -0.103823
 8279 Fit      -0.100541
 8280 Fit      -0.098333
 8281 Fit      -0.096888
 8282 Fit      -0.133298
 8283 Fit      -0.122251
 8284 Fit      -0.114123
 8285 Fit      -0.108200
 8286 Fit      -0.104001
 8287 Fit      -0.101181
 8288 Fit      -0.099457
 8289 Fit      -0.144475
 8290 Fit      -0.131325
 8291 Fit      -0.121453
 8292 Fit      -0.114148
 8293 Fit      -0.108888
 8294 Fit      -0.105298
 8295 Fit      -0.103106
 8296 Fit      -0.102112
 8297 Fit      -0.139987
 8298 Fit      -0.128531
 8299 Fit      -0.119892
 8300 Fit      -0.113666
 8301 Fit      -0.109494
 8302 Fit      -0.107112
 8303 Fit      -0.106369
 8304 Fit      -0.126857
 8305 Fit      -0.119630
 8306 Fit      -0.114778
 8307 Fit      -0.112136
 8308 Fit      -0.111622
 8309 Fit      -0.113345
 8310 Fit      -0.125968
 8311 Fit      -0.120496
 8312 Fit      -0.117887
 8313 Fit      -0.063087
 8314 Fit      -0.059792
 8315 Fit      -0.070481
 8316 Fit      -0.068138
 8317 Fit      -0.064481
 8318 Fit      -0.060951
 8319 Fit      -0.058303
 8320 Fit      -0.056708
 8321 Fit      -0.076300
 8322 Fit      -0.073787
 8323 Fit      -0.069980
 8324 Fit      -0.065903
 8325 Fit      -0.062258
 8326 Fit      -0.059336
 8327 Fit      -0.057166
 8328 Fit      -0.055668
 8329 Fit      -0.054746
 8330 Fit      -0.083298
 8331 Fit      -0.080298
 8332 Fit      -0.075893
 8333 Fit      -0.071095
 8334 Fit      -0.066649
 8335 Fit      -0.062899
 8336 Fit      -0.059904
 8337 Fit      -0.057594
 8338 Fit      -0.055855
 8339 Fit      -0.054571
 8340 Fit      -0.053652
 8341 Fit      -0.053073
 8342 Fit      -0.087987
 8343 Fit      -0.082508
 8344 Fit      -0.076597
 8345 Fit      -0.071151
 8346 Fit      -0.066559
 8347 Fit      -0.062859
 8348 Fit      -0.059948
 8349 Fit      -0.057685
 8350 Fit      -0.055932
 8351 Fit      -0.054558
 8352 Fit      -0.053439
 8353 Fit      -0.076290
 8354 Fit      -0.070760
 8355 Fit      -0.066346
 8356 Fit      -0.062870
 8357 Fit      -0.060140
 8358 Fit      -0.057994
 8359 Fit      -0.056296
 8360 Fit      -0.054921
 8361 Fit      -0.053736
 8362 Fit      -0.073435
 8363 Fit      -0.068455
 8364 Fit      -0.064625
 8365 Fit      -0.061648
 8366 Fit      -0.059313
 8367 Fit      -0.057465
 8368 Fit      -0.055976
 8369 Fit      -0.066242
 8370 Fit      -0.063172
 8371 Fit      -0.060747
 8372 Fit      -0.050453
 8373 Fit      -0.050447
 8374 Fit      -0.050928
 8375 Fit      -0.051983
 8376 Fit      -0.053726
 8377 Fit      -0.056314
 8378 Fit      -0.059980
 8379 Fit      -0.065081
 8380 Fit      -0.051677
 8381 Fit      -0.050772
 8382 Fit      -0.050130
 8383 Fit      -0.049855
 8384 Fit      -0.050023
 8385 Fit      -0.050708
 8386 Fit      -0.052001
 8387 Fit      -0.054019
 8388 Fit      -0.056924
 8389 Fit      -0.060951
 8390 Fit      -0.066437
 8391 Fit      -0.073877
 8392 Fit      -0.051766
 8393 Fit      -0.050742
 8394 Fit      -0.049965
 8395 Fit      -0.049551
 8396 Fit      -0.049580
 8397 Fit      -0.050128
 8398 Fit      -0.051279
 8399 Fit      -0.053134
 8400 Fit      -0.055829
 8401 Fit      -0.059542
 8402 Fit      -0.064503
 8403 Fit      -0.070979
 8404 Fit      -0.052249
 8405 Fit      -0.051046
 8406 Fit      -0.050118
 8407 Fit      -0.049557
 8408 Fit      -0.049438
 8409 Fit      -0.049832
 8410 Fit      -0.050813
 8411 Fit      -0.052464
 8412 Fit      -0.054885
 8413 Fit      -0.058189
 8414 Fit      -0.062486
 8415 Fit      -0.067831
 8416 Fit      -0.052442
 8417 Fit      -0.051096
 8418 Fit      -0.050151
 8419 Fit      -0.049683
 8420 Fit      -0.049768
 8421 Fit      -0.050480
 8422 Fit      -0.051896
 8423 Fit      -0.054091
 8424 Fit      -0.057127
 8425 Fit      -0.061006
 8426 Fit      -0.065583
 8427 Fit      -0.070399
 8428 Fit      -0.056805
 8429 Fit      -0.054643
 8430 Fit      -0.052807
 8431 Fit      -0.051401
 8432 Fit      -0.050505
 8433 Fit      -0.050203
 8434 Fit      -0.050576
 8435 Fit      -0.051694
 8436 Fit      -0.053606
 8437 Fit      -0.056306
 8438 Fit      -0.059671
 8439 Fit      -0.063349
 8440 Fit      -0.066653
 8441 Fit      -0.068628
 8442 Fit      -0.058771
 8443 Fit      -0.056878
 8444 Fit      -0.054804
 8445 Fit      -0.052990
 8446 Fit      -0.051706
 8447 Fit      -0.051125
 8448 Fit      -0.051371
 8449 Fit      -0.052517
 8450 Fit      -0.054545
 8451 Fit      -0.057272
 8452 Fit      -0.060233
 8453 Fit      -0.062647
 8454 Fit      -0.063708
 8455 Fit      -0.063257
 8456 Fit      -0.062098
 8457 Fit      -0.058361
 8458 Fit      -0.056760
 8459 Fit      -0.054770
 8460 Fit      -0.053105
 8461 Fit      -0.052359
 8462 Fit      -0.052852
 8463 Fit      -0.054582
 8464 Fit      -0.057080
 8465 Fit      -0.059323
 8466 Fit      -0.060284
 8467 Fit      -0.060015
 8468 Fit      -0.059331
 8469 Fit      -0.056907
 8470 Fit      -0.055040
 8471 Fit      -0.053919
 8472 Fit      -0.054989
 8473 Fit      -0.057125
 8474 Fit      -0.057839
 8475 Fit      -0.055768
 8476 Fit      -0.052428
 8477 Fit      -0.051910
 8478 Fit      -0.051200
 8479 Fit      -0.051994
 8480 Fit      -0.053590
 8481 Fit      -0.051935
 8482 Fit      -0.050820
 8483 Fit      -0.050120
 8484 Fit      -0.050369
 8485 Fit      -0.051692
 8486 Fit      -0.053705
 8487 Fit      -0.055494
 8488 Fit      -0.052390
 8489 Fit      -0.051137
 8490 Fit      -0.049962
 8491 Fit      -0.049249
 8492 Fit      -0.049233
 8493 Fit      -0.050027
 8494 Fit      -0.051623
 8495 Fit      -0.053850
 8496 Fit      -0.056298
 8497 Fit      -0.058291
 8498 Fit      -0.059110
 8499 Fit      -0.051553
 8500 Fit      -0.050142
 8501 Fit      -0.049064
 8502 Fit      -0.048503
 8503 Fit      -0.048569
 8504 Fit      -0.049331
 8505 Fit      -0.050822
 8506 Fit      -0.053017
 8507 Fit      -0.055789
 8508 Fit      -0.058826
 8509 Fit      -0.061555
 8510 Fit      -0.063189
 8511 Fit      -0.051888
 8512 Fit      -0.050293
 8513 Fit      -0.049044
 8514 Fit      -0.048265
 8515 Fit      -0.048033
 8516 Fit      -0.048411
 8517 Fit      -0.049452
 8518 Fit      -0.051201
 8519 Fit      -0.053685
 8520 Fit      -0.056875
 8521 Fit      -0.060623
 8522 Fit      -0.064542
 8523 Fit      -0.052370
 8524 Fit      -0.050649
 8525 Fit      -0.049296
 8526 Fit      -0.048375
 8527 Fit      -0.047933
 8528 Fit      -0.048013
 8529 Fit      -0.048664
 8530 Fit      -0.049939
 8531 Fit      -0.051903
 8532 Fit      -0.054622
 8533 Fit      -0.058151
 8534 Fit      -0.062493
 8535 Fit      -0.067507
 8536 Fit      -0.052022
 8537 Fit      -0.050347
 8538 Fit      -0.049114
 8539 Fit      -0.048340
 8540 Fit      -0.048055
 8541 Fit      -0.048300
 8542 Fit      -0.049128
 8543 Fit      -0.050607
 8544 Fit      -0.052828
 8545 Fit      -0.055905
 8546 Fit      -0.059980
 8547 Fit      -0.065204
 8548 Fit      -0.071675
 8549 Fit      -0.051702
 8550 Fit      -0.050222
 8551 Fit      -0.049187
 8552 Fit      -0.048604
 8553 Fit      -0.048499
 8554 Fit      -0.048915
 8555 Fit      -0.049912
 8556 Fit      -0.051572
 8557 Fit      -0.054008
 8558 Fit      -0.057378
 8559 Fit      -0.061905
 8560 Fit      -0.067897
 8561 Fit      -0.050041
 8562 Fit      -0.049358
 8563 Fit      -0.049131
 8564 Fit      -0.049401
 8565 Fit      -0.050225
 8566 Fit      -0.051686
 8567 Fit      -0.053898
 8568 Fit      -0.057028
 8569 Fit      -0.061327
 8570 Fit      -0.067176
 8571 Fit      -0.050013
 8572 Fit      -0.050027
 8573 Fit      -0.050596
 8574 Fit      -0.051802
 8575 Fit      -0.053764
 8576 Fit      -0.056656
 8577 Fit      -0.060747
 8578 Fit      -0.066468
 8579 Fit      -0.052667
 8580 Fit      -0.054735
 8581 Fit      -0.062722
 8582 Fit      -0.065127
 8583 Fit      -0.063202
 8584 Fit      -0.060939
 8585 Fit      -0.060829
 8586 Fit      -0.062613
 8587 Fit      -0.066654
 8588 Fit      -0.064057
 8589 Fit      -0.061266
 8590 Fit      -0.059316
 8591 Fit      -0.058727
 8592 Fit      -0.059441
 8593 Fit      -0.060990
 8594 Fit      -0.068257
 8595 Fit      -0.065278
 8596 Fit      -0.062187
 8597 Fit      -0.059594
 8598 Fit      -0.057872
 8599 Fit      -0.057169
 8600 Fit      -0.057460
 8601 Fit      -0.058548
 8602 Fit      -0.060105
 8603 Fit      -0.069770
 8604 Fit      -0.066246
 8605 Fit      -0.062768
 8606 Fit      -0.059800
 8607 Fit      -0.057598
 8608 Fit      -0.056260
 8609 Fit      -0.055813
 8610 Fit      -0.056226
 8611 Fit      -0.057367
 8612 Fit      -0.058989
 8613 Fit      -0.060778
 8614 Fit      -0.074727
 8615 Fit      -0.070818
 8616 Fit      -0.066620
 8617 Fit      -0.062726
 8618 Fit      -0.059509
 8619 Fit      -0.057103
 8620 Fit      -0.055511
 8621 Fit      -0.054734
 8622 Fit      -0.054794
 8623 Fit      -0.055672
 8624 Fit      -0.057235
 8625 Fit      -0.059222
 8626 Fit      -0.061297
 8627 Fit      -0.076463
 8628 Fit      -0.071610
 8629 Fit      -0.066782
 8630 Fit      -0.056724
 8631 Fit      -0.054991
 8632 Fit      -0.053935
 8633 Fit      -0.053611
 8634 Fit      -0.054120
 8635 Fit      -0.055470
 8636 Fit      -0.057509
 8637 Fit      -0.059946
 8638 Fit      -0.062417
 8639 Fit      -0.052775
 8640 Fit      -0.055257
 8641 Fit      -0.058019
 8642 Fit      -0.061235
 8643 Fit      -0.063430
 8644 Fit      -0.063427
 8645 Fit      -0.064862
 8646 Fit      -0.062707
 8647 Fit      -0.062353
 8648 Fit      -0.062499
 8649 Fit      -0.063415
 8650 Fit      -0.065121
 8651 Fit      -0.062614
 8652 Fit      -0.062249
 8653 Fit      -0.061970
 8654 Fit      -0.061993
 8655 Fit      -0.062537
 8656 Fit      -0.063724
 8657 Fit      -0.065512
 8658 Fit      -0.067667
 8659 Fit      -0.063309
 8660 Fit      -0.063119
 8661 Fit      -0.062726
 8662 Fit      -0.062275
 8663 Fit      -0.061984
 8664 Fit      -0.062068
 8665 Fit      -0.062683
 8666 Fit      -0.063900
 8667 Fit      -0.065687
 8668 Fit      -0.067908
 8669 Fit      -0.064671
 8670 Fit      -0.064695
 8671 Fit      -0.064293
 8672 Fit      -0.063626
 8673 Fit      -0.062934
 8674 Fit      -0.062459
 8675 Fit      -0.062397
 8676 Fit      -0.062877
 8677 Fit      -0.063958
 8678 Fit      -0.065629
 8679 Fit      -0.067809
 8680 Fit      -0.070332
 8681 Fit      -0.067105
 8682 Fit      -0.067402
 8683 Fit      -0.067016
 8684 Fit      -0.066146
 8685 Fit      -0.065070
 8686 Fit      -0.064064
 8687 Fit      -0.063352
 8688 Fit      -0.063093
 8689 Fit      -0.063384
 8690 Fit      -0.064269
 8691 Fit      -0.065738
 8692 Fit      -0.067738
 8693 Fit      -0.070164
 8694 Fit      -0.070965
 8695 Fit      -0.071630
 8696 Fit      -0.071169
 8697 Fit      -0.069913
 8698 Fit      -0.068278
 8699 Fit      -0.066638
 8700 Fit      -0.065281
 8701 Fit      -0.064399
 8702 Fit      -0.064110
 8703 Fit      -0.064468
 8704 Fit      -0.065478
 8705 Fit      -0.067100
 8706 Fit      -0.069251
 8707 Fit      -0.071807
 8708 Fit      -0.077371
 8709 Fit      -0.075498
 8710 Fit      -0.073053
 8711 Fit      -0.070550
 8712 Fit      -0.068350
 8713 Fit      -0.066677
 8714 Fit      -0.065655
 8715 Fit      -0.065345
 8716 Fit      -0.065753
 8717 Fit      -0.066842
 8718 Fit      -0.068523
 8719 Fit      -0.070661
 8720 Fit      -0.077588
 8721 Fit      -0.073960
 8722 Fit      -0.070934
 8723 Fit      -0.068676
 8724 Fit      -0.067255
 8725 Fit      -0.066689
 8726 Fit      -0.066951
 8727 Fit      -0.067957
 8728 Fit      -0.069543
 8729 Fit      -0.081315
 8730 Fit      -0.076330
 8731 Fit      -0.072489
 8732 Fit      -0.069815
 8733 Fit      -0.075280
 8734 Fit      -0.078367
 8735 Fit      -0.078479
 8736 Fit      -0.076917
 8737 Fit      -0.076739
 8738 Fit      -0.082348
 8739 Fit      -0.082910
 8740 Fit      -0.082046
 8741 Fit      -0.079938
 8742 Fit      -0.075481
 8743 Fit      -0.078047
 8744 Fit      -0.080550
 8745 Fit      -0.087364
 8746 Fit      -0.088316
 8747 Fit      -0.087874
 8748 Fit      -0.086115
 8749 Fit      -0.083284
 8750 Fit      -0.076200
 8751 Fit      -0.079069
 8752 Fit      -0.082232
 8753 Fit      -0.085189
 8754 Fit      -0.093552
 8755 Fit      -0.094935
 8756 Fit      -0.094826
 8757 Fit      -0.093297
 8758 Fit      -0.090519
 8759 Fit      -0.086724
 8760 Fit      -0.076430
 8761 Fit      -0.079507
 8762 Fit      -0.083211
 8763 Fit      -0.087177
 8764 Fit      -0.090825
 8765 Fit      -0.101026
 8766 Fit      -0.102885
 8767 Fit      -0.103149
 8768 Fit      -0.101944
 8769 Fit      -0.099418
 8770 Fit      -0.095666
 8771 Fit      -0.090844
 8772 Fit      -0.079617
 8773 Fit      -0.083611
 8774 Fit      -0.088308
 8775 Fit      -0.093216
 8776 Fit      -0.097667
 8777 Fit      -0.109850
 8778 Fit      -0.112311
 8779 Fit      -0.112823
 8780 Fit      -0.111718
 8781 Fit      -0.109246
 8782 Fit      -0.105317
 8783 Fit      -0.099813
 8784 Fit      -0.099620
 8785 Fit      -0.105455
 -----------------------------------------------------------------
 Leave Link  602 at Wed Nov  1 16:15:29 2023, MaxMem=  6442450944 cpu:               7.0 elap:               0.4

 Test job not archived.
 1\1\GINC-EXP-1-30\SP\RHF\6-31+G(d)\C18H17O2(1-)\HKLEM\01-Nov-2023\0\\#
  HF/6-31+G* SCF=Tight Pop=MK IOp(6/33=2,6/42=6,6/43=20)\\EQU_b3lyp_opt
 _esp\\-1,1\C,0,4.691785,-0.140535,0.10871\O,0,5.947395,-0.107975,0.213
 223\C,0,3.837734,1.01019,0.081535\C,0,2.443111,0.94101,-0.036375\C,0,1
 .764874,-0.335981,-0.143653\C,0,2.601049,-1.496772,-0.116083\C,0,3.962
 51,-1.409069,0.001164\C,0,1.623634,2.113302,-0.051484\C,0,0.256738,2.0
 35638,-0.16171\C,0,-0.408795,0.786541,-0.264748\C,0,0.34691,-0.39234,-
 0.263438\C,0,-1.903921,0.70566,-0.453427\C,0,-2.502962,-0.580332,0.160
 513\C,0,-1.861281,-1.77196,-0.547064\C,0,-0.327,-1.765493,-0.337039\C,
 0,-2.842741,1.827775,0.039768\C,0,-4.240869,1.175698,-0.07962\C,0,-3.9
 961,-0.350477,-0.059388\O,0,-4.859536,-1.195223,-0.193521\C,0,-2.31186
 5,-0.675413,1.697258\H,0,2.144704,-2.482425,-0.189284\H,0,4.572832,-2.
 311876,0.018305\H,0,2.110475,3.084125,0.032859\H,0,-0.334098,2.950953,
 -0.170301\H,0,-2.117724,0.623181,-1.538416\H,0,-2.09327,-1.701624,-1.6
 18504\H,0,-2.288476,-2.72081,-0.198161\H,0,-0.093159,-2.31337,0.587499
 \H,0,0.132041,-2.359357,-1.138123\H,0,-2.757167,2.741262,-0.55755\H,0,
 4.314834,1.986998,0.160214\H,0,-2.61631,2.099423,1.077213\H,0,-4.72843
 2,1.419587,-1.032573\H,0,-4.946888,1.457816,0.710369\H,0,-2.817147,0.1
 37296,2.231768\H,0,-2.730613,-1.620938,2.06113\H,0,-1.251336,-0.62931,
 1.956412\\Version=ES64L-G16RevC.01\State=1-A\HF=-841.3056663\RMSD=3.35
 3e-09\Dipole=-6.1081678,0.4557637,-0.0125498\Quadrupole=-66.454315,34.
 1437261,32.3105888,-9.9662828,-3.8114499,-0.1786533\PG=C01 [X(C18H17O2
 )]\\@


 Human beings, who are almost unique in having the
 ability to learn from the experience of others, are
 also remarkable for their apparent disinclination to do so.
                               -- Douglas Adams,
                                Last Chance to See
 Job cpu time:       0 days  0 hours 11 minutes 38.1 seconds.
 Elapsed time:       0 days  0 hours  0 minutes 30.3 seconds.
 File lengths (MBytes):  RWF=     92 Int=      0 D2E=      0 Chk=     11 Scr=      1
 Normal termination of Gaussian 16 at Wed Nov  1 16:15:29 2023.
