37
EQU_b3lyp_opt.log	Energy: -531431.9427383
C          4.68222       -0.14003        0.10842
O          5.94132       -0.10614        0.21407
C          3.83524        1.00857        0.08262
C          2.43937        0.93843       -0.03617
C          1.76445       -0.33536       -0.14428
C          2.60005       -1.49408       -0.11750
C          3.96086       -1.40688        0.00071
C          1.62324        2.11037       -0.04991
C          0.25764        2.03166       -0.16018
C         -0.40667        0.78338       -0.26415
C          0.34633       -0.39308       -0.26384
C         -1.90120        0.70434       -0.45222
C         -2.50186       -0.58157        0.15875
C         -1.85944       -1.77189       -0.54734
C         -0.32679       -1.76421       -0.33557
C         -2.83850        1.82658        0.03801
C         -4.23461        1.17365       -0.08181
C         -3.99386       -0.34808       -0.05993
O         -4.85763       -1.18673       -0.19069
C         -2.31432       -0.67563        1.69618
H          2.14901       -2.47869       -0.19250
H          4.56909       -2.30778        0.01696
H          2.10791        3.07913        0.03442
H         -0.32947        2.94600       -0.16594
H         -2.10449        0.62189       -1.53630
H         -2.08912       -1.70232       -1.61661
H         -2.28307       -2.71868       -0.19711
H         -0.09208       -2.30659        0.58908
H          0.13327       -2.35502       -1.13445
H         -2.75322        2.73487       -0.56220
H          4.31104        1.98290        0.16164
H         -2.61332        2.10012        1.07254
H         -4.71949        1.41263       -1.03437
H         -4.94040        1.45190        0.70585
H         -2.82112        0.13439        2.22769
H         -2.73040       -1.62067        2.05659
H         -1.25648       -0.62813        1.95695
