 Entering Gaussian System, Link 0=g16
 Input=cutoff7_ligand.com
 Output=cutoff7_ligand.log
 Initial command:
 /usr/local/packages/license/gaussian/g16-c01/g16/l1.exe "/work/arkanil/gauss_scratch/Gau-1418239.inp" -scrdir="/work/arkanil/gauss_scratch/"
 Entering Link 1 = /usr/local/packages/license/gaussian/g16-c01/g16/l1.exe PID=   1418240.
  
 Copyright (c) 1988-2019, Gaussian, Inc.  All Rights Reserved.
  
 This is part of the Gaussian(R) 16 program.  It is based on
 the Gaussian(R) 09 system (copyright 2009, Gaussian, Inc.),
 the Gaussian(R) 03 system (copyright 2003, Gaussian, Inc.),
 the Gaussian(R) 98 system (copyright 1998, Gaussian, Inc.),
 the Gaussian(R) 94 system (copyright 1995, Gaussian, Inc.),
 the Gaussian 92(TM) system (copyright 1992, Gaussian, Inc.),
 the Gaussian 90(TM) system (copyright 1990, Gaussian, Inc.),
 the Gaussian 88(TM) system (copyright 1988, Gaussian, Inc.),
 the Gaussian 86(TM) system (copyright 1986, Carnegie Mellon
 University), and the Gaussian 82(TM) system (copyright 1983,
 Carnegie Mellon University). Gaussian is a federally registered
 trademark of Gaussian, Inc.
  
 This software contains proprietary and confidential information,
 including trade secrets, belonging to Gaussian, Inc.
  
 This software is provided under written license and may be
 used, copied, transmitted, or stored only in accord with that
 written license.
  
 The following legend is applicable only to US Government
 contracts under FAR:
  
                    RESTRICTED RIGHTS LEGEND
  
 Use, reproduction and disclosure by the US Government is
 subject to restrictions as set forth in subparagraphs (a)
 and (c) of the Commercial Computer Software - Restricted
 Rights clause in FAR 52.227-19.
  
 Gaussian, Inc.
 340 Quinnipiac St., Bldg. 40, Wallingford CT 06492
  
  
 ---------------------------------------------------------------
 Warning -- This program may not be used in any manner that
 competes with the business of Gaussian, Inc. or will provide
 assistance to any competitor of Gaussian, Inc.  The licensee
 of this program is prohibited from giving any competitor of
 Gaussian, Inc. access to this program.  By using this program,
 the user acknowledges that Gaussian, Inc. is engaged in the
 business of creating and licensing software in the field of
 computational chemistry and represents and warrants to the
 licensee that it is not a competitor of Gaussian, Inc. and that
 it will not use this program in any manner prohibited above.
 ---------------------------------------------------------------
  

 Cite this work as:
 Gaussian 16, Revision C.01,
 M. J. Frisch, G. W. Trucks, H. B. Schlegel, G. E. Scuseria, 
 M. A. Robb, J. R. Cheeseman, G. Scalmani, V. Barone, 
 G. A. Petersson, H. Nakatsuji, X. Li, M. Caricato, A. V. Marenich, 
 J. Bloino, B. G. Janesko, R. Gomperts, B. Mennucci, H. P. Hratchian, 
 J. V. Ortiz, A. F. Izmaylov, J. L. Sonnenberg, D. Williams-Young, 
 F. Ding, F. Lipparini, F. Egidi, J. Goings, B. Peng, A. Petrone, 
 T. Henderson, D. Ranasinghe, V. G. Zakrzewski, J. Gao, N. Rega, 
 G. Zheng, W. Liang, M. Hada, M. Ehara, K. Toyota, R. Fukuda, 
 J. Hasegawa, M. Ishida, T. Nakajima, Y. Honda, O. Kitao, H. Nakai, 
 T. Vreven, K. Throssell, J. A. Montgomery, Jr., J. E. Peralta, 
 F. Ogliaro, M. J. Bearpark, J. J. Heyd, E. N. Brothers, K. N. Kudin, 
 V. N. Staroverov, T. A. Keith, R. Kobayashi, J. Normand, 
 K. Raghavachari, A. P. Rendell, J. C. Burant, S. S. Iyengar, 
 J. Tomasi, M. Cossi, J. M. Millam, M. Klene, C. Adamo, R. Cammi, 
 J. W. Ochterski, R. L. Martin, K. Morokuma, O. Farkas, 
 J. B. Foresman, and D. J. Fox, Gaussian, Inc., Wallingford CT, 2019.
 
 ******************************************
 Gaussian 16:  ES64L-G16RevC.01  3-Jul-2019
                19-May-2026 
 ******************************************
 %chk=19NT_md_min_distance_cutoff6.chk
 %nprocshared=64
 Will use up to   64 processors via shared memory.
 %mem=200GB
 --------------------------
 # wb97xd/6-31g(d) prop=efg
 --------------------------
 1/38=1,172=1/1;
 2/12=2,17=6,18=5,40=1/2;
 3/5=1,6=6,7=1,11=2,25=1,30=1,74=-58/1,2,3;
 4//1;
 5/5=2,38=5/2;
 6/7=2,8=2,9=2,10=2,14=1,28=1/1,2;
 99/5=1,9=1/99;
 ----------------------------
 19NT_md_min_distance_cutoff6
 ----------------------------
 Symbolic Z-matrix:
 Charge =  0 Multiplicity = 1
 C                     43.52473   42.94505   31.00758 
 O                     43.37098   41.86458   31.62416 
 C                     43.30238   44.20817   31.58548 
 C                     43.4324   45.3787   30.89047 
 C                     44.03709   45.40513   29.51383 
 C                     44.79016   44.10708   29.22164 
 C                     43.91173   42.91275   29.55306 
 C                     42.86195   46.61472   31.40554 
 C                     43.59247   47.90211   31.0426 
 C                     44.07515   47.90531   29.59451 
 C                     44.9279   46.65109   29.34694 
 C                     44.92581   49.13725   29.32086 
 C                     45.53905   49.17079   27.91264 
 C                     46.43321   47.9483   27.74082 
 C                     45.62762   46.67031   27.98127 
 C                     44.28294   50.51702   29.45266 
 C                     45.29342   51.4421   28.75175 
 C                     46.28547   50.51946   27.99552 
 C                     44.49821   49.22146   26.78728 
 O                     46.74721   51.04618   26.77686 
 H                     42.92594   44.22454   32.59868 
 H                     43.20149   45.48785   28.80477 
 H                     45.70019   44.0665   29.82622 
 H                     45.07706   44.06243   28.17118 
 H                     42.98972   42.96018   28.96416 
 H                     44.41913   41.97281   29.32429 
 H                     42.6866   46.56132   32.48002 
 H                     41.82398   46.63081   30.9417 
 H                     44.45532   48.02094   31.70672 
 H                     42.93401   48.75168   31.21243 
 H                     43.20102   47.88969   28.93851 
 H                     45.70379   46.61839   30.12225 
 H                     45.76789   49.10224   30.02546 
 H                     47.26261   47.99818   28.45046 
 H                     46.85582   47.92533   26.73513 
 H                     44.88677   46.55702   27.18851 
 H                     46.31554   45.82591   27.91622 
 H                     44.12554   50.8048   30.49002 
 H                     43.31513   50.53112   28.95301 
 H                     45.82539   52.04979   29.4818 
 H                     44.80771   52.11944   28.04758 
 H                     47.19266   50.38483   28.59397 
 H                     44.02867   50.20027   26.72025 
 H                     44.97006   48.98423   25.83452 
 H                     43.71123   48.49363   26.9544 
 H                     46.01349   51.03931   26.15163 
 
                          Input orientation:                          
 ---------------------------------------------------------------------
 Center     Atomic      Atomic             Coordinates (Angstroms)
 Number     Number       Type             X           Y           Z
 ---------------------------------------------------------------------
      1          6           0       43.524733   42.945054   31.007580
      2          8           0       43.370979   41.864576   31.624159
      3          6           0       43.302376   44.208172   31.585484
      4          6           0       43.432401   45.378701   30.890467
      5          6           0       44.037089   45.405130   29.513834
      6          6           0       44.790155   44.107080   29.221637
      7          6           0       43.911731   42.912749   29.553055
      8          6           0       42.861945   46.614719   31.405537
      9          6           0       43.592470   47.902109   31.042604
     10          6           0       44.075150   47.905307   29.594508
     11          6           0       44.927903   46.651095   29.346942
     12          6           0       44.925812   49.137252   29.320865
     13          6           0       45.539047   49.170789   27.912635
     14          6           0       46.433211   47.948302   27.740819
     15          6           0       45.627624   46.670315   27.981270
     16          6           0       44.282944   50.517023   29.452660
     17          6           0       45.293420   51.442097   28.751755
     18          6           0       46.285473   50.519464   27.995517
     19          6           0       44.498214   49.221464   26.787279
     20          8           0       46.747215   51.046178   26.776857
     21          1           0       42.925940   44.224535   32.598679
     22          1           0       43.201486   45.487854   28.804769
     23          1           0       45.700185   44.066504   29.826219
     24          1           0       45.077056   44.062427   28.171176
     25          1           0       42.989719   42.960184   28.964160
     26          1           0       44.419134   41.972813   29.324287
     27          1           0       42.686604   46.561318   32.480023
     28          1           0       41.823977   46.630815   30.941704
     29          1           0       44.455317   48.020944   31.706717
     30          1           0       42.934012   48.751683   31.212435
     31          1           0       43.201016   47.889694   28.938509
     32          1           0       45.703794   46.618395   30.122253
     33          1           0       45.767891   49.102237   30.025460
     34          1           0       47.262614   47.998183   28.450459
     35          1           0       46.855817   47.925327   26.735126
     36          1           0       44.886770   46.557018   27.188513
     37          1           0       46.315542   45.825906   27.916218
     38          1           0       44.125535   50.804805   30.490016
     39          1           0       43.315125   50.531119   28.953014
     40          1           0       45.825391   52.049786   29.481803
     41          1           0       44.807713   52.119440   28.047580
     42          1           0       47.192658   50.384834   28.593974
     43          1           0       44.028669   50.200273   26.720246
     44          1           0       44.970056   48.984231   25.834517
     45          1           0       43.711234   48.493632   26.954398
     46          1           0       46.013485   51.039309   26.151627
 ---------------------------------------------------------------------
                    Distance matrix (angstroms):
                    1          2          3          4          5
     1  C    0.000000
     2  O    1.253493   0.000000
     3  C    1.406727   2.344919   0.000000
     4  C    2.438212   3.590425   1.367514   0.000000
     5  C    2.923313   4.175249   2.502848   1.503817   0.000000
     6  C    2.478142   3.579804   2.794903   2.499102   1.528864
     7  C    1.505474   2.383391   2.486001   2.845935   2.495840
     8  C    3.750213   4.782340   2.453127   1.455492   2.534286
     9  C    4.957641   6.069520   3.744869   2.533053   2.961373
    10  C    5.186891   6.411379   4.269657   2.911421   2.501768
    11  C    4.296666   5.524535   3.690702   2.497595   1.540723
    12  C    6.568968   7.785531   5.662144   4.338275   3.841328
    13  C    7.238502   8.476832   6.566588   5.261689   4.358887
    14  C    6.645559   7.840237   6.210648   5.052523   3.918252
    15  C    5.240064   6.438805   4.945633   3.866613   2.545436
    16  C    7.767070   8.967270   6.731423   5.403061   5.118167
    17  C    8.967538  10.182111   8.020221   6.693448   6.213219
    18  C    8.606154   9.826922   7.849786   6.553487   5.789380
    19  C    7.625741   8.876366   7.041726   5.721795   4.712870
    20  O    9.690800  10.917743   9.041468   7.747908   6.830611
    21  H    2.127727   2.591748   1.080988   2.122873   3.484928
    22  H    3.379748   4.594109   3.062702   2.101279   1.099021
    23  H    2.717693   3.675088   2.977343   2.827955   2.157636
    24  H    3.421026   4.434449   3.850744   3.439769   2.164974
    25  H    2.112352   2.901949   2.920028   3.123436   2.716042
    26  H    2.139786   2.529774   3.370013   3.876421   3.458712
    27  H    3.993484   4.822889   2.591655   2.116952   3.458158
    28  H    4.059771   5.057271   2.910208   2.038981   2.904993
    29  H    5.207633   6.251678   3.985123   2.948570   3.438915
    30  H    5.840193   6.913227   4.573658   3.424772   3.911705
    31  H    5.369851   6.598761   4.535455   3.188850   2.683854
    32  H    4.361828   5.504229   3.703651   2.699300   2.149440
    33  H    6.626252   7.790043   5.697747   4.479673   4.114127
    34  H    6.785627   7.927063   6.314749   5.242696   4.273020
    35  H    7.358879   8.531087   7.068958   5.955832   4.692317
    36  H    5.430165   6.632615   5.230749   4.148263   2.730553
    37  H    5.064033   6.173444   5.015949   4.166371   2.814387
    38  H    7.899653   9.043414   6.737448   5.484833   5.487918
    39  H    7.862159   9.069019   6.849067   5.505896   5.206871
    40  H    9.514051  10.693565   8.501882   7.225933   6.881170
    41  H    9.725070  10.955289   8.796077   7.443860   6.915614
    42  H    8.638836   9.817436   7.888890   6.668941   5.966675
    43  H    8.442356   9.693542   7.752633   6.402643   5.549558
    44  H    8.082153   9.314853   7.659342   6.397411   5.217064
    45  H    6.873847   8.115838   6.322917   5.027244   4.024392
    46  H    9.761717  11.004870   9.140095   7.820555   6.852338
                    6          7          8          9         10
     6  C    0.000000
     7  C    1.519174   0.000000
     8  C    3.843913   4.270634   0.000000
     9  C    4.376371   5.216742   1.524060   0.000000
    10  C    3.882885   4.995403   2.533241   1.526425   0.000000
    11  C    2.550821   3.879473   2.916730   2.494732   1.536726
    12  C    5.032980   6.310840   3.868924   2.503550   1.521905
    13  C    5.283510   6.670996   5.089276   3.898130   2.563813
    14  C    4.432543   5.915982   5.287961   4.355884   2.999744
    15  C    2.968171   4.419739   4.402008   3.876975   2.556936
    16  C    6.434129   7.613991   4.589220   3.137268   2.623807
    17  C    7.367262   8.677610   6.021478   4.546728   3.834488
    18  C    6.697613   8.119278   6.212552   4.836067   3.778375
    19  C    5.671707   6.913275   5.549847   4.546302   3.129183
    20  O    7.613023   9.049856   7.493852   6.167186   4.994413
    21  H    3.859211   3.459536   2.672202   4.048479   4.888129
    22  H    2.145737   2.774085   2.854664   3.315027   2.689062
    23  H    1.093307   2.145771   4.128347   4.542458   4.175026
    24  H    1.089850   2.142273   4.677820   5.019188   4.218698
    25  H    2.150170   1.095058   4.396848   5.394985   5.101935
    26  H    2.168706   1.092370   5.320125   6.228366   5.948599
    27  H    4.589695   4.835301   1.090008   2.164368   3.472832
    28  H    4.257474   4.484537   1.137004   2.180353   2.916685
    29  H    4.648234   5.570224   2.146395   1.095296   2.149262
    30  H    5.383389   6.148383   2.146881   1.088202   2.153191
    31  H    4.112626   5.064855   2.797633   2.140235   1.093018
    32  H    2.820027   4.155392   3.118162   2.636789   2.141761
    33  H    5.153028   6.479063   4.066556   2.684650   2.117483
    34  H    4.674233   6.189166   5.478352   4.494263   3.387832
    35  H    5.002870   6.460209   6.283426   5.404104   3.988555
    36  H    3.185141   4.452241   4.678304   4.282348   2.874965
    37  H    2.642969   4.116311   4.972413   4.636812   3.487108
    38  H    6.849090   7.950355   4.471203   3.002525   3.035055
    39  H    6.596677   7.665216   4.643105   3.369718   2.807853
    40  H    8.014112   9.335556   6.482493   4.962384   4.500306
    41  H    8.097940   9.371893   6.735268   5.313460   4.548466
    42  H    6.751013   8.216834   6.393256   5.012092   4.107064
    43  H    6.630522   7.819621   6.014099   4.914734   3.678370
    44  H    5.940669   7.197949   6.410536   5.494807   4.012788
    45  H    5.054333   6.159502   4.905531   4.132485   2.729238
    46  H    7.679668   9.056934   7.557299   6.294839   5.043068
                   11         12         13         14         15
    11  C    0.000000
    12  C    2.486295   0.000000
    13  C    2.963038   1.536325   0.000000
    14  C    2.555060   2.486443   1.524311   0.000000
    15  C    1.534614   2.893585   2.502984   1.529718   0.000000
    16  C    3.920785   1.527880   2.400379   3.761964   4.332473
    17  C    4.841648   2.402360   2.433782   3.811524   4.845126
    18  C    4.316668   2.348560   1.543679   2.587966   3.904986
    19  C    3.652850   2.570795   1.533730   2.504874   3.034724
    20  O    5.406662   3.665172   2.503347   3.259549   4.674642
    21  H    4.524360   6.235250   7.297449   7.054515   5.882295
    22  H    2.151184   4.069122   4.452426   4.198789   2.821792
    23  H    2.739751   5.154369   5.453576   4.467055   3.192011
    24  H    2.847081   5.205622   5.135721   4.138162   2.672127
    25  H    4.186394   6.483198   6.795321   6.183487   4.657219
    26  H    4.705919   7.182334   7.420095   6.501564   5.032958
    27  H    3.853268   4.650782   5.983879   6.198455   5.375896
    28  H    3.489704   4.304734   5.424802   5.764241   4.820111
    29  H    2.769181   2.675781   4.109948   4.432346   4.132489
    30  H    3.445016   2.773800   4.224989   4.994189   4.693406
    31  H    2.164044   2.162757   2.856574   3.447460   2.879518
    32  H    1.097353   2.755380   3.379980   2.823461   2.142967
    33  H    2.678445   1.098535   2.126288   2.644580   3.180037
    34  H    2.840635   2.741483   2.152891   1.092697   2.157908
    35  H    3.487421   3.446698   2.161385   1.091120   2.153228
    36  H    2.160870   3.347545   2.789555   2.152253   1.090947
    37  H    2.157185   3.856085   3.433831   2.132880   1.091095
    38  H    4.382205   2.188171   3.363171   4.587272   5.063999
    39  H    4.220287   2.161594   2.806905   4.226443   4.604101
    40  H    5.474445   3.052540   3.291338   4.496959   5.588329
    41  H    5.621885   3.244787   3.040987   4.487175   5.510864
    42  H    4.431353   2.687642   2.161610   2.690971   4.077057
    43  H    4.506087   2.949253   2.182400   3.448878   4.075223
    44  H    4.216922   3.489985   2.162667   2.616860   3.224151
    45  H    3.255686   2.736715   2.172018   2.885308   2.837517
    46  H    5.535788   3.852911   2.611055   3.500860   4.752325
                   16         17         18         19         20
    16  C    0.000000
    17  C    1.538860   0.000000
    18  C    2.476569   1.551553   0.000000
    19  C    2.971375   3.069646   2.517725   0.000000
    20  O    3.675943   2.484048   1.405620   2.896151   0.000000
    21  H    7.164796   8.514516   8.491271   7.823919   9.748362
    22  H    5.184771   6.311260   5.956757   4.437523   6.897795
    23  H    6.614932   7.464536   6.733106   6.103566   7.688351
    24  H    6.628320   7.405633   6.571487   5.372699   7.314802
    25  H    7.682245   8.791757   8.303190   6.798382   9.180761
    26  H    8.546260   9.526778   8.848394   7.680209   9.707487
    27  H    5.230758   6.672142   6.980657   6.539545   8.314363
    28  H    4.833880   6.323081   6.611094   5.578733   7.815348
    29  H    3.367625   4.597663   4.833744   5.063987   6.221604
    30  H    2.834228   4.342819   4.970502   4.716929   6.283277
    31  H    2.887522   4.127057   4.161587   2.843260   5.216480
    32  H    4.203150   5.031379   4.481037   4.399028   5.646739
    33  H    2.129504   2.705992   2.529247   3.480246   3.910422
    34  H    4.028324   3.978573   2.742012   3.450289   3.515231
    35  H    4.552093   4.344599   2.939969   2.690907   3.123018
    36  H    4.601371   5.145200   4.278856   2.722360   4.876810
    37  H    5.338416   5.769268   4.694324   4.013353   5.360571
    38  H    1.087981   2.188983   3.311990   4.044270   4.551815
    39  H    1.089274   2.187244   3.120882   2.793797   4.096362
    40  H    2.174707   1.088691   2.182340   4.125683   3.028815
    41  H    2.194851   1.091131   2.178626   3.175281   2.555053
    42  H    3.036651   2.179404   1.095107   3.446390   1.984366
    43  H    2.762440   2.696062   2.611774   1.087672   2.847674
    44  H    3.989052   3.828309   2.959254   1.089344   2.880612
    45  H    3.265314   3.798322   3.437242   1.084900   3.970415
    46  H    3.763559   2.727892   1.934980   2.450440   0.964012
                   21         22         23         24         25
    21  H    0.000000
    22  H    4.008198   0.000000
    23  H    3.925295   3.050753   0.000000
    24  H    4.925075   2.439476   1.768467   0.000000
    25  H    3.848685   2.541529   3.051838   2.490129   0.000000
    26  H    4.245177   3.756072   2.505308   2.475685   1.774209
    27  H    2.352002   3.863279   4.727414   5.524933   5.041958
    28  H    3.122510   2.787541   4.779643   4.985476   4.329338
    29  H    4.188951   4.050918   4.552314   5.343825   5.939772
    30  H    4.734639   4.064600   5.614642   5.985901   6.212834
    31  H    5.187089   2.405560   4.653027   4.330854   4.934103
    32  H    4.424898   3.045559   2.569007   3.276045   4.699988
    33  H    6.204040   4.597857   5.040128   5.414361   6.824179
    34  H    7.089068   4.787488   4.448821   4.510525   6.625931
    35  H    7.970009   4.855803   5.077486   4.488677   6.675923
    36  H    6.209285   2.568185   3.717768   2.687902   4.437222
    37  H    5.998268   3.255939   2.668757   2.169955   4.513495
    38  H    7.013233   5.653662   6.951608   7.193196   8.071951
    39  H    7.294884   5.046723   6.945664   6.749788   7.577933
    40  H    8.908214   7.099451   7.991689   8.128693   9.535715
    41  H    9.305003   6.865218   8.295170   8.062461   9.382813
    42  H    8.496577   6.320941   6.608116   6.680371   8.539740
    43  H    8.454669   5.218846   7.075603   6.393548   7.650716
    44  H    8.519801   4.916796   6.375799   5.449364   7.071460
    45  H    7.120377   3.566288   5.639392   4.793912   5.931169
    46  H    9.876161   6.764994   7.888016   7.323411   9.073354
                   26         27         28         29         30
    26  H    0.000000
    27  H    5.832213   0.000000
    28  H    5.572061   1.765044   0.000000
    29  H    6.500552   2.420094   3.072728   0.000000
    30  H    7.191924   2.542772   2.409057   1.758597   0.000000
    31  H    6.053273   3.817266   2.737481   3.041953   2.446437
    32  H    4.885543   3.829592   3.965430   2.456901   3.662117
    33  H    7.289683   4.687801   4.743616   2.391374   3.092356
    34  H    6.719676   6.264331   6.136349   4.299378   5.189707
    35  H    6.933513   7.228188   6.685094   5.521618   6.009135
    36  H    5.078892   5.730692   4.844852   4.769004   4.982144
    37  H    4.519440   5.876933   5.474998   4.758835   5.555173
    38  H    8.913428   4.902839   4.787838   3.055978   2.481315
    39  H    8.637203   5.347350   4.625018   3.896652   2.901141
    40  H   10.175842   6.997470   6.892596   4.801970   4.715150
    41  H   10.234012   7.418785   6.885030   5.505555   4.986867
    42  H    8.887513   7.072848   6.958968   4.771811   5.259237
    43  H    8.638552   6.943930   5.951673   5.458608   4.845250
    44  H    7.851241   7.432861   6.443582   5.972907   5.755133
    45  H    6.974136   5.942746   4.788573   4.833387   4.336074
    46  H    9.736995   8.436180   7.741553   6.511332   6.350445
                   31         32         33         34         35
    31  H    0.000000
    32  H    3.046531   0.000000
    33  H    3.039831   2.486554   0.000000
    34  H    4.092254   2.669950   2.435931   0.000000
    35  H    4.267756   3.808918   3.659918   1.764414   0.000000
    36  H    2.771332   3.046002   3.911878   3.051901   2.440282
    37  H    3.873573   2.422574   3.934866   2.429228   2.468693
    38  H    3.429254   4.489118   2.410784   4.677412   5.463060
    39  H    2.643929   4.730990   3.034453   4.717096   4.923990
    40  H    4.948624   5.470372   2.997818   4.420946   5.061341
    41  H    4.611505   5.947161   3.733291   4.813897   4.848489
    42  H    4.719919   4.328789   2.392523   2.391985   3.101282
    43  H    3.308244   5.216277   3.892944   4.277994   3.628824
    44  H    3.736614   4.951791   4.267842   3.615420   2.342748
    45  H    2.135828   4.185943   3.745886   3.885353   3.203038
    46  H    5.059325   5.950316   4.338104   4.011657   3.278242
                   36         37         38         39         40
    36  H    0.000000
    37  H    1.762234   0.000000
    38  H    5.433516   6.017474   0.000000
    39  H    4.623528   5.675956   1.758989   0.000000
    40  H    6.025835   6.436458   2.335804   2.981174   0.000000
    41  H    5.628924   6.472972   2.856418   2.360167   1.759975
    42  H    4.684508   4.691749   3.630233   3.896866   2.330177
    43  H    3.772124   5.078899   3.819163   2.367247   3.778240
    44  H    2.780577   4.014826   5.069653   3.854437   4.840653
    45  H    2.277536   3.850231   4.244262   2.881444   4.848058
    46  H    4.736618   5.512222   4.737190   3.922649   3.485185
                   41         42         43         44         45
    41  H    0.000000
    42  H    2.999228   0.000000
    43  H    2.460066   3.681812   0.000000
    44  H    3.841034   3.810020   1.774678   0.000000
    45  H    3.942562   4.287793   1.751632   1.754838   0.000000
    46  H    2.493032   2.789954   2.228632   2.326510   3.524950
                   46
    46  H    0.000000
 Stoichiometry    C18H26O2
 Framework group  C1[X(C18H26O2)]
 Deg. of freedom   132
 Full point group                 C1      NOp   1
 Largest Abelian subgroup         C1      NOp   1
 Largest concise Abelian subgroup C1      NOp   1
                         Standard orientation:                         
 ---------------------------------------------------------------------
 Center     Atomic      Atomic             Coordinates (Angstroms)
 Number     Number       Type             X           Y           Z
 ---------------------------------------------------------------------
      1          6           0        4.667475   -0.154767   -0.105790
      2          8           0        5.899419   -0.120690   -0.334693
      3          6           0        3.821104    0.960984   -0.238596
      4          6           0        2.485997    0.922375    0.054815
      5          6           0        1.785877   -0.379325    0.332077
      6          6           0        2.630173   -1.565353   -0.134748
      7          6           0        4.047864   -1.432276    0.394717
      8          6           0        1.732172    2.152885    0.244687
      9          6           0        0.259094    2.113033   -0.144176
     10          6           0       -0.414946    0.808885    0.273964
     11          6           0        0.380796   -0.373851   -0.300020
     12          6           0       -1.837024    0.749404   -0.264878
     13          6           0       -2.557578   -0.576532    0.023199
     14          6           0       -1.772538   -1.709614   -0.627461
     15          6           0       -0.333937   -1.718142   -0.107468
     16          6           0       -2.843267    1.800067    0.202028
     17          6           0       -4.195375    1.205811   -0.230125
     18          6           0       -3.921964   -0.268249   -0.629762
     19          6           0       -2.749750   -0.862498    1.517729
     20          8           0       -4.969414   -1.152857   -0.319790
     21          1           0        4.286428    1.901290   -0.499047
     22          1           0        1.667217   -0.446617    1.422600
     23          1           0        2.652489   -1.592642   -1.227487
     24          1           0        2.199670   -2.501453    0.220440
     25          1           0        4.028512   -1.384330    1.488554
     26          1           0        4.662803   -2.284853    0.097673
     27          1           0        2.229296    3.006063   -0.216910
     28          1           0        1.818268    2.336201    1.363508
     29          1           0        0.174621    2.226223   -1.230327
     30          1           0       -0.257747    2.956025    0.310163
     31          1           0       -0.416138    0.754675    1.365636
     32          1           0        0.495673   -0.205118   -1.378220
     33          1           0       -1.764138    0.832085   -1.357869
     34          1           0       -1.769824   -1.577932   -1.712192
     35          1           0       -2.241383   -2.670439   -0.409418
     36          1           0       -0.334932   -1.984189    0.950540
     37          1           0        0.209854   -2.496370   -0.645187
     38          1           0       -2.667913    2.773637   -0.250869
     39          1           0       -2.787388    1.921175    1.283105
     40          1           0       -4.601872    1.756770   -1.076560
     41          1           0       -4.932962    1.240793    0.573186
     42          1           0       -3.817642   -0.341807   -1.717404
     43          1           0       -3.520265   -0.228514    1.950630
     44          1           0       -3.021410   -1.907285    1.663652
     45          1           0       -1.832327   -0.681659    2.067856
     46          1           0       -5.003956   -1.250368    0.638656
 ---------------------------------------------------------------------
 Rotational constants (GHZ):           0.9298200           0.1762890           0.1561694
 Standard basis: 6-31G(d) (6D, 7F)
 There are   352 symmetry adapted cartesian basis functions of A   symmetry.
 There are   352 symmetry adapted basis functions of A   symmetry.
   352 basis functions,   664 primitive gaussians,   352 cartesian basis functions
    75 alpha electrons       75 beta electrons
       nuclear repulsion energy      1671.2085304080 Hartrees.
 NAtoms=   46 NActive=   46 NUniq=   46 SFac= 1.00D+00 NAtFMM=   60 NAOKFM=F Big=F
 Integral buffers will be    131072 words long.
 Raffenetti 2 integral format.
 Two-electron integral symmetry is turned on.
 Nuclear repulsion after empirical dispersion term =     1671.1592848762 Hartrees.
 One-electron integrals computed using PRISM.
 NBasis=   352 RedAO= T EigKep=  1.20D-03  NBF=   352
 NBsUse=   352 1.00D-06 EigRej= -1.00D+00 NBFU=   352
 ExpMin= 1.61D-01 ExpMax= 5.48D+03 ExpMxC= 8.25D+02 IAcc=3 IRadAn=         5 AccDes= 0.00D+00
 Harris functional with IExCor= 4639 and IRadAn=       5 diagonalized for initial guess.
 HarFok:  IExCor= 4639 AccDes= 0.00D+00 IRadAn=         5 IDoV= 1 UseB2=F ITyADJ=14
 ICtDFT=  3500011 ScaDFX=  1.000000  1.000000  1.000000  1.000000
 FoFCou: FMM=F IPFlag=           0 FMFlag=      100000 FMFlg1=           0
         NFxFlg=           0 DoJE=T BraDBF=F KetDBF=T FulRan=T
         wScrn=  0.000000 ICntrl=       500 IOpCl=  0 I1Cent=   200000004 NGrid=           0
         NMat0=    1 NMatS0=      1 NMatT0=    0 NMatD0=    1 NMtDS0=    0 NMtDT0=    0
 Petite list used in FoFCou.
 Requested convergence on RMS density matrix=1.00D-08 within 128 cycles.
 Requested convergence on MAX density matrix=1.00D-06.
 Requested convergence on             energy=1.00D-06.
 No special actions if energy rises.
 Integral accuracy reduced to 1.0D-05 until final iterations.
 Initial convergence to 1.0D-05 achieved.  Increase integral accuracy.
 SCF Done:  E(RwB97XD) =  -851.785477460     A.U. after   15 cycles
            NFock= 15  Conv=0.42D-08     -V/T= 2.0088

 **********************************************************************

            Population analysis using the SCF Density.

 **********************************************************************

 Orbital symmetries:
       Occupied  (A) (A) (A) (A) (A) (A) (A) (A) (A) (A) (A) (A)
                 (A) (A) (A) (A) (A) (A) (A) (A) (A) (A) (A) (A)
                 (A) (A) (A) (A) (A) (A) (A) (A) (A) (A) (A) (A)
                 (A) (A) (A) (A) (A) (A) (A) (A) (A) (A) (A) (A)
                 (A) (A) (A) (A) (A) (A) (A) (A) (A) (A) (A) (A)
                 (A) (A) (A) (A) (A) (A) (A) (A) (A) (A) (A) (A)
                 (A) (A) (A)
       Virtual   (A) (A) (A) (A) (A) (A) (A) (A) (A) (A) (A) (A)
                 (A) (A) (A) (A) (A) (A) (A) (A) (A) (A) (A) (A)
                 (A) (A) (A) (A) (A) (A) (A) (A) (A) (A) (A) (A)
                 (A) (A) (A) (A) (A) (A) (A) (A) (A) (A) (A) (A)
                 (A) (A) (A) (A) (A) (A) (A) (A) (A) (A) (A) (A)
                 (A) (A) (A) (A) (A) (A) (A) (A) (A) (A) (A) (A)
                 (A) (A) (A) (A) (A) (A) (A) (A) (A) (A) (A) (A)
                 (A) (A) (A) (A) (A) (A) (A) (A) (A) (A) (A) (A)
                 (A) (A) (A) (A) (A) (A) (A) (A) (A) (A) (A) (A)
                 (A) (A) (A) (A) (A) (A) (A) (A) (A) (A) (A) (A)
                 (A) (A) (A) (A) (A) (A) (A) (A) (A) (A) (A) (A)
                 (A) (A) (A) (A) (A) (A) (A) (A) (A) (A) (A) (A)
                 (A) (A) (A) (A) (A) (A) (A) (A) (A) (A) (A) (A)
                 (A) (A) (A) (A) (A) (A) (A) (A) (A) (A) (A) (A)
                 (A) (A) (A) (A) (A) (A) (A) (A) (A) (A) (A) (A)
                 (A) (A) (A) (A) (A) (A) (A) (A) (A) (A) (A) (A)
                 (A) (A) (A) (A) (A) (A) (A) (A) (A) (A) (A) (A)
                 (A) (A) (A) (A) (A) (A) (A) (A) (A) (A) (A) (A)
                 (A) (A) (A) (A) (A) (A) (A) (A) (A) (A) (A) (A)
                 (A) (A) (A) (A) (A) (A) (A) (A) (A) (A) (A) (A)
                 (A) (A) (A) (A) (A) (A) (A) (A) (A) (A) (A) (A)
                 (A) (A) (A) (A) (A) (A) (A) (A) (A) (A) (A) (A)
                 (A) (A) (A) (A) (A) (A) (A) (A) (A) (A) (A) (A)
                 (A)
 The electronic state is 1-A.
 Alpha  occ. eigenvalues --  -19.26560 -19.23176 -10.36387 -10.34046 -10.33301
 Alpha  occ. eigenvalues --  -10.31528 -10.31205 -10.30869 -10.30525 -10.30341
 Alpha  occ. eigenvalues --  -10.30324 -10.29990 -10.29939 -10.29702 -10.29674
 Alpha  occ. eigenvalues --  -10.29424 -10.29211 -10.29164 -10.29153 -10.28971
 Alpha  occ. eigenvalues --   -1.12397  -1.09713  -0.98690  -0.96140  -0.91158
 Alpha  occ. eigenvalues --   -0.90540  -0.87623  -0.84591  -0.82978  -0.81849
 Alpha  occ. eigenvalues --   -0.78261  -0.77903  -0.73937  -0.72132  -0.69796
 Alpha  occ. eigenvalues --   -0.68007  -0.66633  -0.65679  -0.63559  -0.61143
 Alpha  occ. eigenvalues --   -0.59620  -0.57993  -0.56724  -0.55984  -0.55547
 Alpha  occ. eigenvalues --   -0.54498  -0.53466  -0.52950  -0.51176  -0.50881
 Alpha  occ. eigenvalues --   -0.50378  -0.49626  -0.49513  -0.48658  -0.48197
 Alpha  occ. eigenvalues --   -0.47838  -0.47126  -0.46871  -0.45310  -0.44983
 Alpha  occ. eigenvalues --   -0.43906  -0.43487  -0.43136  -0.42239  -0.42032
 Alpha  occ. eigenvalues --   -0.41621  -0.41059  -0.40573  -0.39914  -0.39133
 Alpha  occ. eigenvalues --   -0.37171  -0.36282  -0.33440  -0.32254  -0.30696
 Alpha virt. eigenvalues --    0.01860   0.13231   0.14435   0.14851   0.16658
 Alpha virt. eigenvalues --    0.17097   0.17943   0.18702   0.19250   0.20135
 Alpha virt. eigenvalues --    0.20528   0.20689   0.21834   0.22442   0.23494
 Alpha virt. eigenvalues --    0.23712   0.24019   0.24500   0.25027   0.25189
 Alpha virt. eigenvalues --    0.25466   0.26251   0.26355   0.26781   0.27039
 Alpha virt. eigenvalues --    0.27616   0.28107   0.28661   0.29674   0.30246
 Alpha virt. eigenvalues --    0.30745   0.31205   0.31714   0.32097   0.33072
 Alpha virt. eigenvalues --    0.33688   0.34005   0.35182   0.36070   0.36499
 Alpha virt. eigenvalues --    0.37109   0.37706   0.39194   0.39762   0.41254
 Alpha virt. eigenvalues --    0.41801   0.42495   0.45440   0.45575   0.50346
 Alpha virt. eigenvalues --    0.51758   0.57973   0.58717   0.59212   0.59870
 Alpha virt. eigenvalues --    0.61410   0.61975   0.62340   0.63129   0.65509
 Alpha virt. eigenvalues --    0.66103   0.66293   0.66822   0.68322   0.69409
 Alpha virt. eigenvalues --    0.70215   0.71212   0.72671   0.72976   0.73208
 Alpha virt. eigenvalues --    0.73840   0.74374   0.75230   0.76020   0.76575
 Alpha virt. eigenvalues --    0.77531   0.78092   0.78591   0.80161   0.81268
 Alpha virt. eigenvalues --    0.83206   0.83617   0.84321   0.84764   0.85891
 Alpha virt. eigenvalues --    0.87207   0.87526   0.89039   0.89874   0.89996
 Alpha virt. eigenvalues --    0.91250   0.92163   0.93191   0.94522   0.94904
 Alpha virt. eigenvalues --    0.95217   0.95587   0.95994   0.96669   0.96765
 Alpha virt. eigenvalues --    0.97283   0.97452   0.98174   0.98863   0.98917
 Alpha virt. eigenvalues --    0.99268   0.99950   1.00258   1.01234   1.02363
 Alpha virt. eigenvalues --    1.03120   1.03565   1.03867   1.03981   1.04878
 Alpha virt. eigenvalues --    1.05711   1.05920   1.06379   1.07834   1.08146
 Alpha virt. eigenvalues --    1.09007   1.09882   1.11327   1.13138   1.13768
 Alpha virt. eigenvalues --    1.14776   1.15370   1.16345   1.18604   1.20022
 Alpha virt. eigenvalues --    1.22053   1.23773   1.26277   1.27886   1.29675
 Alpha virt. eigenvalues --    1.30506   1.31973   1.34257   1.35859   1.38211
 Alpha virt. eigenvalues --    1.39476   1.42242   1.43152   1.43855   1.47893
 Alpha virt. eigenvalues --    1.51698   1.53433   1.55274   1.56909   1.59325
 Alpha virt. eigenvalues --    1.60754   1.62389   1.65208   1.65663   1.67741
 Alpha virt. eigenvalues --    1.69648   1.70695   1.73496   1.74598   1.76976
 Alpha virt. eigenvalues --    1.77742   1.79009   1.80832   1.82137   1.83992
 Alpha virt. eigenvalues --    1.85077   1.86835   1.87751   1.88044   1.88589
 Alpha virt. eigenvalues --    1.90270   1.92492   1.94018   1.95025   1.95118
 Alpha virt. eigenvalues --    1.95854   1.97070   1.97165   1.99461   2.00009
 Alpha virt. eigenvalues --    2.00940   2.01906   2.02539   2.02688   2.04024
 Alpha virt. eigenvalues --    2.05714   2.06182   2.07003   2.07220   2.07978
 Alpha virt. eigenvalues --    2.09205   2.10082   2.10629   2.11619   2.12715
 Alpha virt. eigenvalues --    2.13512   2.14262   2.15530   2.15684   2.18539
 Alpha virt. eigenvalues --    2.19751   2.20561   2.21958   2.23994   2.25982
 Alpha virt. eigenvalues --    2.26882   2.27894   2.30349   2.31573   2.32904
 Alpha virt. eigenvalues --    2.34932   2.35215   2.36913   2.39349   2.40544
 Alpha virt. eigenvalues --    2.40802   2.42581   2.43216   2.44962   2.46102
 Alpha virt. eigenvalues --    2.48235   2.49334   2.51464   2.51758   2.53237
 Alpha virt. eigenvalues --    2.55189   2.57945   2.58864   2.60858   2.62438
 Alpha virt. eigenvalues --    2.64050   2.65335   2.65941   2.66295   2.67383
 Alpha virt. eigenvalues --    2.69505   2.71293   2.71869   2.75155   2.77586
 Alpha virt. eigenvalues --    2.79280   2.80262   2.81947   2.83164   2.85990
 Alpha virt. eigenvalues --    2.87173   2.91604   2.94795   2.97481   2.99925
 Alpha virt. eigenvalues --    3.01352   3.02534   3.07429   3.09115   3.10637
 Alpha virt. eigenvalues --    3.21728   3.28104   4.02395   4.08974   4.25934
 Alpha virt. eigenvalues --    4.27317   4.31561   4.34404   4.36805   4.38408
 Alpha virt. eigenvalues --    4.42598   4.42923   4.48243   4.54228   4.55679
 Alpha virt. eigenvalues --    4.65745   4.68170   4.75542   4.77351   4.81346
 Alpha virt. eigenvalues --    4.86384   4.91744
          Condensed to atoms (all electrons):
               1          2          3          4          5          6
     1  C    4.434481   0.527396   0.362752   0.004037  -0.023642  -0.027255
     2  O    0.527396   8.120323  -0.060664   0.005008   0.000349   0.002163
     3  C    0.362752  -0.060664   5.308316   0.514435  -0.042612   0.004982
     4  C    0.004037   0.005008   0.514435   4.864166   0.377652  -0.046282
     5  C   -0.023642   0.000349  -0.042612   0.377652   5.103279   0.349699
     6  C   -0.027255   0.002163   0.004982  -0.046282   0.349699   5.151046
     7  C    0.344500  -0.079414  -0.140396   0.000883  -0.035890   0.288643
     8  C    0.003938  -0.000098  -0.040547   0.362982  -0.070233   0.005585
     9  C   -0.000135   0.000000   0.003310  -0.034013  -0.012375  -0.000215
    10  C   -0.000020   0.000000   0.000542  -0.013897  -0.040537   0.004272
    11  C   -0.000146   0.000001   0.002641  -0.032637   0.363165  -0.048955
    12  C   -0.000000   0.000000   0.000003   0.000219   0.004222  -0.000147
    13  C   -0.000000   0.000000   0.000000   0.000003   0.000050  -0.000003
    14  C    0.000000  -0.000000   0.000001  -0.000092   0.003819   0.000218
    15  C   -0.000004  -0.000000  -0.000095   0.004405  -0.043652  -0.004723
    16  C   -0.000000  -0.000000   0.000000  -0.000004  -0.000118   0.000001
    17  C   -0.000000  -0.000000  -0.000000   0.000000   0.000002  -0.000000
    18  C    0.000000   0.000000  -0.000000  -0.000000   0.000005   0.000000
    19  C   -0.000000   0.000000   0.000000   0.000000   0.000039  -0.000001
    20  O   -0.000000   0.000000   0.000000   0.000000  -0.000000   0.000000
    21  H   -0.029165   0.000503   0.359564  -0.047750   0.004832  -0.000443
    22  H    0.000969   0.000006  -0.002965  -0.043013   0.365429  -0.034347
    23  H   -0.002903   0.000138   0.004057  -0.004654  -0.042715   0.387029
    24  H    0.003627  -0.000076  -0.000280   0.004690  -0.030029   0.377614
    25  H   -0.028338   0.000067   0.002660  -0.002266  -0.003845  -0.039770
    26  H   -0.025478   0.003264   0.005766  -0.000092   0.004309  -0.031376
    27  H    0.000238  -0.000002  -0.002325  -0.039930   0.004450  -0.000159
    28  H   -0.000113   0.000005  -0.010360  -0.043474  -0.000158   0.000179
    29  H    0.000000  -0.000000  -0.000207  -0.002850   0.000364   0.000014
    30  H    0.000001  -0.000000  -0.000087   0.004107  -0.000030   0.000011
    31  H    0.000004   0.000000  -0.000178  -0.003382  -0.002375   0.000169
    32  H    0.000043  -0.000000   0.000137  -0.003162  -0.042748  -0.004037
    33  H    0.000000   0.000000  -0.000002  -0.000078   0.000201   0.000001
    34  H    0.000000   0.000000  -0.000000   0.000003   0.000057  -0.000028
    35  H    0.000000  -0.000000  -0.000000   0.000001  -0.000105   0.000002
    36  H    0.000001  -0.000000  -0.000005   0.000159  -0.002819  -0.001694
    37  H   -0.000012  -0.000000   0.000017  -0.000133  -0.007362   0.003206
    38  H    0.000000  -0.000000   0.000000  -0.000001   0.000000  -0.000000
    39  H    0.000000   0.000000  -0.000000  -0.000001   0.000002   0.000000
    40  H    0.000000  -0.000000   0.000000   0.000000  -0.000000   0.000000
    41  H    0.000000  -0.000000   0.000000  -0.000000  -0.000000   0.000000
    42  H    0.000000  -0.000000   0.000000   0.000000  -0.000000  -0.000000
    43  H   -0.000000   0.000000   0.000000   0.000000  -0.000001  -0.000000
    44  H    0.000000   0.000000  -0.000000   0.000000  -0.000004   0.000000
    45  H    0.000000  -0.000000  -0.000000   0.000001   0.000021   0.000003
    46  H   -0.000000   0.000000   0.000000   0.000000  -0.000000   0.000000
               7          8          9         10         11         12
     1  C    0.344500   0.003938  -0.000135  -0.000020  -0.000146  -0.000000
     2  O   -0.079414  -0.000098   0.000000   0.000000   0.000001   0.000000
     3  C   -0.140396  -0.040547   0.003310   0.000542   0.002641   0.000003
     4  C    0.000883   0.362982  -0.034013  -0.013897  -0.032637   0.000219
     5  C   -0.035890  -0.070233  -0.012375  -0.040537   0.363165   0.004222
     6  C    0.288643   0.005585  -0.000215   0.004272  -0.048955  -0.000147
     7  C    5.355595  -0.000219   0.000041  -0.000104   0.004785   0.000002
     8  C   -0.000219   5.174166   0.331587  -0.043940  -0.016211   0.003900
     9  C    0.000041   0.331587   5.098152   0.371381  -0.044290  -0.044622
    10  C   -0.000104  -0.043940   0.371381   5.023991   0.371449   0.366486
    11  C    0.004785  -0.016211  -0.044290   0.371449   5.049851  -0.040453
    12  C    0.000002   0.003900  -0.044622   0.366486  -0.040453   5.109501
    13  C    0.000000  -0.000134   0.004386  -0.028221  -0.012523   0.359356
    14  C   -0.000003  -0.000009  -0.000081  -0.011233  -0.038956  -0.051207
    15  C    0.000281   0.000398   0.004336  -0.040703   0.366567  -0.017637
    16  C   -0.000000   0.000102  -0.003784  -0.035231   0.004511   0.356075
    17  C    0.000000  -0.000000   0.000110   0.004597  -0.000220  -0.055359
    18  C   -0.000000   0.000002  -0.000130   0.004068   0.000122  -0.065781
    19  C   -0.000000  -0.000000   0.000201  -0.006870  -0.001920  -0.058978
    20  O    0.000000  -0.000000   0.000000  -0.000062  -0.000003   0.002834
    21  H    0.006997  -0.007380   0.000199   0.000002  -0.000093  -0.000000
    22  H   -0.005732   0.000800  -0.000596  -0.006642  -0.041816   0.000090
    23  H   -0.043011  -0.000014  -0.000034   0.000132  -0.002666  -0.000001
    24  H   -0.031245  -0.000119  -0.000008  -0.000055  -0.008461  -0.000003
    25  H    0.366596  -0.000078  -0.000002   0.000001   0.000085   0.000000
    26  H    0.368831   0.000009   0.000000   0.000002  -0.000076  -0.000000
    27  H    0.000016   0.379328  -0.031307   0.003961  -0.000161  -0.000107
    28  H   -0.000129   0.375654  -0.040226  -0.003109  -0.000753  -0.000033
    29  H   -0.000003  -0.037216   0.381764  -0.039983  -0.007033  -0.005567
    30  H   -0.000000  -0.030958   0.379466  -0.032331   0.005070  -0.006615
    31  H   -0.000012   0.001059  -0.045547   0.378974  -0.048814  -0.041085
    32  H   -0.000152  -0.000274  -0.005185  -0.046825   0.378125  -0.004074
    33  H   -0.000000   0.000114  -0.007091  -0.044770  -0.006158   0.383937
    34  H   -0.000000   0.000000  -0.000027  -0.000361  -0.004283  -0.005987
    35  H   -0.000000  -0.000000   0.000010  -0.000083   0.004294   0.006193
    36  H   -0.000066  -0.000017   0.000011  -0.003907  -0.043604  -0.000472
    37  H    0.000094  -0.000010  -0.000132   0.004354  -0.031319   0.000131
    38  H    0.000000  -0.000008   0.001741  -0.001950  -0.000083  -0.027069
    39  H   -0.000000  -0.000023  -0.000682  -0.004086   0.000079  -0.039270
    40  H   -0.000000  -0.000000  -0.000008  -0.000061   0.000004   0.000782
    41  H   -0.000000  -0.000000   0.000002  -0.000148   0.000003   0.003686
    42  H   -0.000000  -0.000000   0.000005  -0.000245   0.000002  -0.004839
    43  H    0.000000  -0.000000  -0.000016   0.000012   0.000004  -0.002955
    44  H    0.000000  -0.000000   0.000001  -0.000017   0.000119   0.005289
    45  H    0.000000   0.000011  -0.000095   0.002731  -0.000265  -0.006783
    46  H    0.000000  -0.000000   0.000000  -0.000010   0.000001   0.000228
              13         14         15         16         17         18
     1  C   -0.000000   0.000000  -0.000004  -0.000000  -0.000000   0.000000
     2  O    0.000000  -0.000000  -0.000000  -0.000000  -0.000000   0.000000
     3  C    0.000000   0.000001  -0.000095   0.000000  -0.000000  -0.000000
     4  C    0.000003  -0.000092   0.004405  -0.000004   0.000000  -0.000000
     5  C    0.000050   0.003819  -0.043652  -0.000118   0.000002   0.000005
     6  C   -0.000003   0.000218  -0.004723   0.000001  -0.000000   0.000000
     7  C    0.000000  -0.000003   0.000281  -0.000000   0.000000  -0.000000
     8  C   -0.000134  -0.000009   0.000398   0.000102  -0.000000   0.000002
     9  C    0.004386  -0.000081   0.004336  -0.003784   0.000110  -0.000130
    10  C   -0.028221  -0.011233  -0.040703  -0.035231   0.004597   0.004068
    11  C   -0.012523  -0.038956   0.366567   0.004511  -0.000220   0.000122
    12  C    0.359356  -0.051207  -0.017637   0.356075  -0.055359  -0.065781
    13  C    5.091236   0.379168  -0.041414  -0.056215  -0.087556   0.366590
    14  C    0.379168   5.096524   0.352359   0.005832   0.007208  -0.040986
    15  C   -0.041414   0.352359   5.106109   0.000206  -0.000212   0.004332
    16  C   -0.056215   0.005832   0.000206   5.131986   0.318014  -0.060258
    17  C   -0.087556   0.007208  -0.000212   0.318014   5.246508   0.340572
    18  C    0.366590  -0.040986   0.004332  -0.060258   0.340572   4.803961
    19  C    0.327126  -0.065005  -0.004254  -0.002871  -0.010360  -0.045314
    20  O   -0.045587   0.001670   0.000038   0.003289  -0.049682   0.270683
    21  H   -0.000000  -0.000000   0.000002  -0.000000  -0.000000  -0.000000
    22  H   -0.000031   0.000020  -0.005710  -0.000002   0.000000  -0.000000
    23  H   -0.000001  -0.000055  -0.001866   0.000000   0.000000  -0.000000
    24  H   -0.000003   0.000065   0.003492  -0.000000   0.000000   0.000000
    25  H   -0.000000  -0.000000  -0.000030   0.000000   0.000000  -0.000000
    26  H   -0.000000  -0.000000  -0.000001   0.000000  -0.000000  -0.000000
    27  H    0.000001  -0.000000   0.000009  -0.000000  -0.000000  -0.000000
    28  H    0.000004   0.000000  -0.000010  -0.000011  -0.000000  -0.000000
    29  H    0.000107  -0.000015   0.000054  -0.000708  -0.000030  -0.000008
    30  H   -0.000036  -0.000005  -0.000134   0.003606  -0.000001  -0.000007
    31  H   -0.007130   0.000291  -0.002887  -0.004154  -0.000017   0.000032
    32  H   -0.001271  -0.000908  -0.044804  -0.000032   0.000004  -0.000067
    33  H   -0.053090  -0.005702  -0.001038  -0.044887  -0.002814  -0.003213
    34  H   -0.037624   0.380720  -0.038133   0.000028   0.000073  -0.006052
    35  H   -0.033010   0.376509  -0.035525  -0.000241   0.000073  -0.003929
    36  H   -0.008865  -0.035961   0.380826  -0.000020  -0.000000  -0.000028
    37  H    0.005000  -0.034841   0.382098   0.000009   0.000004  -0.000084
    38  H    0.005136  -0.000146  -0.000003   0.377984  -0.027210   0.002549
    39  H   -0.006901   0.000022  -0.000021   0.385032  -0.032713   0.001616
    40  H    0.004303  -0.000154   0.000003  -0.030588   0.376760  -0.024658
    41  H   -0.000195  -0.000116   0.000003  -0.028120   0.370947  -0.032137
    42  H   -0.048346  -0.008181   0.000065   0.003942  -0.051733   0.395343
    43  H   -0.036564   0.004913   0.000097   0.001491   0.003048  -0.004696
    44  H   -0.030057  -0.005816  -0.000768  -0.000146   0.000298  -0.003878
    45  H   -0.031301  -0.002518   0.001039  -0.000380  -0.000068   0.004800
    46  H   -0.016753  -0.000195  -0.000009  -0.000023  -0.003207  -0.029518
              19         20         21         22         23         24
     1  C   -0.000000  -0.000000  -0.029165   0.000969  -0.002903   0.003627
     2  O    0.000000   0.000000   0.000503   0.000006   0.000138  -0.000076
     3  C    0.000000   0.000000   0.359564  -0.002965   0.004057  -0.000280
     4  C    0.000000   0.000000  -0.047750  -0.043013  -0.004654   0.004690
     5  C    0.000039  -0.000000   0.004832   0.365429  -0.042715  -0.030029
     6  C   -0.000001   0.000000  -0.000443  -0.034347   0.387029   0.377614
     7  C   -0.000000   0.000000   0.006997  -0.005732  -0.043011  -0.031245
     8  C   -0.000000  -0.000000  -0.007380   0.000800  -0.000014  -0.000119
     9  C    0.000201   0.000000   0.000199  -0.000596  -0.000034  -0.000008
    10  C   -0.006870  -0.000062   0.000002  -0.006642   0.000132  -0.000055
    11  C   -0.001920  -0.000003  -0.000093  -0.041816  -0.002666  -0.008461
    12  C   -0.058978   0.002834  -0.000000   0.000090  -0.000001  -0.000003
    13  C    0.327126  -0.045587  -0.000000  -0.000031  -0.000001  -0.000003
    14  C   -0.065005   0.001670  -0.000000   0.000020  -0.000055   0.000065
    15  C   -0.004254   0.000038   0.000002  -0.005710  -0.001866   0.003492
    16  C   -0.002871   0.003289  -0.000000  -0.000002   0.000000  -0.000000
    17  C   -0.010360  -0.049682  -0.000000   0.000000   0.000000   0.000000
    18  C   -0.045314   0.270683  -0.000000  -0.000000  -0.000000   0.000000
    19  C    5.265852  -0.000876   0.000000  -0.000045  -0.000000  -0.000001
    20  O   -0.000876   8.261263   0.000000  -0.000000  -0.000000   0.000000
    21  H    0.000000   0.000000   0.537094  -0.000206  -0.000117   0.000013
    22  H   -0.000045  -0.000000  -0.000206   0.588590   0.005419  -0.003112
    23  H   -0.000000  -0.000000  -0.000117   0.005419   0.553951  -0.029840
    24  H   -0.000001   0.000000   0.000013  -0.003112  -0.029840   0.550221
    25  H   -0.000000  -0.000000  -0.000185   0.005555   0.005164  -0.004085
    26  H    0.000000   0.000000  -0.000111  -0.000170  -0.002555  -0.003142
    27  H    0.000000   0.000000   0.005358  -0.000104   0.000001   0.000002
    28  H   -0.000001   0.000000   0.000192   0.001897   0.000002   0.000010
    29  H   -0.000005   0.000000  -0.000010   0.000083  -0.000003   0.000001
    30  H   -0.000001  -0.000000  -0.000007  -0.000020   0.000000   0.000000
    31  H    0.001025  -0.000000  -0.000001   0.006106   0.000007   0.000002
    32  H    0.000056   0.000000  -0.000027   0.005977   0.004566   0.000086
    33  H    0.006667   0.000069  -0.000000   0.000001  -0.000002  -0.000000
    34  H    0.006203  -0.000136  -0.000000   0.000003   0.000004   0.000009
    35  H   -0.007760   0.002883   0.000000  -0.000000   0.000000   0.000005
    36  H    0.004130  -0.000002  -0.000000   0.004577   0.000168   0.001094
    37  H   -0.000036   0.000001   0.000000   0.000011   0.001073   0.000540
    38  H    0.000047  -0.000041  -0.000000   0.000000   0.000000  -0.000000
    39  H    0.003161  -0.000005   0.000000  -0.000002  -0.000000  -0.000000
    40  H    0.000194   0.002399   0.000000  -0.000000  -0.000000  -0.000000
    41  H    0.000215   0.000263   0.000000  -0.000000   0.000000   0.000000
    42  H    0.006379  -0.041420   0.000000  -0.000000   0.000000   0.000000
    43  H    0.376969  -0.000893  -0.000000   0.000001   0.000000   0.000000
    44  H    0.374846   0.002024   0.000000   0.000001   0.000000  -0.000000
    45  H    0.377276   0.000307  -0.000000   0.000011  -0.000000  -0.000001
    46  H    0.013250   0.244025   0.000000   0.000000   0.000000   0.000000
              25         26         27         28         29         30
     1  C   -0.028338  -0.025478   0.000238  -0.000113   0.000000   0.000001
     2  O    0.000067   0.003264  -0.000002   0.000005  -0.000000  -0.000000
     3  C    0.002660   0.005766  -0.002325  -0.010360  -0.000207  -0.000087
     4  C   -0.002266  -0.000092  -0.039930  -0.043474  -0.002850   0.004107
     5  C   -0.003845   0.004309   0.004450  -0.000158   0.000364  -0.000030
     6  C   -0.039770  -0.031376  -0.000159   0.000179   0.000014   0.000011
     7  C    0.366596   0.368831   0.000016  -0.000129  -0.000003  -0.000000
     8  C   -0.000078   0.000009   0.379328   0.375654  -0.037216  -0.030958
     9  C   -0.000002   0.000000  -0.031307  -0.040226   0.381764   0.379466
    10  C    0.000001   0.000002   0.003961  -0.003109  -0.039983  -0.032331
    11  C    0.000085  -0.000076  -0.000161  -0.000753  -0.007033   0.005070
    12  C    0.000000  -0.000000  -0.000107  -0.000033  -0.005567  -0.006615
    13  C   -0.000000  -0.000000   0.000001   0.000004   0.000107  -0.000036
    14  C   -0.000000  -0.000000  -0.000000   0.000000  -0.000015  -0.000005
    15  C   -0.000030  -0.000001   0.000009  -0.000010   0.000054  -0.000134
    16  C    0.000000   0.000000  -0.000000  -0.000011  -0.000708   0.003606
    17  C    0.000000  -0.000000  -0.000000  -0.000000  -0.000030  -0.000001
    18  C   -0.000000  -0.000000  -0.000000  -0.000000  -0.000008  -0.000007
    19  C   -0.000000   0.000000   0.000000  -0.000001  -0.000005  -0.000001
    20  O   -0.000000   0.000000   0.000000   0.000000   0.000000  -0.000000
    21  H   -0.000185  -0.000111   0.005358   0.000192  -0.000010  -0.000007
    22  H    0.005555  -0.000170  -0.000104   0.001897   0.000083  -0.000020
    23  H    0.005164  -0.002555   0.000001   0.000002  -0.000003   0.000000
    24  H   -0.004085  -0.003142   0.000002   0.000010   0.000001   0.000000
    25  H    0.540653  -0.021184   0.000000   0.000018   0.000000   0.000000
    26  H   -0.021184   0.509056   0.000000  -0.000002  -0.000000   0.000000
    27  H    0.000000   0.000000   0.525537  -0.025163  -0.004210  -0.001030
    28  H    0.000018  -0.000002  -0.025163   0.566015   0.004881  -0.006125
    29  H    0.000000  -0.000000  -0.004210   0.004881   0.564588  -0.030442
    30  H    0.000000   0.000000  -0.001030  -0.006125  -0.030442   0.549813
    31  H   -0.000002   0.000000  -0.000040   0.003327   0.005572  -0.003823
    32  H    0.000010  -0.000001  -0.000083   0.000136   0.005145   0.000066
    33  H   -0.000000   0.000000   0.000001   0.000002   0.005777  -0.000012
    34  H    0.000000   0.000000  -0.000000  -0.000000  -0.000012   0.000001
    35  H    0.000000   0.000000   0.000000  -0.000000   0.000000  -0.000000
    36  H    0.000005   0.000001  -0.000000  -0.000000  -0.000001   0.000004
    37  H    0.000009   0.000002  -0.000000   0.000000  -0.000001   0.000002
    38  H    0.000000  -0.000000   0.000001   0.000004   0.000437   0.000534
    39  H   -0.000000   0.000000   0.000000  -0.000001   0.000079   0.000550
    40  H    0.000000   0.000000   0.000000  -0.000000  -0.000001   0.000003
    41  H   -0.000000   0.000000   0.000000   0.000000   0.000000   0.000001
    42  H   -0.000000   0.000000   0.000000  -0.000000  -0.000003  -0.000000
    43  H    0.000000   0.000000  -0.000000   0.000000   0.000000   0.000000
    44  H    0.000000  -0.000000   0.000000   0.000000   0.000000  -0.000000
    45  H    0.000000   0.000000  -0.000000  -0.000003   0.000000   0.000002
    46  H    0.000000   0.000000   0.000000   0.000000  -0.000000  -0.000000
              31         32         33         34         35         36
     1  C    0.000004   0.000043   0.000000   0.000000   0.000000   0.000001
     2  O    0.000000  -0.000000   0.000000   0.000000  -0.000000  -0.000000
     3  C   -0.000178   0.000137  -0.000002  -0.000000  -0.000000  -0.000005
     4  C   -0.003382  -0.003162  -0.000078   0.000003   0.000001   0.000159
     5  C   -0.002375  -0.042748   0.000201   0.000057  -0.000105  -0.002819
     6  C    0.000169  -0.004037   0.000001  -0.000028   0.000002  -0.001694
     7  C   -0.000012  -0.000152  -0.000000  -0.000000  -0.000000  -0.000066
     8  C    0.001059  -0.000274   0.000114   0.000000  -0.000000  -0.000017
     9  C   -0.045547  -0.005185  -0.007091  -0.000027   0.000010   0.000011
    10  C    0.378974  -0.046825  -0.044770  -0.000361  -0.000083  -0.003907
    11  C   -0.048814   0.378125  -0.006158  -0.004283   0.004294  -0.043604
    12  C   -0.041085  -0.004074   0.383937  -0.005987   0.006193  -0.000472
    13  C   -0.007130  -0.001271  -0.053090  -0.037624  -0.033010  -0.008865
    14  C    0.000291  -0.000908  -0.005702   0.380720   0.376509  -0.035961
    15  C   -0.002887  -0.044804  -0.001038  -0.038133  -0.035525   0.380826
    16  C   -0.004154  -0.000032  -0.044887   0.000028  -0.000241  -0.000020
    17  C   -0.000017   0.000004  -0.002814   0.000073   0.000073  -0.000000
    18  C    0.000032  -0.000067  -0.003213  -0.006052  -0.003929  -0.000028
    19  C    0.001025   0.000056   0.006667   0.006203  -0.007760   0.004130
    20  O   -0.000000   0.000000   0.000069  -0.000136   0.002883  -0.000002
    21  H   -0.000001  -0.000027  -0.000000  -0.000000   0.000000  -0.000000
    22  H    0.006106   0.005977   0.000001   0.000003  -0.000000   0.004577
    23  H    0.000007   0.004566  -0.000002   0.000004   0.000000   0.000168
    24  H    0.000002   0.000086  -0.000000   0.000009   0.000005   0.001094
    25  H   -0.000002   0.000010  -0.000000   0.000000   0.000000   0.000005
    26  H    0.000000  -0.000001   0.000000   0.000000   0.000000   0.000001
    27  H   -0.000040  -0.000083   0.000001  -0.000000   0.000000  -0.000000
    28  H    0.003327   0.000136   0.000002  -0.000000  -0.000000  -0.000000
    29  H    0.005572   0.005145   0.005777  -0.000012   0.000000  -0.000001
    30  H   -0.003823   0.000066  -0.000012   0.000001  -0.000000   0.000004
    31  H    0.605578   0.005882   0.005976   0.000037  -0.000004   0.001914
    32  H    0.005882   0.601041   0.004728   0.003555  -0.000053   0.005511
    33  H    0.005976   0.004728   0.615836   0.004823   0.000020   0.000090
    34  H    0.000037   0.003555   0.004823   0.570363  -0.028663   0.005052
    35  H   -0.000004  -0.000053   0.000020  -0.028663   0.557275  -0.003941
    36  H    0.001914   0.005511   0.000090   0.005052  -0.003941   0.577570
    37  H   -0.000065  -0.004622  -0.000080  -0.004374  -0.002234  -0.031170
    38  H   -0.000127  -0.000001  -0.006035  -0.000001   0.000003   0.000000
    39  H    0.004019   0.000003   0.005367  -0.000007   0.000005  -0.000007
    40  H    0.000001  -0.000000   0.000737  -0.000014  -0.000001   0.000000
    41  H   -0.000005  -0.000000  -0.000030  -0.000001  -0.000001  -0.000000
    42  H   -0.000007  -0.000008   0.004432   0.005463  -0.000137   0.000000
    43  H    0.000048   0.000002  -0.000097  -0.000142  -0.000015   0.000010
    44  H   -0.000032   0.000002  -0.000118   0.000099   0.005803   0.000660
    45  H    0.004600  -0.000014   0.000044  -0.000120  -0.000078   0.000728
    46  H   -0.000002  -0.000000   0.000005   0.000015   0.000016  -0.000003
              37         38         39         40         41         42
     1  C   -0.000012   0.000000   0.000000   0.000000   0.000000   0.000000
     2  O   -0.000000  -0.000000   0.000000  -0.000000  -0.000000  -0.000000
     3  C    0.000017   0.000000  -0.000000   0.000000   0.000000   0.000000
     4  C   -0.000133  -0.000001  -0.000001   0.000000  -0.000000   0.000000
     5  C   -0.007362   0.000000   0.000002  -0.000000  -0.000000  -0.000000
     6  C    0.003206  -0.000000   0.000000   0.000000   0.000000  -0.000000
     7  C    0.000094   0.000000  -0.000000  -0.000000  -0.000000  -0.000000
     8  C   -0.000010  -0.000008  -0.000023  -0.000000  -0.000000  -0.000000
     9  C   -0.000132   0.001741  -0.000682  -0.000008   0.000002   0.000005
    10  C    0.004354  -0.001950  -0.004086  -0.000061  -0.000148  -0.000245
    11  C   -0.031319  -0.000083   0.000079   0.000004   0.000003   0.000002
    12  C    0.000131  -0.027069  -0.039270   0.000782   0.003686  -0.004839
    13  C    0.005000   0.005136  -0.006901   0.004303  -0.000195  -0.048346
    14  C   -0.034841  -0.000146   0.000022  -0.000154  -0.000116  -0.008181
    15  C    0.382098  -0.000003  -0.000021   0.000003   0.000003   0.000065
    16  C    0.000009   0.377984   0.385032  -0.030588  -0.028120   0.003942
    17  C    0.000004  -0.027210  -0.032713   0.376760   0.370947  -0.051733
    18  C   -0.000084   0.002549   0.001616  -0.024658  -0.032137   0.395343
    19  C   -0.000036   0.000047   0.003161   0.000194   0.000215   0.006379
    20  O    0.000001  -0.000041  -0.000005   0.002399   0.000263  -0.041420
    21  H    0.000000  -0.000000   0.000000   0.000000   0.000000   0.000000
    22  H    0.000011   0.000000  -0.000002  -0.000000  -0.000000  -0.000000
    23  H    0.001073   0.000000  -0.000000  -0.000000   0.000000   0.000000
    24  H    0.000540  -0.000000  -0.000000  -0.000000   0.000000   0.000000
    25  H    0.000009   0.000000  -0.000000   0.000000  -0.000000  -0.000000
    26  H    0.000002  -0.000000   0.000000   0.000000   0.000000   0.000000
    27  H   -0.000000   0.000001   0.000000   0.000000   0.000000   0.000000
    28  H    0.000000   0.000004  -0.000001  -0.000000   0.000000  -0.000000
    29  H   -0.000001   0.000437   0.000079  -0.000001   0.000000  -0.000003
    30  H    0.000002   0.000534   0.000550   0.000003   0.000001  -0.000000
    31  H   -0.000065  -0.000127   0.004019   0.000001  -0.000005  -0.000007
    32  H   -0.004622  -0.000001   0.000003  -0.000000  -0.000000  -0.000008
    33  H   -0.000080  -0.006035   0.005367   0.000737  -0.000030   0.004432
    34  H   -0.004374  -0.000001  -0.000007  -0.000014  -0.000001   0.005463
    35  H   -0.002234   0.000003   0.000005  -0.000001  -0.000001  -0.000137
    36  H   -0.031170   0.000000  -0.000007   0.000000  -0.000000   0.000000
    37  H    0.551985  -0.000000  -0.000000  -0.000000  -0.000000  -0.000007
    38  H   -0.000000   0.548828  -0.032423  -0.007094   0.002355  -0.000127
    39  H   -0.000000  -0.032423   0.566745   0.003819  -0.009056  -0.000172
    40  H   -0.000000  -0.007094   0.003819   0.534954  -0.026295  -0.006494
    41  H   -0.000000   0.002355  -0.009056  -0.026295   0.552671   0.004148
    42  H   -0.000007  -0.000127  -0.000172  -0.006494   0.004148   0.581405
    43  H   -0.000000   0.000031  -0.000370  -0.000071   0.001348   0.000139
    44  H   -0.000051   0.000001   0.000048  -0.000004  -0.000032  -0.000154
    45  H    0.000029  -0.000026   0.000429   0.000001  -0.000012  -0.000106
    46  H    0.000000   0.000001  -0.000074  -0.000232   0.004001   0.007306
              43         44         45         46
     1  C   -0.000000   0.000000   0.000000  -0.000000
     2  O    0.000000   0.000000  -0.000000   0.000000
     3  C    0.000000  -0.000000  -0.000000   0.000000
     4  C    0.000000   0.000000   0.000001   0.000000
     5  C   -0.000001  -0.000004   0.000021  -0.000000
     6  C   -0.000000   0.000000   0.000003   0.000000
     7  C    0.000000   0.000000   0.000000   0.000000
     8  C   -0.000000  -0.000000   0.000011  -0.000000
     9  C   -0.000016   0.000001  -0.000095   0.000000
    10  C    0.000012  -0.000017   0.002731  -0.000010
    11  C    0.000004   0.000119  -0.000265   0.000001
    12  C   -0.002955   0.005289  -0.006783   0.000228
    13  C   -0.036564  -0.030057  -0.031301  -0.016753
    14  C    0.004913  -0.005816  -0.002518  -0.000195
    15  C    0.000097  -0.000768   0.001039  -0.000009
    16  C    0.001491  -0.000146  -0.000380  -0.000023
    17  C    0.003048   0.000298  -0.000068  -0.003207
    18  C   -0.004696  -0.003878   0.004800  -0.029518
    19  C    0.376969   0.374846   0.377276   0.013250
    20  O   -0.000893   0.002024   0.000307   0.244025
    21  H   -0.000000   0.000000  -0.000000   0.000000
    22  H    0.000001   0.000001   0.000011   0.000000
    23  H    0.000000   0.000000  -0.000000   0.000000
    24  H    0.000000  -0.000000  -0.000001   0.000000
    25  H    0.000000   0.000000   0.000000   0.000000
    26  H    0.000000  -0.000000   0.000000   0.000000
    27  H   -0.000000   0.000000  -0.000000   0.000000
    28  H    0.000000   0.000000  -0.000003   0.000000
    29  H    0.000000   0.000000   0.000000  -0.000000
    30  H    0.000000  -0.000000   0.000002  -0.000000
    31  H    0.000048  -0.000032   0.004600  -0.000002
    32  H    0.000002   0.000002  -0.000014  -0.000000
    33  H   -0.000097  -0.000118   0.000044   0.000005
    34  H   -0.000142   0.000099  -0.000120   0.000015
    35  H   -0.000015   0.005803  -0.000078   0.000016
    36  H    0.000010   0.000660   0.000728  -0.000003
    37  H   -0.000000  -0.000051   0.000029   0.000000
    38  H    0.000031   0.000001  -0.000026   0.000001
    39  H   -0.000370   0.000048   0.000429  -0.000074
    40  H   -0.000071  -0.000004   0.000001  -0.000232
    41  H    0.001348  -0.000032  -0.000012   0.004001
    42  H    0.000139  -0.000154  -0.000106   0.007306
    43  H    0.546590  -0.028922  -0.025438   0.003091
    44  H   -0.028922   0.530624  -0.025923   0.001041
    45  H   -0.025438  -0.025923   0.525401  -0.000111
    46  H    0.003091   0.001041  -0.000111   0.370288
 Mulliken charges:
               1
     1  C    0.455224
     2  O   -0.518969
     3  C   -0.268460
     4  C    0.174961
     5  C   -0.180693
     6  C   -0.335401
     7  C   -0.400887
     8  C   -0.392146
     9  C   -0.306103
    10  C   -0.131554
    11  C   -0.118978
    12  C   -0.123888
    13  C    0.040364
    14  C   -0.307154
    15  C   -0.323086
    16  C   -0.324313
    17  C   -0.347033
    18  C    0.126068
    19  C   -0.559337
    20  O   -0.653043
    21  H    0.170740
    22  H    0.158971
    23  H    0.168727
    24  H    0.168990
    25  H    0.178964
    26  H    0.192946
    27  H    0.185720
    28  H    0.177345
    29  H    0.159440
    30  H    0.168432
    31  H    0.135067
    32  H    0.143275
    33  H    0.136391
    34  H    0.149457
    35  H    0.162686
    36  H    0.150073
    37  H    0.167970
    38  H    0.162692
    39  H    0.154837
    40  H    0.171715
    41  H    0.156506
    42  H    0.153349
    43  H    0.162388
    44  H    0.175065
    45  H    0.175808
    46  H    0.406869
 Sum of Mulliken charges =  -0.00000
 Mulliken charges with hydrogens summed into heavy atoms:
               1
     1  C    0.455224
     2  O   -0.518969
     3  C   -0.097720
     4  C    0.174961
     5  C   -0.021722
     6  C    0.002317
     7  C   -0.028976
     8  C   -0.029081
     9  C    0.021769
    10  C    0.003514
    11  C    0.024297
    12  C    0.012503
    13  C    0.040364
    14  C    0.004989
    15  C   -0.005042
    16  C   -0.006783
    17  C   -0.018812
    18  C    0.279418
    19  C   -0.046076
    20  O   -0.246174
 Electronic spatial extent (au):  <R**2>=           6845.9194
 Charge=             -0.0000 electrons
 Dipole moment (field-independent basis, Debye):
    X=             -3.9935    Y=              0.9503    Z=              2.0392  Tot=              4.5836
 Quadrupole moment (field-independent basis, Debye-Ang):
   XX=           -170.5579   YY=           -116.6066   ZZ=           -117.5312
   XY=             -3.6913   XZ=             -2.2916   YZ=             -2.5952
 Traceless Quadrupole moment (field-independent basis, Debye-Ang):
   XX=            -35.6593   YY=             18.2919   ZZ=             17.3674
   XY=             -3.6913   XZ=             -2.2916   YZ=             -2.5952
 Octapole moment (field-independent basis, Debye-Ang**2):
  XXX=           -225.7667  YYY=             -1.0028  ZZZ=             -2.4505  XYY=             16.2324
  XXY=             20.6527  XXZ=             60.8404  XZZ=             -7.6029  YZZ=             -2.2353
  YYZ=              1.2470  XYZ=             11.4730
 Hexadecapole moment (field-independent basis, Debye-Ang**3):
 XXXX=          -9352.6178 YYYY=          -1401.3877 ZZZZ=           -404.9715 XXXY=            -78.9603
 XXXZ=            -73.8121 YYYX=             23.8531 YYYZ=            -10.9077 ZZZX=             12.2874
 ZZZY=              3.4467 XXYY=          -1392.4703 XXZZ=          -1208.4246 YYZZ=           -304.0580
 XXYZ=            -70.5809 YYXZ=            -20.7833 ZZXY=              2.1148
 N-N= 1.671159284876D+03 E-N=-5.319355316286D+03  KE= 8.443388218950D+02

 **********************************************************************

            Electrostatic Properties Using The SCF Density.

 **********************************************************************

       Atomic Center    1 is at   4.667475 -0.154767 -0.105790
       Atomic Center    2 is at   5.899419 -0.120690 -0.334693
       Atomic Center    3 is at   3.821104  0.960984 -0.238596
       Atomic Center    4 is at   2.485997  0.922375  0.054815
       Atomic Center    5 is at   1.785877 -0.379325  0.332077
       Atomic Center    6 is at   2.630173 -1.565353 -0.134748
       Atomic Center    7 is at   4.047864 -1.432276  0.394717
       Atomic Center    8 is at   1.732172  2.152885  0.244687
       Atomic Center    9 is at   0.259094  2.113033 -0.144176
       Atomic Center   10 is at  -0.414946  0.808885  0.273964
       Atomic Center   11 is at   0.380796 -0.373851 -0.300020
       Atomic Center   12 is at  -1.837024  0.749404 -0.264878
       Atomic Center   13 is at  -2.557578 -0.576532  0.023199
       Atomic Center   14 is at  -1.772538 -1.709614 -0.627461
       Atomic Center   15 is at  -0.333937 -1.718142 -0.107468
       Atomic Center   16 is at  -2.843267  1.800067  0.202028
       Atomic Center   17 is at  -4.195375  1.205811 -0.230125
       Atomic Center   18 is at  -3.921964 -0.268249 -0.629762
       Atomic Center   19 is at  -2.749750 -0.862498  1.517729
       Atomic Center   20 is at  -4.969414 -1.152857 -0.319790
       Atomic Center   21 is at   4.286428  1.901290 -0.499047
       Atomic Center   22 is at   1.667217 -0.446617  1.422600
       Atomic Center   23 is at   2.652489 -1.592642 -1.227487
       Atomic Center   24 is at   2.199670 -2.501453  0.220440
       Atomic Center   25 is at   4.028512 -1.384330  1.488554
       Atomic Center   26 is at   4.662803 -2.284853  0.097673
       Atomic Center   27 is at   2.229296  3.006063 -0.216910
       Atomic Center   28 is at   1.818268  2.336201  1.363508
       Atomic Center   29 is at   0.174621  2.226223 -1.230327
       Atomic Center   30 is at  -0.257747  2.956025  0.310163
       Atomic Center   31 is at  -0.416138  0.754675  1.365636
       Atomic Center   32 is at   0.495673 -0.205118 -1.378220
       Atomic Center   33 is at  -1.764138  0.832085 -1.357869
       Atomic Center   34 is at  -1.769824 -1.577932 -1.712192
       Atomic Center   35 is at  -2.241383 -2.670439 -0.409418
       Atomic Center   36 is at  -0.334932 -1.984189  0.950540
       Atomic Center   37 is at   0.209854 -2.496370 -0.645187
       Atomic Center   38 is at  -2.667913  2.773637 -0.250869
       Atomic Center   39 is at  -2.787388  1.921175  1.283105
       Atomic Center   40 is at  -4.601872  1.756770 -1.076560
       Atomic Center   41 is at  -4.932962  1.240793  0.573186
       Atomic Center   42 is at  -3.817642 -0.341807 -1.717404
       Atomic Center   43 is at  -3.520265 -0.228514  1.950630
       Atomic Center   44 is at  -3.021410 -1.907285  1.663652
       Atomic Center   45 is at  -1.832327 -0.681659  2.067856
       Atomic Center   46 is at  -5.003956 -1.250368  0.638656
 -----------------------------------------------------------------

              Electrostatic Properties (Atomic Units)

 -----------------------------------------------------------------
    Center     Electric         -------- Electric Field --------
               Potential          X             Y             Z
 -----------------------------------------------------------------
    1 Atom    -14.677218      0.005584     -0.005017     -0.000803
    2 Atom    -22.356529      0.101582      0.002160     -0.019077
    3 Atom    -14.749474     -0.010338      0.001975      0.001878
    4 Atom    -14.708466      0.014053     -0.002327     -0.003298
    5 Atom    -14.720097     -0.002087     -0.004558     -0.003079
    6 Atom    -14.734808      0.000075     -0.000529      0.000848
    7 Atom    -14.744552      0.001498     -0.001084     -0.003121
    8 Atom    -14.722835     -0.002301      0.004130      0.001079
    9 Atom    -14.731357     -0.002643     -0.002167      0.000002
   10 Atom    -14.730003     -0.001135     -0.000323     -0.003990
   11 Atom    -14.726546     -0.001989      0.000157      0.002285
   12 Atom    -14.737104     -0.000305     -0.001590      0.004112
   13 Atom    -14.732584     -0.000747      0.000935     -0.005794
   14 Atom    -14.743067     -0.002189      0.002229      0.001756
   15 Atom    -14.737597     -0.000732      0.000251     -0.001739
   16 Atom    -14.740427      0.001256     -0.000593     -0.000944
   17 Atom    -14.745690     -0.000833     -0.002424     -0.001030
   18 Atom    -14.693975      0.019184      0.012933     -0.004276
   19 Atom    -14.738278      0.002036      0.000332     -0.003326
   20 Atom    -22.314887     -0.067940     -0.050323     -0.079803
   21 Atom     -1.107770      0.017824      0.032252     -0.008315
   22 Atom     -1.101812     -0.005588     -0.004893      0.033849
   23 Atom     -1.117578     -0.000645     -0.003101     -0.033218
   24 Atom     -1.118553     -0.013658     -0.028476      0.008302
   25 Atom     -1.107907      0.001959     -0.002276      0.033389
   26 Atom     -1.120818      0.022044     -0.020058     -0.007230
   27 Atom     -1.105532      0.016301      0.025824     -0.013978
   28 Atom     -1.093225     -0.002441      0.007574      0.011518
   29 Atom     -1.115037     -0.004047      0.004824     -0.031612
   30 Atom     -1.115431     -0.016802      0.027886      0.012239
   31 Atom     -1.114190     -0.001764     -0.002139      0.035219
   32 Atom     -1.116441      0.003594      0.004305     -0.033463
   33 Atom     -1.120713      0.002360      0.002256     -0.033043
   34 Atom     -1.123702     -0.001756      0.001613     -0.033541
   35 Atom     -1.126072     -0.016212     -0.029455      0.002500
   36 Atom     -1.118634      0.002107     -0.011734      0.032897
   37 Atom     -1.121668      0.016892     -0.024169     -0.012904
   38 Atom     -1.123317      0.005594      0.031134     -0.012163
   39 Atom     -1.121753      0.001648      0.005962      0.034066
   40 Atom     -1.125666     -0.016483      0.016137     -0.023748
   41 Atom     -1.121073     -0.024462      0.002627      0.021265
   42 Atom     -1.127324      0.003856     -0.002246     -0.031314
   43 Atom     -1.104917     -0.022108      0.020443      0.018950
   44 Atom     -1.107136     -0.007943     -0.031855      0.006832
   45 Atom     -1.107500      0.027408      0.004266      0.020856
   46 Atom     -0.998932     -0.005340     -0.007314      0.045543
 -----------------------------------------------------------------
 -----------------------------------------------------
    Center         ---- Electric Field Gradient ----
                     XX            YY            ZZ
 -----------------------------------------------------
    1 Atom     -493.326457   -493.271713   -493.922447
    2 Atom    -1217.243778  -1214.758469  -1217.464590
    3 Atom     -493.142587   -493.182482   -493.409019
    4 Atom     -493.235129   -493.294664   -493.874962
    5 Atom     -492.778909   -492.822143   -492.808773
    6 Atom     -492.653136   -492.630343   -492.620417
    7 Atom     -492.728744   -492.741606   -492.753514
    8 Atom     -492.598116   -492.619707   -492.653768
    9 Atom     -492.688680   -492.628041   -492.633648
   10 Atom     -492.784608   -492.807228   -492.803344
   11 Atom     -492.844817   -492.807287   -492.819024
   12 Atom     -492.937050   -492.947485   -492.942429
   13 Atom     -492.928067   -492.927156   -492.997289
   14 Atom     -492.728212   -492.694890   -492.711770
   15 Atom     -492.651450   -492.656949   -492.633599
   16 Atom     -492.679243   -492.630941   -492.625771
   17 Atom     -492.742935   -492.731161   -492.713330
   18 Atom     -492.910692   -492.863621   -492.667578
   19 Atom     -492.601094   -492.602371   -492.612946
   20 Atom    -1214.048199  -1213.595117  -1215.246976
   21 Atom       -1.699237     -1.968607     -1.626336
   22 Atom       -1.626995     -1.624886     -2.034602
   23 Atom       -1.625222     -1.621352     -2.057089
   24 Atom       -1.705111     -1.960135     -1.677759
   25 Atom       -1.605746     -1.606413     -2.039588
   26 Atom       -1.745041     -1.875137     -1.639392
   27 Atom       -1.718100     -1.892667     -1.697477
   28 Atom       -1.569999     -1.579734     -1.896116
   29 Atom       -1.631457     -1.630419     -2.049647
   30 Atom       -1.736330     -1.903739     -1.709816
   31 Atom       -1.643739     -1.644394     -2.075741
   32 Atom       -1.643115     -1.649107     -2.043320
   33 Atom       -1.653646     -1.646821     -2.058031
   34 Atom       -1.631693     -1.637162     -2.062592
   35 Atom       -1.710419     -1.973171     -1.648047
   36 Atom       -1.634104     -1.658452     -2.050030
   37 Atom       -1.746477     -1.858379     -1.737359
   38 Atom       -1.645491     -1.995443     -1.711810
   39 Atom       -1.634962     -1.638025     -2.075967
   40 Atom       -1.692354     -1.745555     -1.902796
   41 Atom       -1.823309     -1.624753     -1.866754
   42 Atom       -1.678254     -1.671054     -2.084157
   43 Atom       -1.848532     -1.769698     -1.691048
   44 Atom       -1.638464     -2.022702     -1.617608
   45 Atom       -1.944447     -1.622414     -1.732286
   46 Atom       -1.451731     -1.447377     -2.121616
 -----------------------------------------------------
 -----------------------------------------------------
    Center         ---- Electric Field Gradient ----
                     XY            XZ            YZ
 -----------------------------------------------------
    1 Atom       -0.051070     -0.099508     -0.197933
    2 Atom       -0.173061     -0.004788     -0.793150
    3 Atom       -0.023207     -0.059449     -0.041732
    4 Atom       -0.016067     -0.134299     -0.038585
    5 Atom       -0.024501     -0.010390      0.001184
    6 Atom        0.023819     -0.003252     -0.025006
    7 Atom       -0.012367     -0.035844      0.001858
    8 Atom        0.012288     -0.024531     -0.014940
    9 Atom       -0.006662     -0.014915      0.022433
   10 Atom       -0.006181      0.006817     -0.002745
   11 Atom       -0.007126     -0.016789     -0.008557
   12 Atom        0.011973     -0.009959      0.003977
   13 Atom       -0.001520      0.015433      0.018718
   14 Atom        0.005359     -0.012301     -0.018587
   15 Atom       -0.022667     -0.006451      0.015302
   16 Atom       -0.002708     -0.005057     -0.015696
   17 Atom       -0.015676     -0.006344     -0.028459
   18 Atom       -0.184260      0.091299      0.088227
   19 Atom        0.003524      0.012362      0.009369
   20 Atom       -1.275831      0.496662      0.627305
   21 Atom       -0.168021      0.049850      0.098946
   22 Atom       -0.001937      0.047566      0.027115
   23 Atom        0.001929      0.006967     -0.011957
   24 Atom       -0.150331      0.057124      0.123953
   25 Atom       -0.001025      0.009081     -0.017796
   26 Atom        0.191564      0.065563     -0.093395
   27 Atom       -0.155448      0.086829      0.149082
   28 Atom       -0.000283     -0.022061     -0.056056
   29 Atom        0.000372     -0.034045      0.043561
   30 Atom        0.163794      0.088346     -0.146402
   31 Atom       -0.001295      0.001313      0.023908
   32 Atom       -0.007266      0.042609      0.063930
   33 Atom       -0.003064      0.027428      0.030468
   34 Atom        0.002469      0.001238      0.053591
   35 Atom       -0.166592      0.039429      0.077586
   36 Atom       -0.001992     -0.001148      0.104619
   37 Atom        0.156501      0.107920     -0.154777
   38 Atom       -0.066215      0.029504      0.169048
   39 Atom       -0.002965     -0.021851     -0.048726
   40 Atom        0.084147     -0.131278      0.176754
   41 Atom        0.008609      0.222468     -0.008600
   42 Atom       -0.003878      0.046073     -0.024058
   43 Atom        0.188853      0.127045     -0.104896
   44 Atom       -0.109198      0.016534      0.057881
   45 Atom       -0.066008     -0.197807     -0.038386
   46 Atom       -0.031045      0.025859      0.069414
 -----------------------------------------------------
 -----------------------------------------------------
    Center         ---- Electric Field Gradient ----
                   ----       Eigenvalues       ----
 -----------------------------------------------------
    1 Atom     -493.995883   -493.313501   -493.211233
    2 Atom    -1217.685687  -1217.248154  -1214.532997
    3 Atom     -493.430120   -493.178008   -493.125960
    4 Atom     -493.904763   -493.292688   -493.207305
    5 Atom     -492.833637   -492.810638   -492.765550
    6 Atom     -492.670873   -492.638864   -492.594160
    7 Atom     -492.779926   -492.743763   -492.700175
    8 Atom     -492.665254   -492.625041   -492.581296
    9 Atom     -492.692478   -492.652343   -492.605548
   10 Atom     -492.809064   -492.805433   -492.780683
   11 Atom     -492.855269   -492.813167   -492.802692
   12 Atom     -492.960038   -492.940546   -492.926380
   13 Atom     -493.005032   -492.926303   -492.921176
   14 Atom     -492.735356   -492.719270   -492.680246
   15 Atom     -492.678321   -492.646615   -492.617062
   16 Atom     -492.680103   -492.643470   -492.612381
   17 Atom     -492.764604   -492.730774   -492.692048
   18 Atom     -493.109332   -492.701846   -492.630713
   19 Atom     -492.622740   -492.605301   -492.588370
   20 Atom    -1215.972593  -1214.402315  -1212.515385
   21 Atom       -2.076519     -1.618797     -1.598864
   22 Atom       -2.041848     -1.623739     -1.620896
   23 Atom       -2.057531     -1.625747     -1.620385
   24 Atom       -2.076469     -1.635509     -1.631027
   25 Atom       -2.040505     -1.607018     -1.604223
   26 Atom       -2.044533     -1.608612     -1.606425
   27 Atom       -2.064711     -1.627117     -1.616415
   28 Atom       -1.907162     -1.572877     -1.565810
   29 Atom       -2.056828     -1.630753     -1.623942
   30 Atom       -2.082441     -1.636282     -1.631162
   31 Atom       -2.077066     -1.644668     -1.642139
   32 Atom       -2.057932     -1.639360     -1.638250
   33 Atom       -2.062138     -1.651930     -1.644430
   34 Atom       -2.069241     -1.633771     -1.628435
   35 Atom       -2.071824     -1.631521     -1.628293
   36 Atom       -2.076229     -1.635575     -1.630781
   37 Atom       -2.074294     -1.636361     -1.631559
   38 Atom       -2.086203     -1.634538     -1.632003
   39 Atom       -2.082408     -1.634096     -1.632450
   40 Atom       -2.080300     -1.631231     -1.629174
   41 Atom       -2.068890     -1.624539     -1.621387
   42 Atom       -2.090635     -1.678150     -1.664680
   43 Atom       -2.073083     -1.620328     -1.615866
   44 Atom       -2.059759     -1.610693     -1.608322
   45 Atom       -2.075684     -1.614106     -1.609357
   46 Atom       -2.129920     -1.474098     -1.416707
 -----------------------------------------------------
 -----------------------------------------------------
    Center         ---- Electric Field Gradient ----
                       ( tensor representation )
                   3XX-RR        3YY-RR        3ZZ-RR
 -----------------------------------------------------
    1 Atom        0.180415      0.235159     -0.415575
    2 Atom       -0.754832      1.730477     -0.975645
    3 Atom        0.102109      0.062214     -0.164323
    4 Atom        0.233123      0.173588     -0.406710
    5 Atom        0.024366     -0.018868     -0.005498
    6 Atom       -0.018504      0.004289      0.014215
    7 Atom        0.012544     -0.000318     -0.012226
    8 Atom        0.025748      0.004156     -0.029905
    9 Atom       -0.038557      0.022082      0.016475
   10 Atom        0.013786     -0.008835     -0.004951
   11 Atom       -0.021107      0.016422      0.004686
   12 Atom        0.005271     -0.005164     -0.000108
   13 Atom        0.022771      0.023681     -0.046452
   14 Atom       -0.016588      0.016734     -0.000146
   15 Atom       -0.004117     -0.009617      0.013733
   16 Atom       -0.033925      0.014377      0.019548
   17 Atom       -0.013793     -0.002019      0.015812
   18 Atom       -0.096728     -0.049657      0.146385
   19 Atom        0.004376      0.003099     -0.007476
   20 Atom        0.248565      0.701647     -0.950212
   21 Atom        0.065490     -0.203880      0.138390
   22 Atom        0.135166      0.137275     -0.272441
   23 Atom        0.142665      0.146536     -0.289201
   24 Atom        0.075890     -0.179133      0.103243
   25 Atom        0.144837      0.144169     -0.289006
   26 Atom        0.008149     -0.121947      0.113798
   27 Atom        0.051315     -0.123253      0.071938
   28 Atom        0.111950      0.102216     -0.214166
   29 Atom        0.139051      0.140088     -0.279139
   30 Atom        0.046965     -0.120444      0.073479
   31 Atom        0.144219      0.143564     -0.287783
   32 Atom        0.135399      0.129407     -0.264806
   33 Atom        0.132520      0.139345     -0.271865
   34 Atom        0.145456      0.139987     -0.285443
   35 Atom        0.066793     -0.195959      0.129165
   36 Atom        0.146758      0.122410     -0.269168
   37 Atom        0.034261     -0.077641      0.043379
   38 Atom        0.138757     -0.211195      0.072438
   39 Atom        0.148022      0.144960     -0.292982
   40 Atom        0.087882      0.034680     -0.122561
   41 Atom       -0.051703      0.146852     -0.095149
   42 Atom        0.132901      0.140101     -0.273002
   43 Atom       -0.078773      0.000061      0.078712
   44 Atom        0.121127     -0.263111      0.141984
   45 Atom       -0.178064      0.143968      0.034096
   46 Atom        0.221844      0.226198     -0.448041
 -----------------------------------------------------
 -----------------------------------------------------
    Center         ---- Electric Field Gradient ----
                       ( tensor representation )
                   ----       Eigenvalues       ----
 -----------------------------------------------------
    1 Atom       -0.489011      0.193371      0.295639
    2 Atom       -1.196741     -0.759208      1.955949
    3 Atom       -0.185424      0.066688      0.118736
    4 Atom       -0.436512      0.175564      0.260947
    5 Atom       -0.030362     -0.007363      0.037725
    6 Atom       -0.036241     -0.004232      0.040473
    7 Atom       -0.038638     -0.002475      0.041113
    8 Atom       -0.041390     -0.001177      0.042567
    9 Atom       -0.042355     -0.002220      0.044575
   10 Atom       -0.010671     -0.007039      0.017710
   11 Atom       -0.031560      0.010542      0.021017
   12 Atom       -0.017717      0.001775      0.015942
   13 Atom       -0.054195      0.024534      0.029661
   14 Atom       -0.023732     -0.007646      0.031378
   15 Atom       -0.030989      0.000718      0.030271
   16 Atom       -0.034785      0.001848      0.032937
   17 Atom       -0.035462     -0.001632      0.037094
   18 Atom       -0.295368      0.112118      0.183251
   19 Atom       -0.017269      0.000169      0.017100
   20 Atom       -1.675829     -0.105551      1.781380
   21 Atom       -0.311792      0.145929      0.165863
   22 Atom       -0.279687      0.138422      0.141265
   23 Atom       -0.289643      0.142141      0.147503
   24 Atom       -0.295467      0.145492      0.149975
   25 Atom       -0.289923      0.143564      0.146359
   26 Atom       -0.291343      0.144578      0.146765
   27 Atom       -0.295296      0.142297      0.152999
   28 Atom       -0.225213      0.109073      0.116140
   29 Atom       -0.286320      0.139755      0.146566
   30 Atom       -0.299146      0.147013      0.152133
   31 Atom       -0.289108      0.143290      0.145819
   32 Atom       -0.279418      0.139154      0.140264
   33 Atom       -0.275972      0.134236      0.141736
   34 Atom       -0.292092      0.143378      0.148714
   35 Atom       -0.294611      0.145692      0.148920
   36 Atom       -0.295367      0.145287      0.150080
   37 Atom       -0.293556      0.144377      0.149179
   38 Atom       -0.301955      0.149710      0.152245
   39 Atom       -0.299424      0.148889      0.150535
   40 Atom       -0.300065      0.149004      0.151061
   41 Atom       -0.297285      0.147067      0.150218
   42 Atom       -0.279480      0.133005      0.146475
   43 Atom       -0.303324      0.149431      0.153893
   44 Atom       -0.300168      0.148898      0.151270
   45 Atom       -0.309302      0.152276      0.157025
   46 Atom       -0.456345      0.199477      0.256868
 -----------------------------------------------------
 Unable to Open any file for archive entry.
 1\1\GINC-MIKE091\SP\RwB97XD\6-31G(d)\C18H26O2\ARKANIL\19-May-2026\0\\#
  wb97xd/6-31g(d) prop=efg\\19NT_md_min_distance_cutoff6\\0,1\C,0,43.52
 47326592,42.9450543194,31.0075795647\O,0,43.3709791367,41.8645757152,3
 1.6241588629\C,0,43.3023755047,44.2081717164,31.5854836864\C,0,43.4324
 01343,45.3787011474,30.8904672977\C,0,44.0370889076,45.4051303479,29.5
 138338395\C,0,44.7901552254,44.107079501,29.2216368408\C,0,43.91173132
 63,42.9127494993,29.5530552216\C,0,42.8619453426,46.6147190297,31.4055
 36502\C,0,43.592470314,47.9021091936,31.0426042681\C,0,44.0751496989,4
 7.9053071044,29.5945077772\C,0,44.9279027798,46.6510945173,29.34694220
 62\C,0,44.9258118804,49.1372519479,29.3208647662\C,0,45.5390472276,49.
 1707885452,27.9126350652\C,0,46.4332106444,47.9483018317,27.7408189309
 \C,0,45.6276243087,46.670314618,27.9812699565\C,0,44.2829440176,50.517
 0233172,29.452660066\C,0,45.2934200503,51.4420967255,28.7517548848\C,0
 ,46.2854732689,50.5194635725,27.9955174039\C,0,44.498214082,49.2214644
 847,26.7872790444\O,0,46.7472146993,51.0461779918,26.7768570038\H,0,42
 .9259401047,44.2245352729,32.5986789312\H,0,43.2014864851,45.487854254
 5,28.8047687704\H,0,45.70018513,44.0665038018,29.8262193723\H,0,45.077
 056469,44.0624273558,28.171176005\H,0,42.9897194062,42.9601839327,28.9
 641604996\H,0,44.4191340383,41.9728130479,29.3242865447\H,0,42.6866035
 062,46.5613181047,32.4800230326\H,0,41.8239767138,46.6308145565,30.941
 7043465\H,0,44.4553170765,48.0209439863,31.7067173341\H,0,42.934012458
 6,48.7516829416,31.2124345203\H,0,43.2010155779,47.8896936909,28.93850
 91804\H,0,45.7037939953,46.6183948724,30.1222532798\H,0,45.7678910504,
 49.1022373892,30.0254603472\H,0,47.2626139956,47.9981833373,28.4504589
 677\H,0,46.8558169889,47.9253273901,26.7351261364\H,0,44.8867699103,46
 .5570175951,27.1885130563\H,0,46.3155415498,45.8259059118,27.916218316
 9\H,0,44.1255350297,50.8048049269,30.4900161536\H,0,43.3151253386,50.5
 311189017,28.9530141245\H,0,45.8253905976,52.0497861631,29.4818025206\
 H,0,44.8077125217,52.1194397789,28.0475802937\H,0,47.1926575696,50.384
 8341384,28.5939739785\H,0,44.0286694592,50.2002726398,26.7202460546\H,
 0,44.9700563789,48.9842306828,25.8345168186\H,0,43.7112335979,48.49363
 16539,26.9543983505\H,0,46.0134851813,51.0393085586,26.1516269584\\Ver
 sion=ES64L-G16RevC.01\State=1-A\HF=-851.7854775\RMSD=4.218e-09\Dipole=
 -0.4332579,1.5734204,-0.7672257\Quadrupole=7.2708652,-15.807195,8.5363
 297,-10.8081739,5.6123863,14.3288551\PG=C01 [X(C18H26O2)]\\@
 The archive entry for this job was punched.


 ONE OF THE BENEFITS OF A COLLEGE EDUCATION
 IS TO SHOW THE BOY ITS LITTLE AVAIL 
                                    EMERSON IN 'CULTURE'
 Job cpu time:       0 days  0 hours 16 minutes 38.4 seconds.
 Elapsed time:       0 days  0 hours  0 minutes 15.9 seconds.
 File lengths (MBytes):  RWF=     71 Int=      0 D2E=      0 Chk=      8 Scr=      1
 Normal termination of Gaussian 16 at Tue May 19 08:15:15 2026.
