 Entering Gaussian System, Link 0=g16
 Input=19nt_md_min_distance_cutoff7_nowat_optimized_ligand.gjf
 Output=19nt_md_min_distance_cutoff7_nowat_optimized_ligand.log
 Initial command:
 /usr/local/packages/license/gaussian/g16-c01/g16/l1.exe "/work/arkanil/gauss_scratch/Gau-1522074.inp" -scrdir="/work/arkanil/gauss_scratch/"
 Entering Link 1 = /usr/local/packages/license/gaussian/g16-c01/g16/l1.exe PID=   1522081.
  
 Copyright (c) 1988-2019, Gaussian, Inc.  All Rights Reserved.
  
 This is part of the Gaussian(R) 16 program.  It is based on
 the Gaussian(R) 09 system (copyright 2009, Gaussian, Inc.),
 the Gaussian(R) 03 system (copyright 2003, Gaussian, Inc.),
 the Gaussian(R) 98 system (copyright 1998, Gaussian, Inc.),
 the Gaussian(R) 94 system (copyright 1995, Gaussian, Inc.),
 the Gaussian 92(TM) system (copyright 1992, Gaussian, Inc.),
 the Gaussian 90(TM) system (copyright 1990, Gaussian, Inc.),
 the Gaussian 88(TM) system (copyright 1988, Gaussian, Inc.),
 the Gaussian 86(TM) system (copyright 1986, Carnegie Mellon
 University), and the Gaussian 82(TM) system (copyright 1983,
 Carnegie Mellon University). Gaussian is a federally registered
 trademark of Gaussian, Inc.
  
 This software contains proprietary and confidential information,
 including trade secrets, belonging to Gaussian, Inc.
  
 This software is provided under written license and may be
 used, copied, transmitted, or stored only in accord with that
 written license.
  
 The following legend is applicable only to US Government
 contracts under FAR:
  
                    RESTRICTED RIGHTS LEGEND
  
 Use, reproduction and disclosure by the US Government is
 subject to restrictions as set forth in subparagraphs (a)
 and (c) of the Commercial Computer Software - Restricted
 Rights clause in FAR 52.227-19.
  
 Gaussian, Inc.
 340 Quinnipiac St., Bldg. 40, Wallingford CT 06492
  
  
 ---------------------------------------------------------------
 Warning -- This program may not be used in any manner that
 competes with the business of Gaussian, Inc. or will provide
 assistance to any competitor of Gaussian, Inc.  The licensee
 of this program is prohibited from giving any competitor of
 Gaussian, Inc. access to this program.  By using this program,
 the user acknowledges that Gaussian, Inc. is engaged in the
 business of creating and licensing software in the field of
 computational chemistry and represents and warrants to the
 licensee that it is not a competitor of Gaussian, Inc. and that
 it will not use this program in any manner prohibited above.
 ---------------------------------------------------------------
  

 Cite this work as:
 Gaussian 16, Revision C.01,
 M. J. Frisch, G. W. Trucks, H. B. Schlegel, G. E. Scuseria, 
 M. A. Robb, J. R. Cheeseman, G. Scalmani, V. Barone, 
 G. A. Petersson, H. Nakatsuji, X. Li, M. Caricato, A. V. Marenich, 
 J. Bloino, B. G. Janesko, R. Gomperts, B. Mennucci, H. P. Hratchian, 
 J. V. Ortiz, A. F. Izmaylov, J. L. Sonnenberg, D. Williams-Young, 
 F. Ding, F. Lipparini, F. Egidi, J. Goings, B. Peng, A. Petrone, 
 T. Henderson, D. Ranasinghe, V. G. Zakrzewski, J. Gao, N. Rega, 
 G. Zheng, W. Liang, M. Hada, M. Ehara, K. Toyota, R. Fukuda, 
 J. Hasegawa, M. Ishida, T. Nakajima, Y. Honda, O. Kitao, H. Nakai, 
 T. Vreven, K. Throssell, J. A. Montgomery, Jr., J. E. Peralta, 
 F. Ogliaro, M. J. Bearpark, J. J. Heyd, E. N. Brothers, K. N. Kudin, 
 V. N. Staroverov, T. A. Keith, R. Kobayashi, J. Normand, 
 K. Raghavachari, A. P. Rendell, J. C. Burant, S. S. Iyengar, 
 J. Tomasi, M. Cossi, J. M. Millam, M. Klene, C. Adamo, R. Cammi, 
 J. W. Ochterski, R. L. Martin, K. Morokuma, O. Farkas, 
 J. B. Foresman, and D. J. Fox, Gaussian, Inc., Wallingford CT, 2019.
 
 ******************************************
 Gaussian 16:  ES64L-G16RevC.01  3-Jul-2019
                24-May-2026 
 ******************************************
 %chk=19NT_md_min_distance_cutoff7_nowat_current.chk
 %nprocshared=64
 Will use up to   64 processors via shared memory.
 %mem=200GB
 --------------------------
 # wb97xd/6-31g(d) prop=efg
 --------------------------
 1/38=1,172=1/1;
 2/12=2,17=6,18=5,40=1/2;
 3/5=1,6=6,7=1,11=2,25=1,30=1,74=-58/1,2,3;
 4//1;
 5/5=2,38=5/2;
 6/7=2,8=2,9=2,10=2,14=1,28=1/1,2;
 99/5=1,9=1/99;
 ----------------------------------
 19NT_md_min_distance_cutoff7_nowat
 ----------------------------------
 Symbolic Z-matrix:
 Charge =  0 Multiplicity = 1
 C                    0     2.18491  -2.11627  -0.20702 
 O                    0     2.81815  -2.77606  -1.06219 
 C                    0     2.14677  -0.68937  -0.22556 
 C                    0     1.42178   0.00201   0.69269 
 C                    0    -1.81626   2.37283   2.40393 
 C                    0    -2.89371   1.67601   3.25962 
 C                    0    -3.23712   0.32691   2.62885 
 C                    0    -1.97455  -0.54025   2.50566 
 C                    0    -1.71217   3.7636    3.02981 
 C                    0    -3.18636   4.09743   3.34869 
 C                    0    -2.47822   1.47029   4.72865 
 H                    0    -2.27527   2.50417   1.40696 
 H                    0    -3.65961   0.49454   1.62579 
 H                    0    -3.99634  -0.20219   3.21578 
 H                    0    -1.6023   -0.8055    3.50464 
 H                    0    -2.24615  -1.48572   2.02395 
 H                    0    -1.22914   4.49782   2.38495 
 H                    0     2.82311  -0.18334  -0.91188 
 H                    0    -1.10578   3.72019   3.93989 
 H                    0    -3.58351   4.87996   2.69292 
 H                    0    -3.30755   4.45912   4.37758 
 H                    0    -2.41436   2.41085   5.28738 
 H                    0    -3.20708   0.82209   5.23047 
 H                    0    -1.49886   0.9921    4.81626 
 C                    0     1.49699  -2.83889   0.91218 
 H                    0     2.18704  -2.8365    1.76847 
 H                    0     1.32165  -3.87446   0.61285 
 C                    0     0.20039  -2.13292   1.28104 
 H                    0    -0.27134  -2.65172   2.1211 
 H                    0    -0.49849  -2.19387   0.43314 
 C                    0     1.61654   1.46333   0.8682 
 H                    0     2.26589   1.54079   1.76313 
 H                    0     2.18554   1.88271   0.03402 
 C                    0     0.33555   2.25519   1.11582 
 H                    0    -0.2454    2.34074   0.18371 
 H                    0     0.60009   3.27216   1.41618 
 C                    0     0.44809  -0.66707   1.63587 
 H                    0     0.95301  -0.61641   2.61534 
 O                    0    -5.10885   2.64718   4.01181 
 H                    0    -4.79945   2.66856   4.92657 
 C                    0    -0.86253   0.15149   1.70005 
 H                    0    -1.24332   0.24035   0.6654 
 C                    0    -0.54163   1.58336   2.17429 
 H                    0     0.03137   1.52617   3.1121 
 C                    0    -3.97653   2.76983   3.16695 
 H                    0    -4.4005    2.71917   2.16061 
 
                          Input orientation:                          
 ---------------------------------------------------------------------
 Center     Atomic      Atomic             Coordinates (Angstroms)
 Number     Number       Type             X           Y           Z
 ---------------------------------------------------------------------
      1          6           0        2.184908   -2.116269   -0.207020
      2          8           0        2.818151   -2.776063   -1.062190
      3          6           0        2.146766   -0.689369   -0.225558
      4          6           0        1.421781    0.002009    0.692687
      5          6           0       -1.816261    2.372831    2.403932
      6          6           0       -2.893712    1.676005    3.259622
      7          6           0       -3.237116    0.326908    2.628851
      8          6           0       -1.974551   -0.540250    2.505657
      9          6           0       -1.712174    3.763602    3.029805
     10          6           0       -3.186363    4.097432    3.348689
     11          6           0       -2.478223    1.470290    4.728646
     12          1           0       -2.275265    2.504166    1.406955
     13          1           0       -3.659610    0.494541    1.625793
     14          1           0       -3.996338   -0.202185    3.215778
     15          1           0       -1.602298   -0.805497    3.504641
     16          1           0       -2.246145   -1.485723    2.023947
     17          1           0       -1.229144    4.497817    2.384951
     18          1           0        2.823105   -0.183339   -0.911878
     19          1           0       -1.105780    3.720188    3.939885
     20          1           0       -3.583505    4.879961    2.692922
     21          1           0       -3.307546    4.459116    4.377576
     22          1           0       -2.414355    2.410851    5.287380
     23          1           0       -3.207083    0.822087    5.230469
     24          1           0       -1.498857    0.992097    4.816262
     25          6           0        1.496990   -2.838887    0.912182
     26          1           0        2.187037   -2.836503    1.768469
     27          1           0        1.321651   -3.874457    0.612853
     28          6           0        0.200385   -2.132924    1.281038
     29          1           0       -0.271339   -2.651719    2.121104
     30          1           0       -0.498485   -2.193870    0.433144
     31          6           0        1.616540    1.463331    0.868200
     32          1           0        2.265888    1.540790    1.763127
     33          1           0        2.185541    1.882714    0.034020
     34          6           0        0.335553    2.255186    1.115817
     35          1           0       -0.245396    2.340736    0.183706
     36          1           0        0.600090    3.272157    1.416176
     37          6           0        0.448089   -0.667067    1.635866
     38          1           0        0.953005   -0.616407    2.615336
     39          8           0       -5.108848    2.647177    4.011808
     40          1           0       -4.799453    2.668561    4.926569
     41          6           0       -0.862525    0.151490    1.700045
     42          1           0       -1.243320    0.240347    0.665401
     43          6           0       -0.541629    1.583357    2.174285
     44          1           0        0.031371    1.526174    3.112102
     45          6           0       -3.976525    2.769833    3.166950
     46          1           0       -4.400496    2.719172    2.160610
 ---------------------------------------------------------------------
                    Distance matrix (angstroms):
                    1          2          3          4          5
     1  C    0.000000
     2  O    1.252055   0.000000
     3  C    1.427530   2.346274   0.000000
     4  C    2.424652   3.570312   1.358963   0.000000
     5  C    6.555795   7.746153   5.656578   4.362806   0.000000
     6  C    7.224357   8.433525   6.568706   5.292910   1.542295
     7  C    6.588598   7.740702   6.177917   5.055651   2.501043
     8  C    5.209947   6.379529   4.946415   3.887927   2.919151
     9  C    7.761261   8.946255   6.731846   5.425254   1.528658
    10  C    8.950067  10.136813   8.008181   6.712811   2.396663
    11  C    7.679127   8.922829   7.113282   5.801280   2.580130
    12  H    6.621667   7.740826   5.693691   4.520964   1.105394
    13  H    6.658372   7.738442   6.208313   5.189779   2.744341
    14  H    7.320319   8.447669   7.058177   5.980276   3.470236
    15  H    5.462369   6.654280   5.289929   4.207637   3.370328
    16  H    5.000903   6.069293   4.999212   4.176036   3.900978
    17  H    7.881637   9.009590   6.717025   5.486661   2.204684
    18  H    2.154145   2.597082   1.088364   2.138385   6.249185
    19  H    7.879700   9.089514   6.882889   5.545964   2.163170
    20  H    9.520057  10.662869   8.507113   7.269680   3.080969
    21  H    9.717060  10.929915   8.800299   7.470659   3.236014
    22  H    8.475640   9.726265   7.797928   6.452105   2.945069
    23  H    8.202060   9.425905   7.792075   6.533787   3.511197
    24  H    6.961711   8.209250   6.444986   5.149201   2.797590
    25  C    1.499340   2.376459   2.517358   2.850355   6.353342
    26  H    2.102688   2.900791   2.930520   3.130507   6.600558
    27  H    2.123353   2.500350   3.395369   3.878581   7.216860
    28  C    2.480509   3.571700   2.853433   2.529012   5.062567
    29  H    3.426371   4.437766   3.899342   3.456776   5.264302
    30  H    2.759788   3.684433   3.113642   2.928595   5.145415
    31  C    3.780566   4.810690   2.472158   1.484654   3.869081
    32  H    4.154770   5.188702   2.990429   2.055774   4.215076
    33  H    4.006241   4.827637   2.585439   2.134063   4.676657
    34  C    4.927437   6.018345   3.708124   2.536875   2.510654
    35  H    5.091556   6.092554   3.882199   2.916879   2.719936
    36  H    5.846499   6.902395   4.558639   3.448548   2.761015
    37  C    2.917697   4.164681   2.520099   1.511729   3.867581
    38  H    3.425327   4.654791   3.082380   2.073347   4.080327
    39  O    9.679246  10.862518   9.040561   7.788619   3.674461
    40  H    9.900992  11.114722   9.277395   7.983734   3.917983
    41  C    4.250468   5.454162   3.670262   2.501034   2.517821
    42  H    4.250589   5.345919   3.626412   2.675876   2.810381
    43  C    5.176084   6.384938   4.260516   2.924170   1.516804
    44  H    5.377888   6.610605   4.530287   3.179605   2.152226
    45  C    8.556923   9.737053   7.808321   6.551682   2.325198
    46  H    8.506157   9.627716   7.757486   6.590651   2.618669
                    6          7          8          9         10
     6  C    0.000000
     7  C    1.528352   0.000000
     8  C    2.514976   1.536623   0.000000
     9  C    2.409753   3.781148   4.343583   0.000000
    10  C    2.440673   3.838957   4.866959   1.544786   0.000000
    11  C    1.540448   2.508462   3.039348   2.955025   3.050839
    12  H    2.121486   2.675563   3.250545   2.129998   2.671877
    13  H    2.156816   1.101239   2.164342   4.055924   4.021586
    14  H    2.178372   1.095829   2.169374   4.580334   4.377263
    15  H    2.808138   2.173012   1.098589   4.595020   5.154832
    16  H    3.455830   2.152571   1.095321   5.371433   5.814686
    17  H    3.390938   4.635507   5.094342   1.090058   2.218063
    18  H    7.317142   7.037286   5.901223   7.189156   8.520043
    19  H    2.799668   4.216130   4.578548   1.094461   2.195598
    20  H    3.326003   4.566660   5.657074   2.204910   1.095492
    21  H    3.027670   4.487554   5.502237   2.201236   1.097319
    22  H    2.209431   3.476713   4.079266   2.723901   2.683109
    23  H    2.170626   2.648494   3.286289   3.966130   3.777487
    24  H    2.199200   2.872070   2.813053   3.304266   3.826820
    25  C    6.721085   5.948190   4.458082   7.640414   8.716816
    26  H    6.957031   6.337891   4.809890   7.768925   8.913472
    27  H    7.455354   6.519055   5.056144   8.566545   9.558138
    28  C    5.291141   4.436641   2.960853   6.440892   7.386649
    29  H    5.186739   4.233894   2.739911   6.637627   7.453547
    30  H    5.357427   4.321522   3.034558   6.611139   7.436772
    31  C    5.109452   5.286712   4.426233   4.587387   6.013251
    32  H    5.373942   5.701407   4.781569   4.729730   6.227156
    33  H    6.020469   6.209580   5.411664   5.263521   6.689496
    34  C    3.919120   4.332608   3.883645   3.183057   4.558890
    35  H    4.112992   4.357135   4.084301   3.503750   4.663945
    36  H    4.260592   4.986905   4.727599   2.862146   4.330463
    37  C    4.392517   3.943950   2.577170   5.122561   6.232452
    38  H    4.524101   4.295013   2.930600   5.143874   6.316047
    39  O    2.532940   3.286274   4.717202   3.707847   2.497782
    40  H    2.719509   3.633696   4.912978   3.785250   2.670849
    41  C    2.980293   2.555804   1.537568   3.941766   4.867105
    42  H    3.393360   2.799616   2.128514   4.268906   5.084541
    43  C    2.592071   3.008479   2.583172   2.618312   3.833330
    44  H    2.932631   3.514936   2.943061   2.837747   4.125670
    45  C    1.541925   2.608478   3.924520   2.476625   1.555604
    46  H    2.136919   2.701042   4.077757   3.012210   2.187522
                   11         12         13         14         15
    11  C    0.000000
    12  H    3.484784   0.000000
    13  H    3.460557   2.450080   0.000000
    14  H    2.718569   3.682155   1.768294   0.000000
    15  H    2.728487   3.975807   3.074525   2.485730   0.000000
    16  H    4.013386   4.037418   2.465331   2.476107   1.752056
    17  H    4.027285   2.454687   4.744439   5.517033   5.433055
    18  H    7.915433   6.212330   6.994633   7.971368   6.283066
    19  H    2.750961   3.043376   4.720367   4.925918   4.573597
    20  H    4.122096   3.001600   4.514030   5.125624   6.075237
    21  H    3.121555   3.702975   4.838813   4.853034   5.602324
    22  H    1.095864   3.884038   4.316263   3.690821   3.765965
    23  H    1.096919   4.279829   3.647706   2.393958   2.864061
    24  H    1.093391   3.809532   3.885294   3.197698   2.227643
    25  C    6.995479   6.559186   6.181546   6.514246   4.523395
    26  H    7.005410   6.968901   6.730490   6.875206   4.636630
    27  H    7.742423   7.365815   6.702772   6.967195   5.131319
    28  C    5.660750   5.258070   4.682092   5.008339   3.155335
    29  H    5.353557   5.577533   4.650233   4.590659   2.663487
    30  H    5.983040   5.116327   4.317717   4.893346   3.546840
    31  C    5.627626   4.064448   5.417588   6.307889   4.739126
    32  H    5.595164   4.655859   6.018723   6.660603   4.847762
    33  H    6.630257   4.708497   6.215027   7.258513   5.798225
    34  C    4.646066   2.638773   4.395597   5.404978   4.339300
    35  H    5.138061   2.375587   4.140641   5.452474   4.771643
    36  H    4.867771   2.976166   5.089610   6.036288   5.083253
    37  C    4.764125   4.186380   4.268797   4.739744   2.777691
    38  H    4.538029   4.649719   4.846609   5.002810   2.712230
    39  O    2.969698   3.851611   3.525223   3.160729   4.947127
    40  H    2.619759   4.334309   4.113481   3.437002   4.930797
    41  C    3.677246   2.759859   2.819021   3.499045   2.172477
    42  H    4.421279   2.596091   2.612551   3.778805   3.046956
    43  C    3.207482   2.107648   3.347860   4.025901   2.932830
    44  H    2.985699   3.030605   4.110562   4.384109   2.873961
    45  C    2.524404   2.462204   2.766325   2.972485   4.305110
    46  H    3.442332   2.265134   2.404979   3.132260   4.696767
                   16         17         18         19         20
    16  H    0.000000
    17  H    6.080079   0.000000
    18  H    6.001047   7.014487   0.000000
    19  H    5.663282   1.742913   7.362966   0.000000
    20  H    6.538960   2.404973   8.926155   3.006511   0.000000
    21  H    6.481300   2.879550   9.333573   2.363337   1.758216
    22  H    5.085428   3.766198   8.520071   2.289645   3.767576
    23  H    4.065854   5.051753   8.666168   3.805269   4.800748
    24  H    3.807237   4.274821   7.271354   2.892236   4.895898
    25  C    4.132570   7.964175   3.483922   7.678728   9.410796
    26  H    4.641441   8.114345   3.824673   7.651659   9.679751
    27  H    4.519558   8.929830   4.266558   8.639456  10.248272
    28  C    2.637478   6.872329   3.935533   6.560065   8.092700
    29  H    2.295396   7.218232   4.986729   6.678732   8.247643
    30  H    2.467072   7.008715   4.109048   6.902327   8.041333
    31  C    4.995298   4.427929   2.708505   4.683981   6.484091
    32  H    5.439324   4.620165   3.230908   4.566858   6.799263
    33  H    5.911516   4.901603   2.360039   5.428157   7.023898
    34  C    4.635112   3.014693   4.030616   3.492711   4.973502
    35  H    4.693748   3.235157   4.121524   4.092924   4.887412
    36  H    5.577442   2.405590   4.722508   3.078933   4.660213
    37  C    2.842482   5.481812   3.516489   5.193363   6.938345
    38  H    3.367493   5.565082   4.015727   4.979868   7.127132
    39  O    5.406248   4.596046   9.755531   4.145007   3.008564
    40  H    5.674740   4.749011  10.016196   3.965184   3.370163
    41  C    2.167898   4.415208   4.529693   4.220386   5.545086
    42  H    2.414668   4.591634   4.382138   4.780215   5.577932
    43  C    3.513862   3.001855   4.895616   2.828720   4.515484
    44  H    3.929718   3.308823   5.187353   2.606153   4.948831
    45  C    4.733965   3.338496   8.461267   3.121182   2.198137
    46  H    4.726632   3.642991   8.369299   3.875952   2.370620
                   21         22         23         24         25
    21  H    0.000000
    22  H    2.412659   0.000000
    23  H    3.737044   1.776465   0.000000
    24  H    3.934974   1.752984   1.765929   0.000000
    25  C    9.399647   7.874054   7.360614   6.236456   0.000000
    26  H    9.498628   7.816026   7.380193   6.126421   1.099726
    27  H   10.249441   8.678366   7.993080   7.021913   1.092129
    28  C    8.083880   6.597995   5.995076   5.015076   1.521717
    29  H    8.054452   6.344087   5.509453   4.695537   2.150235
    30  H    8.228705   6.959714   6.280671   5.510250   2.151150
    31  C    6.748116   6.055994   6.535130   5.051233   4.304103
    32  H    6.812866   5.923009   6.518620   4.878115   4.527348
    33  H    7.461791   7.002554   7.563624   6.102280   4.851679
    34  C    5.363632   4.998816   5.615550   4.318998   5.228765
    35  H    5.608283   5.545880   6.045469   4.985034   5.513173
    36  H    5.044639   4.981460   5.919987   4.600526   6.197039
    37  C    6.920948   5.567829   5.338449   4.081463   2.518077
    38  H    6.857020   5.257682   5.120012   3.666468   2.852380
    39  O    2.581007   2.990523   2.903928   4.051971   9.129166
    40  H    2.394424   2.425962   2.457125   3.703597   9.278603
    41  C    5.630537   4.514627   4.290751   3.289734   3.889781
    42  H    5.986592   5.238807   5.003462   4.226118   4.129392
    43  C    4.557936   3.726018   4.126068   2.871570   5.030419
    44  H    4.620816   3.390585   3.933294   2.351807   5.103082
    45  C    2.183306   2.658095   2.940045   3.466903   8.154820
    46  H    3.022728   3.717056   3.800947   4.295903   8.199447
                   26         27         28         29         30
    26  H    0.000000
    27  H    1.778114   0.000000
    28  C    2.163192   2.176384   0.000000
    29  H    2.490403   2.511479   1.094250   0.000000
    30  H    3.067262   2.483861   1.100481   1.763641   0.000000
    31  C    4.429958   5.352022   3.887027   4.697605   4.247084
    32  H    4.378006   5.616014   4.242038   4.913532   4.833042
    33  H    5.027855   5.850331   4.649865   5.563566   4.897125
    34  C    5.457036   6.228795   4.393299   5.045457   4.577746
    35  H    5.935656   6.424051   4.627796   5.355258   4.548508
    36  H    6.321253   7.227729   5.421524   6.028982   5.661331
    37  C    2.783519   3.478077   1.528397   2.166074   2.161867
    38  H    2.677470   3.841969   2.155600   2.426062   3.058950
    39  O    9.398577   9.769131   7.648165   7.419876   7.582745
    40  H    9.438769   9.944202   7.832148   7.528601   7.895089
    41  C    4.269966   4.707532   2.554191   2.895647   2.690405
    42  H    4.738261   4.849067   2.845296   3.380512   2.556195
    43  C    5.210131   5.974748   3.893484   4.244026   4.159432
    44  H    5.048286   6.089161   4.095163   4.304474   4.614790
    45  C    8.448447   8.873594   6.711205   6.649468   6.648970
    46  H    8.626407   8.866480   6.744226   6.774804   6.507520
                   31         32         33         34         35
    31  C    0.000000
    32  H    1.108398   0.000000
    33  H    1.093389   1.764420   0.000000
    34  C    1.526197   2.157676   2.175196   0.000000
    35  H    2.169142   3.072626   2.478234   1.101659   0.000000
    36  H    2.145996   2.427527   2.520826   1.092898   1.761072
    37  C    2.548173   2.862730   3.476497   2.970299   3.411242
    38  H    2.796082   2.665224   3.798413   3.297855   4.011693
    39  O    7.517620   7.788927   8.343579   6.179152   6.196889
    40  H    7.686866   7.822933   8.564154   6.407885   6.583438
    41  C    2.925518   3.423609   3.881170   2.490432   2.733666
    42  H    3.116988   3.900089   3.853972   2.599094   2.374767
    43  C    2.525462   2.837783   3.479627   1.530084   2.150298
    44  H    2.748055   2.610175   3.773878   2.146891   3.052149
    45  C    6.186564   6.515289   6.969454   4.802710   4.796373
    46  H    6.281097   6.781390   6.971222   4.872067   4.616949
                   36         37         38         39         40
    36  H    0.000000
    37  C    3.948272   0.000000
    38  H    4.084540   1.103117   0.000000
    39  O    6.302371   6.892667   7.024755   0.000000
    40  H    6.468559   7.035044   7.015952   0.965904   0.000000
    41  C    3.458090   1.546565   2.173378   5.440952   5.678513
    42  H    3.626802   2.150829   3.059431   5.650980   6.058041
    43  C    2.174925   2.516713   2.695815   5.036635   5.184766
    44  H    2.499613   2.676422   2.384709   5.337412   5.285281
    45  C    4.925743   5.808073   6.005928   1.418092   1.945180
    46  H    5.085847   5.937234   6.323989   1.983401   2.795042
                   41         42         43         44         45
    41  C    0.000000
    42  H    1.106069   0.000000
    43  C    1.542116   2.138405   0.000000
    44  H    2.163957   3.043770   1.100500   0.000000
    45  C    4.324873   4.486252   3.767177   4.196776   0.000000
    46  H    4.395719   4.283455   4.022576   4.687219   1.093178
                   46
    46  H    0.000000
 Stoichiometry    C18H26O2
 Framework group  C1[X(C18H26O2)]
 Deg. of freedom   132
 Full point group                 C1      NOp   1
 Largest Abelian subgroup         C1      NOp   1
 Largest concise Abelian subgroup C1      NOp   1
                         Standard orientation:                         
 ---------------------------------------------------------------------
 Center     Atomic      Atomic             Coordinates (Angstroms)
 Number     Number       Type             X           Y           Z
 ---------------------------------------------------------------------
      1          6           0        4.648035   -0.162875   -0.189394
      2          8           0        5.841589   -0.149888   -0.567419
      3          6           0        3.808187    0.987146   -0.289145
      4          6           0        2.505473    0.936133    0.094410
      5          6           0       -1.843072    0.755609   -0.208313
      6          6           0       -2.560936   -0.592945    0.003219
      7          6           0       -1.741120   -1.703498   -0.652856
      8          6           0       -0.319105   -1.730384   -0.071168
      9          6           0       -2.849271    1.778587    0.318824
     10          6           0       -4.196155    1.209679   -0.179785
     11          6           0       -2.806364   -0.936381    1.484704
     12          1           0       -1.793458    0.891030   -1.304258
     13          1           0       -1.684620   -1.518091   -1.736904
     14          1           0       -2.217941   -2.680588   -0.515825
     15          1           0       -0.352127   -2.020188    0.987993
     16          1           0        0.251705   -2.514066   -0.580819
     17          1           0       -2.654876    2.796619   -0.018886
     18          1           0        4.285254    1.929162   -0.552867
     19          1           0       -2.809757    1.813617    1.412010
     20          1           0       -4.629940    1.818076   -0.980901
     21          1           0       -4.942751    1.170314    0.623429
     22          1           0       -3.551231   -0.283763    1.953939
     23          1           0       -3.156076   -1.972575    1.569758
     24          1           0       -1.896310   -0.847002    2.084134
     25          6           0        4.096335   -1.402215    0.449106
     26          1           0        4.190776   -1.272609    1.537077
     27          1           0        4.704572   -2.258291    0.149225
     28          6           0        2.635126   -1.589413    0.067727
     29          1           0        2.238114   -2.477479    0.568828
     30          1           0        2.564636   -1.773572   -1.014943
     31          6           0        1.720128    2.182475    0.278975
     32          1           0        1.726260    2.342234    1.375782
     33          1           0        2.238678    3.037789   -0.162661
     34          6           0        0.273799    2.105500   -0.202153
     35          1           0        0.237253    2.123761   -1.303054
     36          1           0       -0.262852    2.991924    0.145243
     37          6           0        1.804281   -0.359650    0.432937
     38          1           0        1.689157   -0.318310    1.529251
     39          8           0       -4.975950   -1.136797   -0.533176
     40          1           0       -5.180033   -1.202621    0.408624
     41          6           0        0.403317   -0.381484   -0.221805
     42          1           0        0.547826   -0.230605   -1.307964
     43          6           0       -0.410430    0.826507    0.284845
     44          1           0       -0.398211    0.825808    1.385276
     45          6           0       -3.894455   -0.231597   -0.681387
     46          1           0       -3.711793   -0.224261   -1.759172
 ---------------------------------------------------------------------
 Rotational constants (GHZ):           0.9096883           0.1758842           0.1560957
 Standard basis: 6-31G(d) (6D, 7F)
 There are   352 symmetry adapted cartesian basis functions of A   symmetry.
 There are   352 symmetry adapted basis functions of A   symmetry.
   352 basis functions,   664 primitive gaussians,   352 cartesian basis functions
    75 alpha electrons       75 beta electrons
       nuclear repulsion energy      1665.3931438760 Hartrees.
 NAtoms=   46 NActive=   46 NUniq=   46 SFac= 1.00D+00 NAtFMM=   60 NAOKFM=F Big=F
 Integral buffers will be    131072 words long.
 Raffenetti 2 integral format.
 Two-electron integral symmetry is turned on.
 Nuclear repulsion after empirical dispersion term =     1665.3441157499 Hartrees.
 One-electron integrals computed using PRISM.
 NBasis=   352 RedAO= T EigKep=  1.27D-03  NBF=   352
 NBsUse=   352 1.00D-06 EigRej= -1.00D+00 NBFU=   352
 ExpMin= 1.61D-01 ExpMax= 5.48D+03 ExpMxC= 8.25D+02 IAcc=3 IRadAn=         5 AccDes= 0.00D+00
 Harris functional with IExCor= 4639 and IRadAn=       5 diagonalized for initial guess.
 HarFok:  IExCor= 4639 AccDes= 0.00D+00 IRadAn=         5 IDoV= 1 UseB2=F ITyADJ=14
 ICtDFT=  3500011 ScaDFX=  1.000000  1.000000  1.000000  1.000000
 FoFCou: FMM=F IPFlag=           0 FMFlag=      100000 FMFlg1=           0
         NFxFlg=           0 DoJE=T BraDBF=F KetDBF=T FulRan=T
         wScrn=  0.000000 ICntrl=       500 IOpCl=  0 I1Cent=   200000004 NGrid=           0
         NMat0=    1 NMatS0=      1 NMatT0=    0 NMatD0=    1 NMtDS0=    0 NMtDT0=    0
 Petite list used in FoFCou.
 Requested convergence on RMS density matrix=1.00D-08 within 128 cycles.
 Requested convergence on MAX density matrix=1.00D-06.
 Requested convergence on             energy=1.00D-06.
 No special actions if energy rises.
 Integral accuracy reduced to 1.0D-05 until final iterations.
 Initial convergence to 1.0D-05 achieved.  Increase integral accuracy.
 SCF Done:  E(RwB97XD) =  -851.789941238     A.U. after   15 cycles
            NFock= 15  Conv=0.51D-08     -V/T= 2.0093

 **********************************************************************

            Population analysis using the SCF Density.

 **********************************************************************

 Orbital symmetries:
       Occupied  (A) (A) (A) (A) (A) (A) (A) (A) (A) (A) (A) (A)
                 (A) (A) (A) (A) (A) (A) (A) (A) (A) (A) (A) (A)
                 (A) (A) (A) (A) (A) (A) (A) (A) (A) (A) (A) (A)
                 (A) (A) (A) (A) (A) (A) (A) (A) (A) (A) (A) (A)
                 (A) (A) (A) (A) (A) (A) (A) (A) (A) (A) (A) (A)
                 (A) (A) (A) (A) (A) (A) (A) (A) (A) (A) (A) (A)
                 (A) (A) (A)
       Virtual   (A) (A) (A) (A) (A) (A) (A) (A) (A) (A) (A) (A)
                 (A) (A) (A) (A) (A) (A) (A) (A) (A) (A) (A) (A)
                 (A) (A) (A) (A) (A) (A) (A) (A) (A) (A) (A) (A)
                 (A) (A) (A) (A) (A) (A) (A) (A) (A) (A) (A) (A)
                 (A) (A) (A) (A) (A) (A) (A) (A) (A) (A) (A) (A)
                 (A) (A) (A) (A) (A) (A) (A) (A) (A) (A) (A) (A)
                 (A) (A) (A) (A) (A) (A) (A) (A) (A) (A) (A) (A)
                 (A) (A) (A) (A) (A) (A) (A) (A) (A) (A) (A) (A)
                 (A) (A) (A) (A) (A) (A) (A) (A) (A) (A) (A) (A)
                 (A) (A) (A) (A) (A) (A) (A) (A) (A) (A) (A) (A)
                 (A) (A) (A) (A) (A) (A) (A) (A) (A) (A) (A) (A)
                 (A) (A) (A) (A) (A) (A) (A) (A) (A) (A) (A) (A)
                 (A) (A) (A) (A) (A) (A) (A) (A) (A) (A) (A) (A)
                 (A) (A) (A) (A) (A) (A) (A) (A) (A) (A) (A) (A)
                 (A) (A) (A) (A) (A) (A) (A) (A) (A) (A) (A) (A)
                 (A) (A) (A) (A) (A) (A) (A) (A) (A) (A) (A) (A)
                 (A) (A) (A) (A) (A) (A) (A) (A) (A) (A) (A) (A)
                 (A) (A) (A) (A) (A) (A) (A) (A) (A) (A) (A) (A)
                 (A) (A) (A) (A) (A) (A) (A) (A) (A) (A) (A) (A)
                 (A) (A) (A) (A) (A) (A) (A) (A) (A) (A) (A) (A)
                 (A) (A) (A) (A) (A) (A) (A) (A) (A) (A) (A) (A)
                 (A) (A) (A) (A) (A) (A) (A) (A) (A) (A) (A) (A)
                 (A) (A) (A) (A) (A) (A) (A) (A) (A) (A) (A) (A)
                 (A)
 The electronic state is 1-A.
 Alpha  occ. eigenvalues --  -19.26714 -19.23285 -10.36588 -10.34242 -10.33127
 Alpha  occ. eigenvalues --  -10.31748 -10.31062 -10.30973 -10.30585 -10.30520
 Alpha  occ. eigenvalues --  -10.30405 -10.30310 -10.30041 -10.29885 -10.29669
 Alpha  occ. eigenvalues --  -10.29640 -10.29502 -10.29479 -10.29429 -10.29375
 Alpha  occ. eigenvalues --   -1.11997  -1.09907  -0.98340  -0.95895  -0.90987
 Alpha  occ. eigenvalues --   -0.90223  -0.87352  -0.84421  -0.82786  -0.81519
 Alpha  occ. eigenvalues --   -0.78172  -0.77718  -0.73695  -0.72174  -0.69635
 Alpha  occ. eigenvalues --   -0.67735  -0.66700  -0.65612  -0.63328  -0.60770
 Alpha  occ. eigenvalues --   -0.59307  -0.57600  -0.56320  -0.55691  -0.55571
 Alpha  occ. eigenvalues --   -0.54235  -0.53413  -0.52664  -0.51091  -0.50958
 Alpha  occ. eigenvalues --   -0.50176  -0.49850  -0.49325  -0.48302  -0.47874
 Alpha  occ. eigenvalues --   -0.47606  -0.46948  -0.46845  -0.45298  -0.44840
 Alpha  occ. eigenvalues --   -0.43711  -0.43334  -0.42990  -0.42285  -0.41901
 Alpha  occ. eigenvalues --   -0.41466  -0.40856  -0.40541  -0.39516  -0.39091
 Alpha  occ. eigenvalues --   -0.37593  -0.36431  -0.33617  -0.32513  -0.30748
 Alpha virt. eigenvalues --    0.02382   0.13168   0.14360   0.14701   0.16613
 Alpha virt. eigenvalues --    0.17166   0.18043   0.18527   0.18997   0.20289
 Alpha virt. eigenvalues --    0.20708   0.20745   0.21688   0.22178   0.23209
 Alpha virt. eigenvalues --    0.23599   0.23771   0.24538   0.24619   0.24847
 Alpha virt. eigenvalues --    0.25435   0.25672   0.26290   0.26643   0.26727
 Alpha virt. eigenvalues --    0.27564   0.28054   0.28557   0.29304   0.30136
 Alpha virt. eigenvalues --    0.30733   0.31280   0.31721   0.32341   0.32779
 Alpha virt. eigenvalues --    0.33210   0.34340   0.35135   0.35740   0.36295
 Alpha virt. eigenvalues --    0.36678   0.37673   0.38609   0.39071   0.40612
 Alpha virt. eigenvalues --    0.41557   0.42369   0.45216   0.45411   0.49227
 Alpha virt. eigenvalues --    0.52369   0.57707   0.58747   0.59229   0.59917
 Alpha virt. eigenvalues --    0.61126   0.61599   0.62021   0.62646   0.65113
 Alpha virt. eigenvalues --    0.65950   0.66160   0.66452   0.68293   0.69133
 Alpha virt. eigenvalues --    0.70074   0.71080   0.72065   0.72565   0.73137
 Alpha virt. eigenvalues --    0.73439   0.74211   0.75067   0.76123   0.76283
 Alpha virt. eigenvalues --    0.77595   0.78024   0.78402   0.79930   0.81259
 Alpha virt. eigenvalues --    0.82692   0.83627   0.84248   0.84663   0.85791
 Alpha virt. eigenvalues --    0.87125   0.87696   0.89167   0.89936   0.90137
 Alpha virt. eigenvalues --    0.91317   0.92210   0.93580   0.94067   0.94725
 Alpha virt. eigenvalues --    0.94875   0.95402   0.95573   0.95890   0.96616
 Alpha virt. eigenvalues --    0.97094   0.97327   0.97619   0.98749   0.98864
 Alpha virt. eigenvalues --    0.99613   0.99819   1.00144   1.01284   1.01862
 Alpha virt. eigenvalues --    1.02401   1.03811   1.03921   1.04358   1.04978
 Alpha virt. eigenvalues --    1.05460   1.05670   1.05944   1.07141   1.07781
 Alpha virt. eigenvalues --    1.08401   1.09846   1.11199   1.12536   1.12672
 Alpha virt. eigenvalues --    1.13855   1.15661   1.16369   1.18174   1.19608
 Alpha virt. eigenvalues --    1.21294   1.23141   1.25362   1.26643   1.28726
 Alpha virt. eigenvalues --    1.30212   1.32612   1.33359   1.35369   1.37879
 Alpha virt. eigenvalues --    1.39491   1.40932   1.42090   1.45064   1.48644
 Alpha virt. eigenvalues --    1.51607   1.52003   1.54386   1.56303   1.59390
 Alpha virt. eigenvalues --    1.61723   1.62395   1.64687   1.65171   1.68014
 Alpha virt. eigenvalues --    1.69100   1.71043   1.72701   1.74227   1.76440
 Alpha virt. eigenvalues --    1.77860   1.79112   1.81232   1.81386   1.83326
 Alpha virt. eigenvalues --    1.84811   1.86585   1.87051   1.87444   1.87974
 Alpha virt. eigenvalues --    1.90057   1.91801   1.93034   1.93779   1.94641
 Alpha virt. eigenvalues --    1.95195   1.95710   1.96650   1.98623   1.99627
 Alpha virt. eigenvalues --    2.00058   2.01193   2.01353   2.01638   2.03364
 Alpha virt. eigenvalues --    2.04595   2.05912   2.06598   2.06701   2.07743
 Alpha virt. eigenvalues --    2.09041   2.09827   2.10426   2.10987   2.12409
 Alpha virt. eigenvalues --    2.13184   2.13398   2.14928   2.15808   2.18352
 Alpha virt. eigenvalues --    2.19544   2.20050   2.22094   2.23728   2.25381
 Alpha virt. eigenvalues --    2.25570   2.28366   2.29739   2.30824   2.32396
 Alpha virt. eigenvalues --    2.34103   2.34739   2.36620   2.38972   2.39605
 Alpha virt. eigenvalues --    2.40034   2.41799   2.43339   2.43918   2.46343
 Alpha virt. eigenvalues --    2.48061   2.48687   2.49490   2.50718   2.52957
 Alpha virt. eigenvalues --    2.54497   2.56422   2.57824   2.60546   2.62297
 Alpha virt. eigenvalues --    2.63639   2.64303   2.65087   2.66494   2.66997
 Alpha virt. eigenvalues --    2.68787   2.70455   2.72029   2.74650   2.76906
 Alpha virt. eigenvalues --    2.78931   2.79982   2.81712   2.82774   2.84526
 Alpha virt. eigenvalues --    2.86388   2.90355   2.93345   2.96821   2.98255
 Alpha virt. eigenvalues --    3.00195   3.02650   3.06815   3.07228   3.10402
 Alpha virt. eigenvalues --    3.20028   3.27551   4.01840   4.07873   4.24558
 Alpha virt. eigenvalues --    4.26306   4.30851   4.34191   4.36324   4.37937
 Alpha virt. eigenvalues --    4.41826   4.42772   4.47856   4.54124   4.55559
 Alpha virt. eigenvalues --    4.65309   4.66902   4.74927   4.76982   4.81175
 Alpha virt. eigenvalues --    4.85989   4.90059
          Condensed to atoms (all electrons):
               1          2          3          4          5          6
     1  C    4.447624   0.522261   0.361016   0.000176  -0.000000  -0.000000
     2  O    0.522261   8.120463  -0.061593   0.005200   0.000000   0.000000
     3  C    0.361016  -0.061593   5.298453   0.516982   0.000003   0.000000
     4  C    0.000176   0.005200   0.516982   4.879140   0.000221   0.000002
     5  C   -0.000000   0.000000   0.000003   0.000221   5.111574   0.350132
     6  C   -0.000000   0.000000   0.000000   0.000002   0.350132   5.101090
     7  C    0.000000   0.000000   0.000001  -0.000084  -0.050685   0.378253
     8  C   -0.000002  -0.000000  -0.000081   0.004090  -0.016341  -0.039879
     9  C   -0.000000  -0.000000   0.000000  -0.000004   0.358868  -0.050469
    10  C   -0.000000  -0.000000  -0.000000   0.000000  -0.054900  -0.086811
    11  C   -0.000000   0.000000   0.000000   0.000000  -0.057457   0.327677
    12  H    0.000000   0.000000  -0.000003  -0.000075   0.383381  -0.056857
    13  H   -0.000000   0.000000  -0.000000   0.000002  -0.005653  -0.038257
    14  H    0.000000  -0.000000  -0.000000   0.000001   0.005768  -0.031481
    15  H    0.000000  -0.000000  -0.000003   0.000131  -0.000304  -0.008878
    16  H   -0.000013  -0.000000   0.000018  -0.000151   0.000128   0.004686
    17  H    0.000000  -0.000000   0.000000  -0.000001  -0.026403   0.004895
    18  H   -0.028268   0.000412   0.361111  -0.043486  -0.000000  -0.000000
    19  H    0.000000   0.000000  -0.000000  -0.000000  -0.039371  -0.007801
    20  H    0.000000  -0.000000   0.000000   0.000000   0.000659   0.004360
    21  H    0.000000  -0.000000   0.000000  -0.000000   0.003584  -0.001511
    22  H   -0.000000   0.000000   0.000000   0.000000  -0.003395  -0.033572
    23  H    0.000000  -0.000000  -0.000000   0.000000   0.005284  -0.030588
    24  H    0.000000  -0.000000  -0.000000   0.000000  -0.006050  -0.029578
    25  C    0.346666  -0.078092  -0.134424   0.004608   0.000002   0.000000
    26  H   -0.030242  -0.000023   0.003048  -0.002479   0.000000  -0.000000
    27  H   -0.027300   0.004066   0.005895  -0.000152  -0.000000  -0.000000
    28  C   -0.026561   0.001952   0.002766  -0.044764  -0.000136   0.000000
    29  H    0.003665  -0.000073  -0.000422   0.004414  -0.000000  -0.000003
    30  H   -0.003219   0.000141   0.003866  -0.004616  -0.000002  -0.000002
    31  C    0.003805  -0.000103  -0.034625   0.356581   0.003827  -0.000129
    32  H   -0.000105   0.000003  -0.006316  -0.043656  -0.000035   0.000003
    33  H    0.000257  -0.000001  -0.002679  -0.039344  -0.000103   0.000001
    34  C   -0.000139   0.000000   0.002073  -0.034147  -0.043174   0.004157
    35  H   -0.000002  -0.000000  -0.000047  -0.002969  -0.005985   0.000031
    36  H    0.000002  -0.000000  -0.000082   0.004172  -0.006048   0.000010
    37  C   -0.022157   0.000434  -0.043654   0.381138   0.003937   0.000082
    38  H    0.000680   0.000001  -0.001450  -0.047250   0.000067  -0.000022
    39  O   -0.000000   0.000000   0.000000   0.000000   0.002789  -0.046791
    40  H   -0.000000   0.000000   0.000000   0.000000   0.000108  -0.013292
    41  C   -0.000188   0.000001   0.001565  -0.032822  -0.038794  -0.011382
    42  H    0.000062  -0.000001   0.000411  -0.003104  -0.003609  -0.001235
    43  C   -0.000019   0.000000   0.000478  -0.015247   0.364998  -0.027078
    44  H    0.000003  -0.000000  -0.000164  -0.003557  -0.042697  -0.006142
    45  C    0.000000   0.000000  -0.000000  -0.000000  -0.063450   0.354666
    46  H    0.000000  -0.000000   0.000000   0.000000  -0.005846  -0.054155
               7          8          9         10         11         12
     1  C    0.000000  -0.000002  -0.000000  -0.000000  -0.000000   0.000000
     2  O    0.000000  -0.000000  -0.000000  -0.000000   0.000000   0.000000
     3  C    0.000001  -0.000081   0.000000  -0.000000   0.000000  -0.000003
     4  C   -0.000084   0.004090  -0.000004   0.000000   0.000000  -0.000075
     5  C   -0.050685  -0.016341   0.358868  -0.054900  -0.057457   0.383381
     6  C    0.378253  -0.039879  -0.050469  -0.086811   0.327677  -0.056857
     7  C    5.099306   0.350841   0.005438   0.006872  -0.065765  -0.005696
     8  C    0.350841   5.107293   0.000157  -0.000194  -0.004736  -0.000748
     9  C    0.005438   0.000157   5.129737   0.313820  -0.004249  -0.045364
    10  C    0.006872  -0.000194   0.313820   5.235763  -0.010353  -0.003697
    11  C   -0.065765  -0.004736  -0.004249  -0.010353   5.255883   0.006776
    12  H   -0.005696  -0.000748  -0.045364  -0.003697   0.006776   0.624600
    13  H    0.378453  -0.038624   0.000023   0.000056   0.006079   0.004850
    14  H    0.376100  -0.034337  -0.000214   0.000050  -0.006863  -0.000008
    15  H   -0.034509   0.378700  -0.000022  -0.000000   0.003592   0.000077
    16  H   -0.033750   0.380695   0.000008   0.000003   0.000021  -0.000057
    17  H   -0.000132  -0.000003   0.377443  -0.024753   0.000100  -0.005561
    18  H   -0.000000   0.000002   0.000000  -0.000000   0.000000  -0.000000
    19  H    0.000046  -0.000018   0.384056  -0.032363   0.003221   0.005491
    20  H   -0.000127   0.000003  -0.028266   0.376683   0.000193   0.000649
    21  H   -0.000110   0.000003  -0.028318   0.370594   0.000536   0.000007
    22  H    0.004648   0.000117   0.000829   0.003464   0.375931  -0.000084
    23  H   -0.005238  -0.000613  -0.000105   0.000317   0.373990  -0.000116
    24  H   -0.003147   0.000982  -0.000384  -0.000065   0.377983   0.000027
    25  C   -0.000003   0.000327  -0.000000   0.000000  -0.000000  -0.000000
    26  H   -0.000000  -0.000025   0.000000  -0.000000  -0.000000  -0.000000
    27  H   -0.000000  -0.000001   0.000000  -0.000000   0.000000   0.000000
    28  C    0.000149  -0.004785   0.000001  -0.000000   0.000000   0.000002
    29  H    0.000062   0.003453  -0.000000   0.000000  -0.000001   0.000000
    30  H   -0.000069  -0.002995   0.000000   0.000000  -0.000000  -0.000001
    31  C   -0.000009   0.000344   0.000069   0.000000   0.000001   0.000189
    32  H    0.000000  -0.000015  -0.000008  -0.000000  -0.000001   0.000004
    33  H   -0.000000   0.000009  -0.000001  -0.000000   0.000000   0.000000
    34  C   -0.000082   0.004195  -0.003429   0.000090   0.000078  -0.008034
    35  H   -0.000009   0.000061  -0.000326  -0.000024  -0.000002   0.006179
    36  H   -0.000004  -0.000126   0.002992  -0.000024  -0.000003  -0.000065
    37  C    0.003707  -0.040920  -0.000106   0.000002   0.000012   0.000109
    38  H   -0.000003  -0.004538  -0.000003   0.000000  -0.000032   0.000001
    39  O    0.001706   0.000032   0.003087  -0.044873   0.000656   0.000104
    40  H   -0.000242  -0.000005   0.000025  -0.005036   0.009472   0.000005
    41  C   -0.038483   0.365298   0.004294  -0.000208  -0.001804  -0.005193
    42  H   -0.001385  -0.048084  -0.000072   0.000006   0.000071   0.004103
    43  C   -0.010393  -0.039240  -0.035196   0.004723  -0.004880  -0.047248
    44  H    0.000157  -0.002222  -0.005329  -0.000001   0.001747   0.006363
    45  C   -0.039337   0.004103  -0.060374   0.345373  -0.046575  -0.003704
    46  H   -0.007954   0.000044   0.003142  -0.046928   0.006547   0.005508
              13         14         15         16         17         18
     1  C   -0.000000   0.000000   0.000000  -0.000013   0.000000  -0.028268
     2  O    0.000000  -0.000000  -0.000000  -0.000000  -0.000000   0.000412
     3  C   -0.000000  -0.000000  -0.000003   0.000018   0.000000   0.361111
     4  C    0.000002   0.000001   0.000131  -0.000151  -0.000001  -0.043486
     5  C   -0.005653   0.005768  -0.000304   0.000128  -0.026403  -0.000000
     6  C   -0.038257  -0.031481  -0.008878   0.004686   0.004895  -0.000000
     7  C    0.378453   0.376100  -0.034509  -0.033750  -0.000132  -0.000000
     8  C   -0.038624  -0.034337   0.378700   0.380695  -0.000003   0.000002
     9  C    0.000023  -0.000214  -0.000022   0.000008   0.377443   0.000000
    10  C    0.000056   0.000050  -0.000000   0.000003  -0.024753  -0.000000
    11  C    0.006079  -0.006863   0.003592   0.000021   0.000100   0.000000
    12  H    0.004850  -0.000008   0.000077  -0.000057  -0.005561  -0.000000
    13  H    0.575003  -0.029104   0.004880  -0.003944  -0.000000  -0.000000
    14  H   -0.029104   0.551968  -0.003241  -0.002186   0.000003   0.000000
    15  H    0.004880  -0.003241   0.579990  -0.033393   0.000000  -0.000000
    16  H   -0.003944  -0.002186  -0.033393   0.553731  -0.000000   0.000000
    17  H   -0.000000   0.000003   0.000000  -0.000000   0.546502  -0.000000
    18  H   -0.000000   0.000000  -0.000000   0.000000  -0.000000   0.527465
    19  H   -0.000006   0.000003  -0.000008  -0.000000  -0.035184   0.000000
    20  H   -0.000010  -0.000000   0.000000  -0.000000  -0.005978   0.000000
    21  H   -0.000000  -0.000001  -0.000000  -0.000000   0.002311   0.000000
    22  H   -0.000133  -0.000006  -0.000006  -0.000001   0.000047  -0.000000
    23  H    0.000073   0.005320   0.000548  -0.000049   0.000000   0.000000
    24  H   -0.000089  -0.000077   0.001450   0.000029  -0.000024  -0.000000
    25  C   -0.000000  -0.000000  -0.000059   0.000122   0.000000   0.005951
    26  H    0.000000   0.000000   0.000004   0.000005   0.000000  -0.000170
    27  H    0.000000   0.000000   0.000000   0.000002  -0.000000  -0.000099
    28  C   -0.000026   0.000002  -0.001939   0.004700  -0.000000  -0.000338
    29  H    0.000006   0.000003   0.001287  -0.000516  -0.000000   0.000012
    30  H    0.000006   0.000001   0.000238   0.001638   0.000000  -0.000057
    31  C    0.000000  -0.000000  -0.000019  -0.000008  -0.000029  -0.007300
    32  H   -0.000000  -0.000000  -0.000001   0.000000   0.000005   0.000242
    33  H   -0.000000   0.000000  -0.000000  -0.000000   0.000002   0.005122
    34  C   -0.000052   0.000009  -0.000006  -0.000122   0.001345   0.000175
    35  H   -0.000014   0.000000  -0.000000  -0.000004   0.000232   0.000001
    36  H    0.000001  -0.000000   0.000003   0.000002   0.001507  -0.000008
    37  C    0.000054  -0.000099  -0.002220  -0.007159   0.000000   0.004350
    38  H    0.000003   0.000001   0.003530  -0.000039   0.000000  -0.000193
    39  O   -0.000110   0.002600  -0.000002   0.000001  -0.000032   0.000000
    40  H    0.000012  -0.000026  -0.000002   0.000000   0.000001   0.000000
    41  C   -0.004597   0.004072  -0.043252  -0.029940  -0.000064  -0.000078
    42  H    0.004213  -0.000042   0.005700  -0.005186   0.000000  -0.000032
    43  C   -0.000436  -0.000026  -0.003632   0.004110  -0.001786  -0.000002
    44  H    0.000046   0.000000   0.001759  -0.000086  -0.000155  -0.000001
    45  C   -0.005691  -0.003542  -0.000027  -0.000073   0.002311  -0.000000
    46  H    0.005498  -0.000063   0.000001  -0.000004  -0.000083   0.000000
              19         20         21         22         23         24
     1  C    0.000000   0.000000   0.000000  -0.000000   0.000000   0.000000
     2  O    0.000000  -0.000000  -0.000000   0.000000  -0.000000  -0.000000
     3  C   -0.000000   0.000000   0.000000   0.000000  -0.000000  -0.000000
     4  C   -0.000000   0.000000  -0.000000   0.000000   0.000000   0.000000
     5  C   -0.039371   0.000659   0.003584  -0.003395   0.005284  -0.006050
     6  C   -0.007801   0.004360  -0.001511  -0.033572  -0.030588  -0.029578
     7  C    0.000046  -0.000127  -0.000110   0.004648  -0.005238  -0.003147
     8  C   -0.000018   0.000003   0.000003   0.000117  -0.000613   0.000982
     9  C    0.384056  -0.028266  -0.028318   0.000829  -0.000105  -0.000384
    10  C   -0.032363   0.376683   0.370594   0.003464   0.000317  -0.000065
    11  C    0.003221   0.000193   0.000536   0.375931   0.373990   0.377983
    12  H    0.005491   0.000649   0.000007  -0.000084  -0.000116   0.000027
    13  H   -0.000006  -0.000010  -0.000000  -0.000133   0.000073  -0.000089
    14  H    0.000003  -0.000000  -0.000001  -0.000006   0.005320  -0.000077
    15  H   -0.000008   0.000000  -0.000000  -0.000006   0.000548   0.001450
    16  H   -0.000000  -0.000000  -0.000000  -0.000001  -0.000049   0.000029
    17  H   -0.035184  -0.005978   0.002311   0.000047   0.000000  -0.000024
    18  H    0.000000   0.000000   0.000000  -0.000000   0.000000  -0.000000
    19  H    0.570398   0.003571  -0.009262  -0.000162   0.000040   0.000479
    20  H    0.003571   0.531230  -0.028445  -0.000052  -0.000005   0.000000
    21  H   -0.009262  -0.028445   0.562704   0.001517  -0.000037  -0.000018
    22  H   -0.000162  -0.000052   0.001517   0.552257  -0.028491  -0.027682
    23  H    0.000040  -0.000005  -0.000037  -0.028491   0.535083  -0.026538
    24  H    0.000479   0.000000  -0.000018  -0.027682  -0.026538   0.530556
    25  C   -0.000000  -0.000000  -0.000000   0.000000   0.000000  -0.000000
    26  H   -0.000000   0.000000  -0.000000   0.000000   0.000000   0.000000
    27  H    0.000000   0.000000   0.000000   0.000000  -0.000000   0.000000
    28  C    0.000000   0.000000   0.000000  -0.000000   0.000000   0.000002
    29  H    0.000000  -0.000000   0.000000   0.000000   0.000000  -0.000002
    30  H   -0.000000  -0.000000   0.000000   0.000000   0.000000  -0.000000
    31  C   -0.000017  -0.000000  -0.000000  -0.000000  -0.000000   0.000007
    32  H   -0.000003  -0.000000   0.000000   0.000000   0.000000  -0.000002
    33  H    0.000000   0.000000   0.000000  -0.000000   0.000000  -0.000000
    34  C   -0.000304  -0.000005   0.000001  -0.000010   0.000001  -0.000065
    35  H    0.000043  -0.000001   0.000000   0.000000   0.000000   0.000001
    36  H    0.000249   0.000002   0.000002   0.000000  -0.000000   0.000000
    37  C    0.000001  -0.000000  -0.000000  -0.000001  -0.000002   0.000004
    38  H   -0.000003  -0.000000  -0.000000   0.000001   0.000001   0.000028
    39  O   -0.000006   0.002271  -0.000877  -0.000513   0.002755   0.000191
    40  H   -0.000076  -0.000271   0.005527   0.001785   0.000819  -0.000083
    41  C    0.000052   0.000003   0.000003  -0.000002   0.000103  -0.000200
    42  H    0.000003  -0.000000  -0.000000   0.000001   0.000002  -0.000007
    43  C   -0.004203  -0.000054  -0.000155  -0.000027  -0.000068   0.002596
    44  H    0.004622   0.000001  -0.000006   0.000012  -0.000023   0.002926
    45  C    0.001580  -0.024091  -0.033320  -0.005093  -0.004150   0.004653
    46  H   -0.000174  -0.006495   0.004148   0.000109  -0.000103  -0.000110
              25         26         27         28         29         30
     1  C    0.346666  -0.030242  -0.027300  -0.026561   0.003665  -0.003219
     2  O   -0.078092  -0.000023   0.004066   0.001952  -0.000073   0.000141
     3  C   -0.134424   0.003048   0.005895   0.002766  -0.000422   0.003866
     4  C    0.004608  -0.002479  -0.000152  -0.044764   0.004414  -0.004616
     5  C    0.000002   0.000000  -0.000000  -0.000136  -0.000000  -0.000002
     6  C    0.000000  -0.000000  -0.000000   0.000000  -0.000003  -0.000002
     7  C   -0.000003  -0.000000  -0.000000   0.000149   0.000062  -0.000069
     8  C    0.000327  -0.000025  -0.000001  -0.004785   0.003453  -0.002995
     9  C   -0.000000   0.000000   0.000000   0.000001  -0.000000   0.000000
    10  C    0.000000  -0.000000  -0.000000  -0.000000   0.000000   0.000000
    11  C   -0.000000  -0.000000   0.000000   0.000000  -0.000001  -0.000000
    12  H   -0.000000  -0.000000   0.000000   0.000002   0.000000  -0.000001
    13  H   -0.000000   0.000000   0.000000  -0.000026   0.000006   0.000006
    14  H   -0.000000   0.000000   0.000000   0.000002   0.000003   0.000001
    15  H   -0.000059   0.000004   0.000000  -0.001939   0.001287   0.000238
    16  H    0.000122   0.000005   0.000002   0.004700  -0.000516   0.001638
    17  H    0.000000   0.000000  -0.000000  -0.000000  -0.000000   0.000000
    18  H    0.005951  -0.000170  -0.000099  -0.000338   0.000012  -0.000057
    19  H   -0.000000  -0.000000   0.000000   0.000000   0.000000  -0.000000
    20  H   -0.000000   0.000000   0.000000   0.000000  -0.000000  -0.000000
    21  H   -0.000000  -0.000000   0.000000   0.000000   0.000000   0.000000
    22  H    0.000000   0.000000   0.000000  -0.000000   0.000000   0.000000
    23  H    0.000000   0.000000  -0.000000   0.000000   0.000000   0.000000
    24  H   -0.000000   0.000000   0.000000   0.000002  -0.000002  -0.000000
    25  C    5.340002   0.366971   0.368277   0.289066  -0.031165  -0.041350
    26  H    0.366971   0.539437  -0.020854  -0.037970  -0.004796   0.004964
    27  H    0.368277  -0.020854   0.506655  -0.030009  -0.002548  -0.003085
    28  C    0.289066  -0.037970  -0.030009   5.152973   0.376845   0.386447
    29  H   -0.031165  -0.004796  -0.002548   0.376845   0.550617  -0.031232
    30  H   -0.041350   0.004964  -0.003085   0.386447  -0.031232   0.555275
    31  C   -0.000200  -0.000074   0.000008   0.005499  -0.000109  -0.000064
    32  H   -0.000092   0.000012  -0.000001   0.000144   0.000010   0.000002
    33  H    0.000012   0.000000   0.000000  -0.000136   0.000002   0.000002
    34  C    0.000041  -0.000001   0.000000  -0.000268  -0.000006  -0.000031
    35  H   -0.000003  -0.000000  -0.000000   0.000011   0.000001  -0.000005
    36  H   -0.000000   0.000000   0.000000   0.000011   0.000000   0.000000
    37  C   -0.036907  -0.002655   0.004080   0.344376  -0.027691  -0.042617
    38  H   -0.003943   0.004168  -0.000185  -0.033988  -0.004137   0.005236
    39  O    0.000000  -0.000000   0.000000   0.000000   0.000000  -0.000000
    40  H    0.000000   0.000000   0.000000   0.000000   0.000000   0.000000
    41  C    0.004438   0.000047  -0.000062  -0.046851  -0.007355  -0.002545
    42  H   -0.000187   0.000009  -0.000002  -0.003644   0.000081   0.004614
    43  C   -0.000088   0.000003   0.000001   0.004068  -0.000120   0.000193
    44  H   -0.000012  -0.000001   0.000000   0.000189   0.000003   0.000008
    45  C   -0.000000  -0.000000  -0.000000   0.000000   0.000000  -0.000000
    46  H   -0.000000  -0.000000   0.000000  -0.000000   0.000000   0.000000
              31         32         33         34         35         36
     1  C    0.003805  -0.000105   0.000257  -0.000139  -0.000002   0.000002
     2  O   -0.000103   0.000003  -0.000001   0.000000  -0.000000  -0.000000
     3  C   -0.034625  -0.006316  -0.002679   0.002073  -0.000047  -0.000082
     4  C    0.356581  -0.043656  -0.039344  -0.034147  -0.002969   0.004172
     5  C    0.003827  -0.000035  -0.000103  -0.043174  -0.005985  -0.006048
     6  C   -0.000129   0.000003   0.000001   0.004157   0.000031   0.000010
     7  C   -0.000009   0.000000  -0.000000  -0.000082  -0.000009  -0.000004
     8  C    0.000344  -0.000015   0.000009   0.004195   0.000061  -0.000126
     9  C    0.000069  -0.000008  -0.000001  -0.003429  -0.000326   0.002992
    10  C    0.000000  -0.000000  -0.000000   0.000090  -0.000024  -0.000024
    11  C    0.000001  -0.000001   0.000000   0.000078  -0.000002  -0.000003
    12  H    0.000189   0.000004   0.000000  -0.008034   0.006179  -0.000065
    13  H    0.000000  -0.000000  -0.000000  -0.000052  -0.000014   0.000001
    14  H   -0.000000  -0.000000   0.000000   0.000009   0.000000  -0.000000
    15  H   -0.000019  -0.000001  -0.000000  -0.000006  -0.000000   0.000003
    16  H   -0.000008   0.000000  -0.000000  -0.000122  -0.000004   0.000002
    17  H   -0.000029   0.000005   0.000002   0.001345   0.000232   0.001507
    18  H   -0.007300   0.000242   0.005122   0.000175   0.000001  -0.000008
    19  H   -0.000017  -0.000003   0.000000  -0.000304   0.000043   0.000249
    20  H   -0.000000  -0.000000   0.000000  -0.000005  -0.000001   0.000002
    21  H   -0.000000   0.000000   0.000000   0.000001   0.000000   0.000002
    22  H   -0.000000   0.000000  -0.000000  -0.000010   0.000000   0.000000
    23  H   -0.000000   0.000000   0.000000   0.000001   0.000000  -0.000000
    24  H    0.000007  -0.000002  -0.000000  -0.000065   0.000001   0.000000
    25  C   -0.000200  -0.000092   0.000012   0.000041  -0.000003  -0.000000
    26  H   -0.000074   0.000012   0.000000  -0.000001  -0.000000   0.000000
    27  H    0.000008  -0.000001   0.000000   0.000000  -0.000000   0.000000
    28  C    0.005499   0.000144  -0.000136  -0.000268   0.000011   0.000011
    29  H   -0.000109   0.000010   0.000002  -0.000006   0.000001   0.000000
    30  H   -0.000064   0.000002   0.000002  -0.000031  -0.000005   0.000000
    31  C    5.156016   0.377870   0.379575   0.334329  -0.035162  -0.032071
    32  H    0.377870   0.560421  -0.025491  -0.040930   0.004879  -0.005422
    33  H    0.379575  -0.025491   0.528981  -0.030634  -0.003302  -0.001615
    34  C    0.334329  -0.040930  -0.030634   5.102107   0.379392   0.378540
    35  H   -0.035162   0.004879  -0.003302   0.379392   0.564089  -0.031465
    36  H   -0.032071  -0.005422  -0.001615   0.378540  -0.031465   0.555026
    37  C   -0.069200  -0.000421   0.004231  -0.010927   0.000282  -0.000065
    38  H   -0.000456   0.002696  -0.000110  -0.000669   0.000101  -0.000026
    39  O   -0.000000  -0.000000   0.000000   0.000000   0.000000  -0.000000
    40  H   -0.000000   0.000000   0.000000   0.000000  -0.000000  -0.000000
    41  C   -0.014877  -0.001007  -0.000146  -0.043037  -0.008243   0.005010
    42  H   -0.000477   0.000179  -0.000089  -0.006565   0.006182   0.000107
    43  C   -0.042642  -0.003948   0.003996   0.369915  -0.038736  -0.032671
    44  H    0.000436   0.004097   0.000001  -0.046995   0.005510  -0.003136
    45  C    0.000001  -0.000000  -0.000000  -0.000126  -0.000007  -0.000009
    46  H   -0.000000  -0.000000   0.000000   0.000004  -0.000006  -0.000000
              37         38         39         40         41         42
     1  C   -0.022157   0.000680  -0.000000  -0.000000  -0.000188   0.000062
     2  O    0.000434   0.000001   0.000000   0.000000   0.000001  -0.000001
     3  C   -0.043654  -0.001450   0.000000   0.000000   0.001565   0.000411
     4  C    0.381138  -0.047250   0.000000   0.000000  -0.032822  -0.003104
     5  C    0.003937   0.000067   0.002789   0.000108  -0.038794  -0.003609
     6  C    0.000082  -0.000022  -0.046791  -0.013292  -0.011382  -0.001235
     7  C    0.003707  -0.000003   0.001706  -0.000242  -0.038483  -0.001385
     8  C   -0.040920  -0.004538   0.000032  -0.000005   0.365298  -0.048084
     9  C   -0.000106  -0.000003   0.003087   0.000025   0.004294  -0.000072
    10  C    0.000002   0.000000  -0.044873  -0.005036  -0.000208   0.000006
    11  C    0.000012  -0.000032   0.000656   0.009472  -0.001804   0.000071
    12  H    0.000109   0.000001   0.000104   0.000005  -0.005193   0.004103
    13  H    0.000054   0.000003  -0.000110   0.000012  -0.004597   0.004213
    14  H   -0.000099   0.000001   0.002600  -0.000026   0.004072  -0.000042
    15  H   -0.002220   0.003530  -0.000002  -0.000002  -0.043252   0.005700
    16  H   -0.007159  -0.000039   0.000001   0.000000  -0.029940  -0.005186
    17  H    0.000000   0.000000  -0.000032   0.000001  -0.000064   0.000000
    18  H    0.004350  -0.000193   0.000000   0.000000  -0.000078  -0.000032
    19  H    0.000001  -0.000003  -0.000006  -0.000076   0.000052   0.000003
    20  H   -0.000000  -0.000000   0.002271  -0.000271   0.000003  -0.000000
    21  H   -0.000000  -0.000000  -0.000877   0.005527   0.000003  -0.000000
    22  H   -0.000001   0.000001  -0.000513   0.001785  -0.000002   0.000001
    23  H   -0.000002   0.000001   0.002755   0.000819   0.000103   0.000002
    24  H    0.000004   0.000028   0.000191  -0.000083  -0.000200  -0.000007
    25  C   -0.036907  -0.003943   0.000000   0.000000   0.004438  -0.000187
    26  H   -0.002655   0.004168  -0.000000   0.000000   0.000047   0.000009
    27  H    0.004080  -0.000185   0.000000   0.000000  -0.000062  -0.000002
    28  C    0.344376  -0.033988   0.000000   0.000000  -0.046851  -0.003644
    29  H   -0.027691  -0.004137   0.000000   0.000000  -0.007355   0.000081
    30  H   -0.042617   0.005236  -0.000000   0.000000  -0.002545   0.004614
    31  C   -0.069200  -0.000456  -0.000000  -0.000000  -0.014877  -0.000477
    32  H   -0.000421   0.002696  -0.000000   0.000000  -0.001007   0.000179
    33  H    0.004231  -0.000110   0.000000   0.000000  -0.000146  -0.000089
    34  C   -0.010927  -0.000669   0.000000   0.000000  -0.043037  -0.006565
    35  H    0.000282   0.000101   0.000000  -0.000000  -0.008243   0.006182
    36  H   -0.000065  -0.000026  -0.000000  -0.000000   0.005010   0.000107
    37  C    5.088943   0.364539  -0.000000  -0.000000   0.364237  -0.044082
    38  H    0.364539   0.593201  -0.000000   0.000000  -0.040902   0.005938
    39  O   -0.000000  -0.000000   8.261287   0.241434  -0.000002   0.000000
    40  H   -0.000000   0.000000   0.241434   0.376616   0.000001  -0.000000
    41  C    0.364237  -0.040902  -0.000002   0.000001   5.043200   0.376192
    42  H   -0.044082   0.005938   0.000000  -0.000000   0.376192   0.610187
    43  C   -0.036962  -0.006507  -0.000058  -0.000006   0.369168  -0.047680
    44  H   -0.003132   0.006430   0.000000  -0.000001  -0.049705   0.006083
    45  C    0.000004  -0.000000   0.268709  -0.027278   0.000111  -0.000072
    46  H   -0.000000  -0.000000  -0.040880   0.007326  -0.000002  -0.000005
              43         44         45         46
     1  C   -0.000019   0.000003   0.000000   0.000000
     2  O    0.000000  -0.000000   0.000000  -0.000000
     3  C    0.000478  -0.000164  -0.000000   0.000000
     4  C   -0.015247  -0.003557  -0.000000   0.000000
     5  C    0.364998  -0.042697  -0.063450  -0.005846
     6  C   -0.027078  -0.006142   0.354666  -0.054155
     7  C   -0.010393   0.000157  -0.039337  -0.007954
     8  C   -0.039240  -0.002222   0.004103   0.000044
     9  C   -0.035196  -0.005329  -0.060374   0.003142
    10  C    0.004723  -0.000001   0.345373  -0.046928
    11  C   -0.004880   0.001747  -0.046575   0.006547
    12  H   -0.047248   0.006363  -0.003704   0.005508
    13  H   -0.000436   0.000046  -0.005691   0.005498
    14  H   -0.000026   0.000000  -0.003542  -0.000063
    15  H   -0.003632   0.001759  -0.000027   0.000001
    16  H    0.004110  -0.000086  -0.000073  -0.000004
    17  H   -0.001786  -0.000155   0.002311  -0.000083
    18  H   -0.000002  -0.000001  -0.000000   0.000000
    19  H   -0.004203   0.004622   0.001580  -0.000174
    20  H   -0.000054   0.000001  -0.024091  -0.006495
    21  H   -0.000155  -0.000006  -0.033320   0.004148
    22  H   -0.000027   0.000012  -0.005093   0.000109
    23  H   -0.000068  -0.000023  -0.004150  -0.000103
    24  H    0.002596   0.002926   0.004653  -0.000110
    25  C   -0.000088  -0.000012  -0.000000  -0.000000
    26  H    0.000003  -0.000001  -0.000000  -0.000000
    27  H    0.000001   0.000000  -0.000000   0.000000
    28  C    0.004068   0.000189   0.000000  -0.000000
    29  H   -0.000120   0.000003   0.000000   0.000000
    30  H    0.000193   0.000008  -0.000000   0.000000
    31  C   -0.042642   0.000436   0.000001  -0.000000
    32  H   -0.003948   0.004097  -0.000000  -0.000000
    33  H    0.003996   0.000001  -0.000000   0.000000
    34  C    0.369915  -0.046995  -0.000126   0.000004
    35  H   -0.038736   0.005510  -0.000007  -0.000006
    36  H   -0.032671  -0.003136  -0.000009  -0.000000
    37  C   -0.036962  -0.003132   0.000004  -0.000000
    38  H   -0.006507   0.006430  -0.000000  -0.000000
    39  O   -0.000058   0.000000   0.268709  -0.040880
    40  H   -0.000006  -0.000001  -0.027278   0.007326
    41  C    0.369168  -0.049705   0.000111  -0.000002
    42  H   -0.047680   0.006083  -0.000072  -0.000005
    43  C    5.021139   0.378901   0.003934  -0.000298
    44  H    0.378901   0.612192   0.000036  -0.000007
    45  C    0.003934   0.000036   4.809351   0.395808
    46  H   -0.000298  -0.000007   0.395808   0.579886
 Mulliken charges:
               1
     1  C    0.451998
     2  O   -0.515050
     3  C   -0.272143
     4  C    0.161049
     5  C   -0.124892
     6  C    0.045866
     7  C   -0.308524
     8  C   -0.322219
     9  C   -0.321750
    10  C   -0.347585
    11  C   -0.547844
    12  H    0.134086
    13  H    0.147490
    14  H    0.165415
    15  H    0.149630
    16  H    0.166782
    17  H    0.163484
    18  H    0.175189
    19  H    0.155105
    20  H    0.174175
    21  H    0.151120
    22  H    0.158511
    23  H    0.171790
    24  H    0.172205
    25  C   -0.399957
    26  H    0.180624
    27  H    0.195314
    28  C   -0.337788
    29  H    0.169716
    30  H    0.169259
    31  C   -0.380990
    32  H    0.176887
    33  H    0.181460
    34  C   -0.306697
    35  H    0.159317
    36  H    0.165204
    37  C   -0.173544
    38  H    0.157835
    39  O   -0.653480
    40  H    0.403187
    41  C   -0.116055
    42  H    0.141417
    43  C   -0.128818
    44  H    0.131848
    45  C    0.126280
    46  H    0.155090
 Sum of Mulliken charges =  -0.00000
 Mulliken charges with hydrogens summed into heavy atoms:
               1
     1  C    0.451998
     2  O   -0.515050
     3  C   -0.096953
     4  C    0.161049
     5  C    0.009193
     6  C    0.045866
     7  C    0.004381
     8  C   -0.005806
     9  C   -0.003161
    10  C   -0.022289
    11  C   -0.045339
    25  C   -0.024019
    28  C    0.001188
    31  C   -0.022643
    34  C    0.017824
    37  C   -0.015709
    39  O   -0.250294
    41  C    0.025362
    43  C    0.003030
    45  C    0.281371
 Electronic spatial extent (au):  <R**2>=           6869.2521
 Charge=             -0.0000 electrons
 Dipole moment (field-independent basis, Debye):
    X=             -3.9451    Y=              0.9750    Z=              2.5851  Tot=              4.8164
 Quadrupole moment (field-independent basis, Debye-Ang):
   XX=           -165.4548   YY=           -116.6044   ZZ=           -119.2221
   XY=             -3.5757   XZ=             -0.6300   YZ=             -2.7598
 Traceless Quadrupole moment (field-independent basis, Debye-Ang):
   XX=            -31.6943   YY=             17.1560   ZZ=             14.5383
   XY=             -3.5757   XZ=             -0.6300   YZ=             -2.7598
 Octapole moment (field-independent basis, Debye-Ang**2):
  XXX=           -228.2863  YYY=             -0.6654  ZZZ=             -3.2185  XYY=             16.0549
  XXY=             19.9534  XXZ=             81.6263  XZZ=             -5.0917  YZZ=             -1.4022
  YYZ=              0.5043  XYZ=             11.4294
 Hexadecapole moment (field-independent basis, Debye-Ang**3):
 XXXX=          -9077.8996 YYYY=          -1408.6529 ZZZZ=           -425.2089 XXXY=            -47.5331
 XXXZ=            -18.0690 YYYX=             20.9063 YYYZ=             -8.8810 ZZZX=             14.3428
 ZZZY=              4.6708 XXYY=          -1388.1354 XXZZ=          -1254.0919 YYZZ=           -312.8374
 XXYZ=            -81.0590 YYXZ=            -20.6042 ZZXY=             -4.0850
 N-N= 1.665344115750D+03 E-N=-5.307510097609D+03  KE= 8.439800014763D+02

 **********************************************************************

            Electrostatic Properties Using The SCF Density.

 **********************************************************************

       Atomic Center    1 is at   4.648035 -0.162875 -0.189394
       Atomic Center    2 is at   5.841589 -0.149888 -0.567419
       Atomic Center    3 is at   3.808187  0.987146 -0.289145
       Atomic Center    4 is at   2.505473  0.936133  0.094410
       Atomic Center    5 is at  -1.843072  0.755609 -0.208313
       Atomic Center    6 is at  -2.560936 -0.592945  0.003219
       Atomic Center    7 is at  -1.741120 -1.703498 -0.652856
       Atomic Center    8 is at  -0.319105 -1.730384 -0.071168
       Atomic Center    9 is at  -2.849271  1.778587  0.318824
       Atomic Center   10 is at  -4.196155  1.209679 -0.179785
       Atomic Center   11 is at  -2.806364 -0.936381  1.484704
       Atomic Center   12 is at  -1.793458  0.891030 -1.304258
       Atomic Center   13 is at  -1.684620 -1.518091 -1.736904
       Atomic Center   14 is at  -2.217941 -2.680588 -0.515825
       Atomic Center   15 is at  -0.352127 -2.020188  0.987993
       Atomic Center   16 is at   0.251705 -2.514066 -0.580819
       Atomic Center   17 is at  -2.654876  2.796619 -0.018886
       Atomic Center   18 is at   4.285254  1.929162 -0.552867
       Atomic Center   19 is at  -2.809757  1.813617  1.412010
       Atomic Center   20 is at  -4.629940  1.818076 -0.980901
       Atomic Center   21 is at  -4.942751  1.170314  0.623429
       Atomic Center   22 is at  -3.551231 -0.283763  1.953939
       Atomic Center   23 is at  -3.156076 -1.972575  1.569758
       Atomic Center   24 is at  -1.896310 -0.847002  2.084134
       Atomic Center   25 is at   4.096335 -1.402215  0.449106
       Atomic Center   26 is at   4.190776 -1.272609  1.537077
       Atomic Center   27 is at   4.704572 -2.258291  0.149225
       Atomic Center   28 is at   2.635126 -1.589413  0.067727
       Atomic Center   29 is at   2.238114 -2.477479  0.568828
       Atomic Center   30 is at   2.564636 -1.773572 -1.014943
       Atomic Center   31 is at   1.720128  2.182475  0.278975
       Atomic Center   32 is at   1.726260  2.342234  1.375782
       Atomic Center   33 is at   2.238678  3.037789 -0.162661
       Atomic Center   34 is at   0.273799  2.105500 -0.202153
       Atomic Center   35 is at   0.237253  2.123761 -1.303054
       Atomic Center   36 is at  -0.262852  2.991924  0.145243
       Atomic Center   37 is at   1.804281 -0.359650  0.432937
       Atomic Center   38 is at   1.689157 -0.318310  1.529251
       Atomic Center   39 is at  -4.975950 -1.136797 -0.533176
       Atomic Center   40 is at  -5.180033 -1.202621  0.408624
       Atomic Center   41 is at   0.403317 -0.381484 -0.221805
       Atomic Center   42 is at   0.547826 -0.230605 -1.307964
       Atomic Center   43 is at  -0.410430  0.826507  0.284845
       Atomic Center   44 is at  -0.398211  0.825808  1.385276
       Atomic Center   45 is at  -3.894455 -0.231597 -0.681387
       Atomic Center   46 is at  -3.711793 -0.224261 -1.759172
 -----------------------------------------------------------------

              Electrostatic Properties (Atomic Units)

 -----------------------------------------------------------------
    Center     Electric         -------- Electric Field --------
               Potential          X             Y             Z
 -----------------------------------------------------------------
    1 Atom    -14.675072      0.005405     -0.002830     -0.001839
    2 Atom    -22.355509      0.098309      0.000692     -0.031513
    3 Atom    -14.746877     -0.009689      0.000109      0.003242
    4 Atom    -14.709895      0.012205     -0.000060     -0.004456
    5 Atom    -14.735901      0.000175     -0.001678      0.002319
    6 Atom    -14.730249     -0.000619      0.001257     -0.003850
    7 Atom    -14.739864     -0.002131      0.001888      0.000784
    8 Atom    -14.735292     -0.000472     -0.000270     -0.000316
    9 Atom    -14.737646      0.001612     -0.000425      0.000072
   10 Atom    -14.739814     -0.001115     -0.001693     -0.001307
   11 Atom    -14.738018      0.001399      0.000125     -0.002563
   12 Atom     -1.122021      0.001456      0.003777     -0.029551
   13 Atom     -1.123161     -0.000015      0.002248     -0.028639
   14 Atom     -1.125194     -0.015006     -0.026046      0.001355
   15 Atom     -1.119941     -0.000924     -0.009745      0.028286
   16 Atom     -1.121362      0.015673     -0.021225     -0.013014
   17 Atom     -1.121465      0.004682      0.029704     -0.012206
   18 Atom     -1.103937      0.014631      0.026773     -0.008965
   19 Atom     -1.121968      0.000656      0.001246      0.031256
   20 Atom     -1.122713     -0.012713      0.015188     -0.020077
   21 Atom     -1.118271     -0.021221      0.001289      0.019723
   22 Atom     -1.108314     -0.018586      0.017326      0.014765
   23 Atom     -1.110813     -0.008375     -0.027048      0.003664
   24 Atom     -1.110363      0.023958      0.001199      0.016895
   25 Atom    -14.741583      0.001285     -0.001466     -0.002642
   26 Atom     -1.105681      0.004027     -0.000432      0.030330
   27 Atom     -1.118836      0.020678     -0.020902     -0.007789
   28 Atom    -14.731155     -0.000266     -0.001203     -0.000062
   29 Atom     -1.117009     -0.012046     -0.024940      0.012165
   30 Atom     -1.116657     -0.002133     -0.005725     -0.028078
   31 Atom    -14.724931     -0.001327      0.002198     -0.000609
   32 Atom     -1.099590     -0.002107      0.010265      0.025724
   33 Atom     -1.108164      0.014960      0.024249     -0.011839
   34 Atom    -14.730575     -0.002595     -0.001887     -0.000391
   35 Atom     -1.115417     -0.000446      0.002342     -0.027931
   36 Atom     -1.115908     -0.016738      0.025464      0.009173
   37 Atom    -14.717443     -0.001765     -0.003507     -0.001774
   38 Atom     -1.103013     -0.007579     -0.005008      0.031780
   39 Atom    -22.313697     -0.050979     -0.052506     -0.089195
   40 Atom     -0.999901     -0.012670     -0.005971      0.042910
   41 Atom    -14.724224     -0.002292      0.000479      0.000116
   42 Atom     -1.118440      0.004970      0.003272     -0.028699
   43 Atom    -14.729162     -0.000937     -0.000594     -0.001770
   44 Atom     -1.116861     -0.001567     -0.000513      0.031738
   45 Atom    -14.691966      0.018743      0.012218     -0.002812
   46 Atom     -1.127349      0.004625      0.001320     -0.032612
 -----------------------------------------------------------------
 -----------------------------------------------------
    Center         ---- Electric Field Gradient ----
                     XX            YY            ZZ
 -----------------------------------------------------
    1 Atom     -493.355751   -493.289258   -493.866901
    2 Atom    -1217.236040  -1214.840274  -1217.409369
    3 Atom     -493.110847   -493.166566   -493.378740
    4 Atom     -493.236038   -493.304086   -493.835892
    5 Atom     -492.922530   -492.937721   -492.925652
    6 Atom     -492.900560   -492.909386   -492.965292
    7 Atom     -492.696854   -492.657139   -492.682031
    8 Atom     -492.623209   -492.626515   -492.599469
    9 Atom     -492.658884   -492.606374   -492.601926
   10 Atom     -492.704552   -492.690957   -492.676304
   11 Atom     -492.570620   -492.569223   -492.584708
   12 Atom       -1.648983     -1.645767     -2.033845
   13 Atom       -1.623241     -1.633020     -2.024990
   14 Atom       -1.702219     -1.963996     -1.628384
   15 Atom       -1.625921     -1.652625     -2.019380
   16 Atom       -1.747051     -1.847131     -1.719043
   17 Atom       -1.642833     -2.017101     -1.672013
   18 Atom       -1.684152     -1.936668     -1.613396
   19 Atom       -1.629946     -1.628837     -2.062998
   20 Atom       -1.685257     -1.752833     -1.851897
   21 Atom       -1.815548     -1.623480     -1.852220
   22 Atom       -1.811588     -1.761887     -1.688909
   23 Atom       -1.645365     -1.985572     -1.604483
   24 Atom       -1.911842     -1.603319     -1.736124
   25 Atom     -492.711484   -492.716286   -492.722181
   26 Atom       -1.602106     -1.605744     -2.014386
   27 Atom       -1.740129     -1.877702     -1.638439
   28 Atom     -492.619390   -492.596913   -492.575497
   29 Atom       -1.686615     -1.911700     -1.716265
   30 Atom       -1.621738     -1.626672     -2.019800
   31 Atom     -492.590943   -492.620238   -492.610021
   32 Atom       -1.599874     -1.610786     -1.992032
   33 Atom       -1.721513     -1.885882     -1.687028
   34 Atom     -492.687571   -492.635322   -492.647209
   35 Atom       -1.620347     -1.618651     -2.032024
   36 Atom       -1.736720     -1.915882     -1.670882
   37 Atom     -492.749525   -492.791479   -492.770516
   38 Atom       -1.624476     -1.623483     -2.024856
   39 Atom    -1214.364837  -1213.733816  -1215.190630
   40 Atom       -1.479321     -1.444179     -2.088504
   41 Atom     -492.823939   -492.782902   -492.792579
   42 Atom       -1.639522     -1.641239     -2.015550
   43 Atom     -492.767834   -492.794002   -492.787301
   44 Atom       -1.637604     -1.635502     -2.051850
   45 Atom     -492.935478   -492.890021   -492.644771
   46 Atom       -1.689043     -1.670891     -2.082902
 -----------------------------------------------------
 -----------------------------------------------------
    Center         ---- Electric Field Gradient ----
                     XY            XZ            YZ
 -----------------------------------------------------
    1 Atom       -0.076851     -0.170221     -0.222978
    2 Atom       -0.280702     -0.028267     -0.904340
    3 Atom       -0.022200     -0.073346     -0.039442
    4 Atom       -0.015587     -0.156742     -0.045697
    5 Atom        0.010624     -0.003749      0.002986
    6 Atom       -0.002206      0.020979      0.021279
    7 Atom        0.010415     -0.014274     -0.017462
    8 Atom       -0.022032     -0.012711      0.012867
    9 Atom       -0.005853     -0.009160     -0.021592
   10 Atom       -0.014258     -0.004197     -0.029911
   11 Atom        0.001040      0.011602      0.007627
   12 Atom       -0.004370      0.017197      0.047785
   13 Atom       -0.001231      0.021457      0.070077
   14 Atom       -0.166146      0.025140      0.048553
   15 Atom       -0.005028      0.012143      0.107237
   16 Atom        0.159271      0.104769     -0.143897
   17 Atom       -0.074713      0.024225      0.132222
   18 Atom       -0.162933      0.049725      0.095465
   19 Atom       -0.001217     -0.014072     -0.011879
   20 Atom        0.093983     -0.125024      0.176059
   21 Atom       -0.012706      0.215055      0.013396
   22 Atom        0.178172      0.124865     -0.108731
   23 Atom       -0.130963      0.012221      0.031551
   24 Atom       -0.030193     -0.200191     -0.019155
   25 Atom       -0.016157     -0.036816      0.004567
   26 Atom       -0.005811     -0.034122     -0.047518
   27 Atom        0.189712      0.065024     -0.094383
   28 Atom        0.019034     -0.003926     -0.021556
   29 Atom       -0.126981      0.072639      0.161316
   30 Atom       -0.002752     -0.027432     -0.069367
   31 Atom        0.020100     -0.023753     -0.010442
   32 Atom        0.002986      0.000297     -0.059485
   33 Atom       -0.158681      0.084143      0.139001
   34 Atom       -0.008499     -0.016487      0.024188
   35 Atom       -0.002643     -0.013761      0.006234
   36 Atom        0.173225      0.068160     -0.114141
   37 Atom       -0.024928     -0.014298      0.002151
   38 Atom        0.002601      0.046398     -0.011383
   39 Atom       -1.360763      0.700857      0.343083
   40 Atom       -0.037741      0.140905      0.040389
   41 Atom       -0.006293     -0.022026     -0.009562
   42 Atom       -0.007998      0.050965      0.053586
   43 Atom       -0.002315      0.011993     -0.001823
   44 Atom       -0.000451     -0.004676      0.001704
   45 Atom       -0.199919      0.058202      0.057907
   46 Atom       -0.008291      0.074212      0.006768
 -----------------------------------------------------
 -----------------------------------------------------
    Center         ---- Electric Field Gradient ----
                   ----       Eigenvalues       ----
 -----------------------------------------------------
    1 Atom     -493.996903   -493.305013   -493.209993
    2 Atom    -1217.722585  -1217.234060  -1214.529038
    3 Atom     -493.405518   -493.160514   -493.090121
    4 Atom     -493.878407   -493.300232   -493.197377
    5 Atom     -492.944221   -492.925081   -492.916601
    6 Atom     -492.977963   -492.904339   -492.892936
    7 Atom     -492.705527   -492.687138   -492.643360
    8 Atom     -492.646972   -492.619254   -492.582968
    9 Atom     -492.662026   -492.622826   -492.582332
   10 Atom     -492.724294   -492.695297   -492.652221
   11 Atom     -492.592881   -492.570672   -492.560998
   12 Atom       -2.040433     -1.648774     -1.639387
   13 Atom       -2.038240     -1.624036     -1.618974
   14 Atom       -2.051674     -1.622879     -1.620046
   15 Atom       -2.048835     -1.626484     -1.622606
   16 Atom       -2.057615     -1.630222     -1.625388
   17 Atom       -2.076170     -1.629144     -1.626633
   18 Atom       -2.043461     -1.604641     -1.586114
   19 Atom       -2.063781     -1.629964     -1.628036
   20 Atom       -2.051969     -1.619711     -1.618306
   21 Atom       -2.050517     -1.622701     -1.618030
   22 Atom       -2.043865     -1.611678     -1.606840
   23 Atom       -2.032814     -1.602793     -1.599813
   24 Atom       -2.045496     -1.605406     -1.600383
   25 Atom     -492.755439   -492.720444   -492.674069
   26 Atom       -2.022679     -1.601724     -1.597833
   27 Atom       -2.043167     -1.607619     -1.605483
   28 Atom     -492.631395   -492.601428   -492.558976
   29 Atom       -2.059913     -1.629481     -1.625185
   30 Atom       -2.033517     -1.620539     -1.614154
   31 Atom     -492.630753   -492.624848   -492.565600
   32 Atom       -2.001099     -1.603847     -1.597746
   33 Atom       -2.054286     -1.625006     -1.615130
   34 Atom     -492.693450   -492.664139   -492.612513
   35 Atom       -2.032575     -1.622149     -1.616298
   36 Atom       -2.066041     -1.631496     -1.625947
   37 Atom     -492.803634   -492.775095   -492.732791
   38 Atom       -2.030493     -1.623534     -1.618788
   39 Atom    -1216.094605  -1214.554177  -1212.640500
   40 Atom       -2.122855     -1.472929     -1.416220
   41 Atom     -492.837150   -492.786657   -492.775614
   42 Atom       -2.029886     -1.634185     -1.632240
   43 Atom     -492.794535   -492.792738   -492.761865
   44 Atom       -2.051910     -1.637654     -1.635393
   45 Atom     -493.127870   -492.711778   -492.630623
   46 Atom       -2.096577     -1.680474     -1.665786
 -----------------------------------------------------
 -----------------------------------------------------
    Center         ---- Electric Field Gradient ----
                       ( tensor representation )
                   3XX-RR        3YY-RR        3ZZ-RR
 -----------------------------------------------------
    1 Atom        0.148219      0.214712     -0.362931
    2 Atom       -0.740813      1.654954     -0.914142
    3 Atom        0.107871      0.052152     -0.160023
    4 Atom        0.222634      0.154586     -0.377220
    5 Atom        0.006104     -0.009087      0.002982
    6 Atom        0.024519      0.015693     -0.040212
    7 Atom       -0.018180      0.021536     -0.003356
    8 Atom       -0.006811     -0.010117      0.016929
    9 Atom       -0.036489      0.016020      0.020468
   10 Atom       -0.013948     -0.000353      0.014301
   11 Atom        0.004230      0.005628     -0.009858
   12 Atom        0.127215      0.130431     -0.257647
   13 Atom        0.137176      0.127397     -0.264573
   14 Atom        0.062647     -0.199129      0.136482
   15 Atom        0.140054      0.113350     -0.253404
   16 Atom        0.024024     -0.076056      0.052032
   17 Atom        0.134483     -0.239785      0.105302
   18 Atom        0.060586     -0.191929      0.131342
   19 Atom        0.143981      0.145090     -0.289071
   20 Atom        0.078072      0.010496     -0.088568
   21 Atom       -0.051799      0.140270     -0.088471
   22 Atom       -0.057460     -0.007759      0.065219
   23 Atom        0.099775     -0.240432      0.140657
   24 Atom       -0.161414      0.147109      0.014304
   25 Atom        0.005166      0.000365     -0.005531
   26 Atom        0.138639      0.135002     -0.273641
   27 Atom        0.011961     -0.125612      0.113651
   28 Atom       -0.022123      0.000353      0.021770
   29 Atom        0.084912     -0.140173      0.055261
   30 Atom        0.134332      0.129398     -0.263730
   31 Atom        0.016124     -0.013171     -0.002954
   32 Atom        0.134357      0.123445     -0.257802
   33 Atom        0.043295     -0.121075      0.077780
   34 Atom       -0.030870      0.021378      0.009492
   35 Atom        0.136660      0.138356     -0.275017
   36 Atom        0.037775     -0.141387      0.103612
   37 Atom        0.020982     -0.020973     -0.000009
   38 Atom        0.133129      0.134122     -0.267251
   39 Atom        0.064924      0.695945     -0.760870
   40 Atom        0.191347      0.226489     -0.417836
   41 Atom       -0.024133      0.016905      0.007228
   42 Atom        0.125915      0.124198     -0.250113
   43 Atom        0.015212     -0.010956     -0.004256
   44 Atom        0.137381      0.139484     -0.276865
   45 Atom       -0.112054     -0.066598      0.178652
   46 Atom        0.125235      0.143387     -0.268623
 -----------------------------------------------------
 -----------------------------------------------------
    Center         ---- Electric Field Gradient ----
                       ( tensor representation )
                   ----       Eigenvalues       ----
 -----------------------------------------------------
    1 Atom       -0.492933      0.198957      0.293977
    2 Atom       -1.227357     -0.738832      1.966190
    3 Atom       -0.186801      0.058204      0.128597
    4 Atom       -0.419735      0.158440      0.261295
    5 Atom       -0.015587      0.003554      0.012033
    6 Atom       -0.052884      0.020740      0.032143
    7 Atom       -0.026852     -0.008463      0.035315
    8 Atom       -0.030574     -0.002856      0.033430
    9 Atom       -0.039631     -0.000431      0.040062
   10 Atom       -0.033690     -0.004693      0.038383
   11 Atom       -0.018031      0.004178      0.013853
   12 Atom       -0.264235      0.127424      0.136811
   13 Atom       -0.277823      0.136380      0.141443
   14 Atom       -0.286808      0.141988      0.144820
   15 Atom       -0.282860      0.139491      0.143369
   16 Atom       -0.286540      0.140853      0.145687
   17 Atom       -0.298854      0.148172      0.150683
   18 Atom       -0.298723      0.140098      0.158625
   19 Atom       -0.289854      0.143963      0.145891
   20 Atom       -0.288640      0.143618      0.145022
   21 Atom       -0.286768      0.141049      0.145719
   22 Atom       -0.289737      0.142450      0.147288
   23 Atom       -0.287674      0.142347      0.145327
   24 Atom       -0.295068      0.145022      0.150045
   25 Atom       -0.038788     -0.003793      0.042581
   26 Atom       -0.281934      0.139022      0.142912
   27 Atom       -0.291077      0.144471      0.146607
   28 Atom       -0.034129     -0.004162      0.038290
   29 Atom       -0.288387      0.142045      0.146342
   30 Atom       -0.277447      0.135531      0.141916
   31 Atom       -0.023686     -0.017781      0.041467
   32 Atom       -0.266869      0.130384      0.136485
   33 Atom       -0.289479      0.139801      0.149677
   34 Atom       -0.036749     -0.007439      0.044188
   35 Atom       -0.275568      0.134858      0.140709
   36 Atom       -0.291546      0.142999      0.148547
   37 Atom       -0.033128     -0.004589      0.037716
   38 Atom       -0.272888      0.134071      0.138817
   39 Atom       -1.664845     -0.124416      1.789261
   40 Atom       -0.452187      0.197739      0.254448
   41 Atom       -0.037343      0.013150      0.024193
   42 Atom       -0.264449      0.131252      0.133197
   43 Atom       -0.011489     -0.009692      0.021181
   44 Atom       -0.276924      0.137332      0.139593
   45 Atom       -0.304446      0.111645      0.192801
   46 Atom       -0.282298      0.133805      0.148493
 -----------------------------------------------------
 Unable to Open any file for archive entry.
 1\1\GINC-MIKE064\SP\RwB97XD\6-31G(d)\C18H26O2\ARKANIL\24-May-2026\0\\#
  wb97xd/6-31g(d) prop=efg\\19NT_md_min_distance_cutoff7_nowat\\0,1\C,0
 ,2.184908,-2.116269,-0.20702\O,0,2.818151,-2.776063,-1.06219\C,0,2.146
 766,-0.689369,-0.225558\C,0,1.421781,0.002009,0.692687\C,0,-1.816261,2
 .372831,2.403932\C,0,-2.893712,1.676005,3.259622\C,0,-3.237116,0.32690
 8,2.628851\C,0,-1.974551,-0.54025,2.505657\C,0,-1.712174,3.763602,3.02
 9805\C,0,-3.186363,4.097432,3.348689\C,0,-2.478223,1.47029,4.728646\H,
 0,-2.275265,2.504166,1.406955\H,0,-3.65961,0.494541,1.625793\H,0,-3.99
 6338,-0.202185,3.215778\H,0,-1.602298,-0.805497,3.504641\H,0,-2.246145
 ,-1.485723,2.023947\H,0,-1.229144,4.497817,2.384951\H,0,2.823105,-0.18
 3339,-0.911878\H,0,-1.10578,3.720188,3.939885\H,0,-3.583505,4.879961,2
 .692922\H,0,-3.307546,4.459116,4.377576\H,0,-2.414355,2.410851,5.28738
 \H,0,-3.207083,0.822087,5.230469\H,0,-1.498857,0.992097,4.816262\C,0,1
 .49699,-2.838887,0.912182\H,0,2.187037,-2.836503,1.768469\H,0,1.321651
 ,-3.874457,0.612853\C,0,0.200385,-2.132924,1.281038\H,0,-0.271339,-2.6
 51719,2.121104\H,0,-0.498485,-2.19387,0.433144\C,0,1.61654,1.463331,0.
 8682\H,0,2.265888,1.54079,1.763127\H,0,2.185541,1.882714,0.03402\C,0,0
 .335553,2.255186,1.115817\H,0,-0.245396,2.340736,0.183706\H,0,0.60009,
 3.272157,1.416176\C,0,0.448089,-0.667067,1.635866\H,0,0.953005,-0.6164
 07,2.615336\O,0,-5.108848,2.647177,4.011808\H,0,-4.799453,2.668561,4.9
 26569\C,0,-0.862525,0.15149,1.700045\H,0,-1.24332,0.240347,0.665401\C,
 0,-0.541629,1.583357,2.174285\H,0,0.031371,1.526174,3.112102\C,0,-3.97
 6525,2.769833,3.16695\H,0,-4.400496,2.719172,2.16061\\Version=ES64L-G1
 6RevC.01\State=1-A\HF=-851.7899412\RMSD=5.145e-09\Dipole=-0.3480858,1.
 1612353,1.4563793\Quadrupole=-8.2175046,3.3296662,4.8878384,13.062386,
 10.4798272,-9.85816\PG=C01 [X(C18H26O2)]\\@
 The archive entry for this job was punched.


 BOOKS ARE LIGHTHOUSES ERECTED IN THE GREAT SEA OF TIME.
     -- E.P.WHIPPLE
 Job cpu time:       0 days  0 hours 16 minutes 55.6 seconds.
 Elapsed time:       0 days  0 hours  0 minutes 16.2 seconds.
 File lengths (MBytes):  RWF=     71 Int=      0 D2E=      0 Chk=      8 Scr=      1
 Normal termination of Gaussian 16 at Sun May 24 21:30:23 2026.
