 Entering Gaussian System, Link 0=g16
 Initial command:
 /cm/shared/apps/spack/cpu/opt/spack/linux-centos8-zen/gcc-8.3.1/gaussian-16.C.01-po5bqktfeugvmjyga3v7eigbecnokxng/g16/l1.exe "/scratch/hklem/job_32090250/Gau-2090929.inp" -scrdir="/scratch/hklem/job_32090250/"
 Entering Link 1 = /cm/shared/apps/spack/cpu/opt/spack/linux-centos8-zen/gcc-8.3.1/gaussian-16.C.01-po5bqktfeugvmjyga3v7eigbecnokxng/g16/l1.exe PID=   2090932.
  
 Copyright (c) 1988-2019, Gaussian, Inc.  All Rights Reserved.
  
 This is part of the Gaussian(R) 16 program.  It is based on
 the Gaussian(R) 09 system (copyright 2009, Gaussian, Inc.),
 the Gaussian(R) 03 system (copyright 2003, Gaussian, Inc.),
 the Gaussian(R) 98 system (copyright 1998, Gaussian, Inc.),
 the Gaussian(R) 94 system (copyright 1995, Gaussian, Inc.),
 the Gaussian 92(TM) system (copyright 1992, Gaussian, Inc.),
 the Gaussian 90(TM) system (copyright 1990, Gaussian, Inc.),
 the Gaussian 88(TM) system (copyright 1988, Gaussian, Inc.),
 the Gaussian 86(TM) system (copyright 1986, Carnegie Mellon
 University), and the Gaussian 82(TM) system (copyright 1983,
 Carnegie Mellon University). Gaussian is a federally registered
 trademark of Gaussian, Inc.
  
 This software contains proprietary and confidential information,
 including trade secrets, belonging to Gaussian, Inc.
  
 This software is provided under written license and may be
 used, copied, transmitted, or stored only in accord with that
 written license.
  
 The following legend is applicable only to US Government
 contracts under FAR:
  
                    RESTRICTED RIGHTS LEGEND
  
 Use, reproduction and disclosure by the US Government is
 subject to restrictions as set forth in subparagraphs (a)
 and (c) of the Commercial Computer Software - Restricted
 Rights clause in FAR 52.227-19.
  
 Gaussian, Inc.
 340 Quinnipiac St., Bldg. 40, Wallingford CT 06492
  
  
 ---------------------------------------------------------------
 Warning -- This program may not be used in any manner that
 competes with the business of Gaussian, Inc. or will provide
 assistance to any competitor of Gaussian, Inc.  The licensee
 of this program is prohibited from giving any competitor of
 Gaussian, Inc. access to this program.  By using this program,
 the user acknowledges that Gaussian, Inc. is engaged in the
 business of creating and licensing software in the field of
 computational chemistry and represents and warrants to the
 licensee that it is not a competitor of Gaussian, Inc. and that
 it will not use this program in any manner prohibited above.
 ---------------------------------------------------------------
  

 Cite this work as:
 Gaussian 16, Revision C.01,
 M. J. Frisch, G. W. Trucks, H. B. Schlegel, G. E. Scuseria, 
 M. A. Robb, J. R. Cheeseman, G. Scalmani, V. Barone, 
 G. A. Petersson, H. Nakatsuji, X. Li, M. Caricato, A. V. Marenich, 
 J. Bloino, B. G. Janesko, R. Gomperts, B. Mennucci, H. P. Hratchian, 
 J. V. Ortiz, A. F. Izmaylov, J. L. Sonnenberg, D. Williams-Young, 
 F. Ding, F. Lipparini, F. Egidi, J. Goings, B. Peng, A. Petrone, 
 T. Henderson, D. Ranasinghe, V. G. Zakrzewski, J. Gao, N. Rega, 
 G. Zheng, W. Liang, M. Hada, M. Ehara, K. Toyota, R. Fukuda, 
 J. Hasegawa, M. Ishida, T. Nakajima, Y. Honda, O. Kitao, H. Nakai, 
 T. Vreven, K. Throssell, J. A. Montgomery, Jr., J. E. Peralta, 
 F. Ogliaro, M. J. Bearpark, J. J. Heyd, E. N. Brothers, K. N. Kudin, 
 V. N. Staroverov, T. A. Keith, R. Kobayashi, J. Normand, 
 K. Raghavachari, A. P. Rendell, J. C. Burant, S. S. Iyengar, 
 J. Tomasi, M. Cossi, J. M. Millam, M. Klene, C. Adamo, R. Cammi, 
 J. W. Ochterski, R. L. Martin, K. Morokuma, O. Farkas, 
 J. B. Foresman, and D. J. Fox, Gaussian, Inc., Wallingford CT, 2019.
 
 ******************************************
 Gaussian 16:  ES64L-G16RevC.01  3-Jul-2019
                11-Jul-2024 
 ******************************************
 %nprocshared=32
 Will use up to   32 processors via shared memory.
 %mem=64GB
 --------------------------
 # wb97xd/6-31G(d) prop=efg
 --------------------------
 1/38=1,172=1/1;
 2/12=2,17=6,18=5,40=1/2;
 3/5=1,6=6,7=1,11=2,25=1,30=1,74=-58/1,2,3;
 4//1;
 5/5=2,38=5/2;
 6/7=2,8=2,9=2,10=2,14=1,28=1/1,2;
 99/5=1,9=1/99;
 ---------------------------------------------
 19nt_mm_min_distance_cutoff3_nowat_xtb_conf_1
 ---------------------------------------------
 Symbolic Z-matrix:
 Charge = -1 Multiplicity = 1
 H                     46.8576   33.6601   30.8677 
 C                     46.354    34.588    30.601 
 H                     46.5041   34.7734   29.5398 
 C                     44.8603   34.5063   30.9159 
 H                     44.4161   33.6838   30.3504 
 H                     44.7275   34.2982   31.9803 
 C                     44.1817   35.7993   30.5604 
 C                     43.6247   35.9921   29.3031 
 H                     43.6467   35.1859   28.5822 
 C                     43.0381   37.1931   28.9598 
 H                     42.6007   37.3405   27.984 
 C                     42.9968   38.2415   29.8777 
 O                     42.4076   39.3964   29.5176 
 H                     42.4423   40.0367   30.2746 
 C                     43.565    38.0585   31.1363 
 H                     43.5387   38.8695   31.849 
 C                     44.1481   36.8517   31.4657 
 H                     44.5824   36.7235   32.4479 
 H                     46.8113   35.4036   31.1565 
 H                     48.9383   38.6054   26.5813 
 C                     48.063    39.251    26.62 
 H                     47.4201   39.0094   25.7755 
 C                     47.305    39.0552   27.9335 
 H                     47.9785   39.3053   28.7614 
 C                     46.0913   39.9775   28.0014 
 H                     46.3911   41.0181   27.898 
 H                     45.3906   39.7361   27.205 
 H                     45.5761   39.8584   28.9512 
 C                     46.8659   37.6018   28.0891 
 H                     46.3219   37.4662   29.0207 
 H                     47.7268   36.9354   28.0875 
 H                     46.2072   37.3172   27.2709 
 H                     48.3921   40.2831   26.5192 
 H                     36.2105   47.2312   32.5637 
 C                     37.164    46.712    32.465 
 H                     36.9697   45.6568   32.2801 
 C                     37.9934   47.3043   31.3309 
 H                     38.119    48.38     31.494 
 H                     37.5035   47.1555   30.3667 
 C                     39.417    46.6842   31.2556 
 O                     40.0664   46.6437   32.3251 
 O                     39.8141   46.305    30.1467 
 H                     37.7112   46.7981   33.4019 
 H                     42.5367   47.0923   22.5818 
 C                     43.019    47.115    23.555 
 H                     42.4695   46.4786   24.2454 
 H                     43.0284   48.1261   23.9483 
 C                     44.4668   46.6157   23.4734 
 O                     45.3557   47.0943   24.1472 
 N                     44.702    45.6071   22.5915 
 H                     43.92     45.1932   22.1079 
 C                     45.983    44.912    22.455 
 H                     46.7019   45.4773   23.0468 
 C                     45.8954   43.4624   22.9357 
 H                     45.2545   42.9009   22.2491 
 H                     46.8955   43.0267   22.8853 
 C                     45.3438   43.3059   24.3589 
 H                     44.3469   43.7597   24.3959 
 C                     45.2064   41.8224   24.6956 
 H                     44.7477   41.6997   25.673 
 H                     44.588    41.3108   23.9603 
 H                     46.1845   41.3464   24.7148 
 C                     46.2228   44.0012   25.3943 
 H                     47.2472   43.6394   25.3314 
 H                     46.2185   45.0776   25.2491 
 H                     45.8479   43.7968   26.3945 
 H                     46.2857   44.9397   21.4034 
 H                     51.5065   46.0637   23.6759 
 C                     51.26     46.169    24.731 
 H                     51.6088   47.1405   25.0687 
 C                     49.7517   46.0336   24.9463 
 H                     49.4427   45.0409   24.5971 
 C                     49.4068   46.1499   26.4282 
 H                     49.9229   45.3864   27.0063 
 H                     49.7005   47.1246   26.8098 
 H                     48.337    46.0308   26.5794 
 C                     48.9932   47.0837   24.138 
 H                     49.3096   48.0839   24.4247 
 H                     49.1804   46.9592   23.0727 
 H                     47.9222   47.0146   24.3136 
 H                     51.7949   45.4004   25.2855 
 H                     49.3698   43.2392   37.5688 
 C                     50.213    42.685    37.162 
 H                     50.9224   42.4898   37.9638 
 C                     49.732    41.375    36.5349 
 H                     50.5929   40.8308   36.1383 
 H                     49.267    40.7581   37.3075 
 C                     48.743    41.6343   35.4311 
 C                     49.1787   41.8612   34.132 
 H                     50.2381   41.8321   33.9132 
 C                     48.2726   42.1137   33.117 
 H                     48.6273   42.2792   32.1093 
 C                     46.9159   42.1465   33.3897 
 H                     46.206    42.3389   32.5988 
 C                     46.4693   41.9298   34.6826 
 H                     45.4128   41.957    34.8997 
 C                     47.3799   41.6771   35.6936 
 H                     47.0275   41.5033   36.7015 
 H                     50.697    43.307    36.412 
 H                     50.6634   45.9334   32.3131 
 C                     50.84     46.417    31.354 
 H                     51.541    45.8091   30.7857 
 C                     49.5252   46.5766   30.5929 
 H                     49.7387   47.073    29.6396 
 C                     48.8997   45.2141   30.3076 
 H                     48.6538   44.7118   31.2412 
 H                     49.5856   44.584    29.7447 
 H                     47.9859   45.3259   29.7284 
 C                     48.5538   47.4447   31.3877 
 H                     48.3056   46.965    32.3325 
 H                     47.6302   47.5963   30.8323 
 H                     48.9964   48.4158   31.5958 
 H                     51.2956   47.3884   31.5338 
 H                     52.7418   50.8851   27.1409 
 C                     52.401    50.618    26.143 
 H                     53.211    50.1141   25.6209 
 C                     51.1828   49.7112   26.2338 
 H                     51.4612   48.7885   26.7474 
 H                     50.8493   49.4582   25.2237 
 C                     50.0145   50.3445   26.9717 
 H                     49.7923   51.3378   26.5776 
 H                     49.1265   49.7164   26.8871 
 S                     50.3598   50.5153   28.7631 
 C                     48.6597   50.7832   29.3333 
 H                     48.2326   51.6365   28.8136 
 H                     48.0677   49.89     29.1534 
 H                     48.7109   50.9856   30.3982 
 H                     52.1583   51.5325   25.6052 
 H                     50.2754   51.3802   33.4536 
 C                     49.755    50.767    34.187 
 H                     49.9049   51.2128   35.1672 
 C                     48.2735   50.6703   33.8448 
 H                     48.1742   50.2788   32.8299 
 H                     47.8276   51.6679   33.8566 
 C                     47.4879   49.7567   34.7922 
 H                     48.0472   48.8222   34.9136 
 C                     47.3068   50.396    36.1664 
 H                     48.2663   50.6104   36.6309 
 H                     46.7504   51.3275   36.0785 
 H                     46.7559   49.7273   36.8237 
 C                     46.1293   49.4265   34.1805 
 H                     46.2581   48.9059   33.2345 
 H                     45.5566   50.3346   34.0016 
 H                     45.5497   48.7895   34.8421 
 H                     50.2083   49.7777   34.1865 
 H                     47.3301   46.5938   37.2327 
 C                     46.253    46.438    37.253 
 H                     45.7695   47.3524   36.9157 
 C                     45.8571   45.2711   36.3488 
 H                     46.3487   44.3622   36.715 
 C                     44.3465   45.0551   36.386 
 H                     44.0672   44.1801   35.8047 
 H                     44.0065   44.9074   37.4099 
 H                     43.8341   45.9239   35.9764 
 C                     46.3239   45.5237   34.9182 
 H                     46.0687   44.6807   34.2819 
 H                     47.404    45.6587   34.8865 
 H                     45.8518   46.4172   34.5166 
 H                     45.9518   46.2502   38.2821 
 H                     43.3093   40.7635   37.6038 
 C                     42.317    41.201    37.522 
 H                     42.4271   42.282    37.4868 
 C                     41.6241   40.7123   36.2576 
 H                     41.5441   39.6242   36.2385 
 H                     40.6105   41.1176   36.1997 
 C                     42.3308   41.1542   34.9887 
 O                     43.177    42.0147   34.9472 
 O                     41.8943   40.4904   33.9396 
 H                     42.2762   40.8168   33.0663 
 H                     41.739    40.9301   38.4023 
 H                     39.0124   45.1728   36.0913 
 C                     39.963    44.652    35.992 
 H                     39.9698   43.8161   36.6911 
 C                     40.1662   44.1696   34.5636 
 H                     41.1366   43.692    34.4587 
 H                     40.118    45.       33.8637 
 H                     39.3983   43.4482   34.2893 
 H                     40.7582   45.3361   36.2794 
 H                     41.7023   49.4258   37.9806 
 C                     42.518    50.112    37.763 
 H                     43.1347   50.2141   38.655 
 C                     43.3458   49.593    36.5871 
 H                     44.172    50.2821   36.4011 
 H                     43.7614   48.617    36.85 
 C                     42.5101   49.4635   35.3556 
 C                     41.8332   48.3519   34.9332 
 H                     41.8141   47.369    35.3646 
 N                     41.1118   48.6178   33.8112 
 H                     40.5937   47.9131   33.2668 
 C                     41.3166   49.9131   33.4661 
 C                     40.8058   50.6528   32.405 
 H                     40.1358   50.1967   31.6909 
 C                     41.1876   51.9725   32.2978 
 H                     40.8081   52.577    31.4844 
 C                     42.0606   52.5529   33.2243 
 H                     42.3379   53.5914   33.1008 
 C                     42.5652   51.8315   34.2825 
 H                     43.2355   52.2942   34.9943 
 C                     42.1956   50.4939   34.4219 
 H                     42.0907   51.0831   37.5218 
 C                     42.5817   42.3968   31.0934 
 O                     42.6039   41.2143   31.4991 
 C                     42.9529   43.496    31.9061 
 C                     42.9117   44.7882   31.4792 
 C                     42.5886   45.1498   30.0772 
 C                     42.7756   43.9466   29.151 
 C                     42.0732   42.7224   29.7176 
 C                     43.0419   45.89     32.4559 
 C                     43.8492   47.073    31.9323 
 C                     43.2654   47.5282   30.6 
 C                     43.362    46.3872   29.5752 
 C                     43.9906   48.7374   30.0251 
 C                     43.335    49.2351   28.7287 
 C                     43.4567   48.1258   27.6881 
 C                     42.8298   46.8263   28.203 
 C                     44.1226   49.9986   30.879 
 C                     44.4062   51.1135   29.8571 
 C                     44.1885   50.4963   28.4528 
 C                     41.8686   49.6433   28.8982 
 O                     43.6617   51.4068   27.521 
 H                     43.2179   43.2799   32.9329 
 H                     41.5115   45.4434   30.0882 
 H                     43.8453   43.7359   29.041 
 H                     42.3676   44.1589   28.1634 
 H                     41.0054   42.9442   29.8238 
 H                     42.174    41.8582   29.0582 
 H                     43.435    45.5286   33.4061 
 H                     42.0022   46.2259   32.6148 
 H                     44.897    46.7827   31.8052 
 H                     43.8087   47.8882   32.6561 
 H                     42.214    47.7663   30.7674 
 H                     44.422    46.1154   29.4673 
 H                     45.0077   48.4141   29.7612 
 H                     44.5127   47.953    27.4639 
 H                     42.9716   48.4201   26.755 
 H                     41.7473   46.9328   28.2766 
 H                     43.0384   46.0482   27.4664 
 H                     44.9271   49.9131   31.6056 
 H                     43.2008   50.1887   31.4256 
 H                     45.4208   51.5001   29.9528 
 H                     43.7248   51.955    29.9944 
 H                     45.148    50.194    28.0197 
 H                     41.7647   50.4507   29.6188 
 H                     41.4654   49.9661   27.9378 
 H                     41.2634   48.8103   29.2388 
 H                     42.7878   51.6671   27.8351 
 
 Stoichiometry    C84H151N2O8S(1-)
 Framework group  C1[X(C84H151N2O8S)]
 Deg. of freedom   732
 Full point group                 C1      NOp   1
 Largest Abelian subgroup         C1      NOp   1
 Largest concise Abelian subgroup C1      NOp   1
                         Standard orientation:                         
 ---------------------------------------------------------------------
 Center     Atomic      Atomic             Coordinates (Angstroms)
 Number     Number       Type             X           Y           Z
 ---------------------------------------------------------------------
      1          1           0       11.565261    0.876533    2.382532
      2          6           0       10.674094    0.889545    1.756919
      3          1           0       10.506800    1.906695    1.409833
      4          6           0       10.832053   -0.054949    0.565300
      5          1           0       11.692001    0.257225   -0.031899
      6          1           0       11.020950   -1.067228    0.930673
      7          6           0        9.588536   -0.041012   -0.278618
      8          6           0        9.458556    0.838253   -1.345492
      9          1           0       10.279796    1.496431   -1.595502
     10          6           0        8.301377    0.882324   -2.096059
     11          1           0        8.203016    1.562469   -2.928500
     12          6           0        7.234617    0.038329   -1.790960
     13          8           0        6.124013    0.096436   -2.548459
     14          1           0        5.464270   -0.568474   -2.221546
     15          6           0        7.354152   -0.837162   -0.714094
     16          1           0        6.528566   -1.489912   -0.471857
     17          6           0        8.517661   -0.870310    0.027543
     18          1           0        8.596875   -1.557621    0.858865
     19          1           0        9.820541    0.592164    2.361831
     20          1           0        6.617942    5.626926    2.041454
     21          6           0        6.021947    5.202171    1.235960
     22          1           0        6.320188    5.674608    0.301761
     23          6           0        6.227653    3.689306    1.151658
     24          1           0        5.919613    3.245295    2.105354
     25          6           0        5.373835    3.087498    0.039391
     26          1           0        4.320863    3.310160    0.197797
     27          1           0        5.673946    3.491188   -0.925220
     28          1           0        5.498286    2.008070    0.006491
     29          6           0        7.699205    3.359259    0.917143
     30          1           0        7.842197    2.283416    0.851436
     31          1           0        8.315856    3.744435    1.727465
     32          1           0        8.040605    3.801239   -0.016898
     33          1           0        4.975743    5.435522    1.422249
     34          1           0       -1.421882   -5.404681   -7.224360
     35          6           0       -0.954973   -4.891829   -6.383259
     36          1           0        0.113747   -4.809266   -6.574072
     37          6           0       -1.564884   -3.509220   -6.180018
     38          1           0       -2.649653   -3.602774   -6.061570
     39          1           0       -1.364933   -2.861908   -7.036074
     40          6           0       -1.024341   -2.808549   -4.901853
     41          8           0       -1.046942   -3.478952   -3.844857
     42          8           0       -0.640849   -1.637480   -5.014416
     43          1           0       -1.094897   -5.489079   -5.484184
     44          1           0       -1.393241    6.347901   -5.977592
     45          6           0       -1.467124    5.689513   -5.116596
     46          1           0       -0.818012    4.828843   -5.263251
     47          1           0       -2.486553    5.338288   -4.996173
     48          6           0       -1.048361    6.406218   -3.827001
     49          8           0       -1.592802    6.195201   -2.762922
     50          7           0       -0.033144    7.303833   -3.945163
     51          1           0        0.435996    7.391609   -4.833368
     52          6           0        0.591806    7.996322   -2.817044
     53          1           0       -0.027563    7.783151   -1.946671
     54          6           0        2.031721    7.530792   -2.593410
     55          1           0        2.645243    7.863513   -3.436228
     56          1           0        2.411469    8.020783   -1.694369
     57          6           0        2.183858    6.011039   -2.446925
     58          1           0        1.786196    5.534424   -3.350151
     59          6           0        3.663974    5.652578   -2.329523
     60          1           0        3.788151    4.573483   -2.299441
     61          1           0        4.227625    6.038783   -3.176850
     62          1           0        4.083466    6.070548   -1.416862
     63          6           0        1.414753    5.470924   -1.244890
     64          1           0        1.719681    5.982685   -0.334191
     65          1           0        0.344223    5.596070   -1.379209
     66          1           0        1.615189    4.408796   -1.124730
     67          1           0        0.573075    9.073002   -3.013685
     68          1           0       -0.899206    9.348610    2.593526
     69          6           0       -1.016477    8.293339    2.833811
     70          1           0       -2.014138    8.142593    3.235636
     71          6           0       -0.801636    7.431790    1.588326
     72          1           0        0.215226    7.610556    1.218313
     73          6           0       -0.934883    5.950322    1.928926
     74          1           0       -0.216201    5.663288    2.693517
     75          1           0       -1.933716    5.735783    2.300708
     76          1           0       -0.759443    5.340663    1.046285
     77          6           0       -1.787025    7.816809    0.487349
     78          1           0       -2.810245    7.697320    0.835843
     79          1           0       -1.646996    8.854976    0.190684
     80          1           0       -1.662026    7.184607   -0.388633
     81          1           0       -0.293182    8.035810    3.605081
     82          1           0        1.697178   -4.042580    7.008363
     83          6           0        2.212849   -3.302413    7.616512
     84          1           0        2.347886   -3.705833    8.618137
     85          6           0        3.562969   -2.949954    6.989086
     86          1           0        4.067410   -2.211107    7.616970
     87          1           0        4.185824   -3.846875    6.953218
     88          6           0        3.387173   -2.400059    5.599682
     89          6           0        3.168237   -1.043138    5.400157
     90          1           0        3.142973   -0.377080    6.252669
     91          6           0        2.992362   -0.536042    4.124649
     92          1           0        2.832076    0.523961    3.985491
     93          6           0        3.029359   -1.382279    3.029847
     94          1           0        2.896875   -0.988842    2.032775
     95          6           0        3.238882   -2.738507    3.216250
     96          1           0        3.265921   -3.401749    2.365696
     97          6           0        3.414802   -3.240021    4.494024
     98          1           0        3.583237   -4.299159    4.635839
     99          1           0        1.583274   -2.417335    7.679070
    100          1           0       -0.934998    1.233902    5.672367
    101          6           0       -1.403942    2.170443    5.375868
    102          1           0       -0.822668    2.992440    5.788602
    103          6           0       -1.470329    2.268976    3.852934
    104          1           0       -1.954272    3.216648    3.591223
    105          6           0       -0.068107    2.251154    3.250847
    106          1           0        0.424038    1.306785    3.475215
    107          1           0        0.536043    3.061678    3.653830
    108          1           0       -0.113880    2.364650    2.170094
    109          6           0       -2.301664    1.123302    3.282639
    110          1           0       -1.832223    0.167810    3.508521
    111          1           0       -2.387197    1.211006    2.201214
    112          1           0       -3.301011    1.130314    3.710998
    113          1           0       -2.403623    2.208585    5.803304
    114          1           0       -5.866692    6.777161    4.936562
    115          6           0       -5.556238    7.521145    4.206222
    116          1           0       -5.086052    8.349782    4.730522
    117          6           0       -4.584735    6.902057    3.212515
    118          1           0       -3.692164    6.567862    3.745709
    119          1           0       -4.288464    7.660174    2.482435
    120          6           0       -5.169211    5.720722    2.455332
    121          1           0       -6.138369    5.972539    2.020988
    122          1           0       -4.490159    5.404492    1.662176
    123         16           0       -5.403404    4.267830    3.547018
    124          6           0       -5.589055    3.001976    2.262345
    125          1           0       -6.403825    3.275885    1.597705
    126          1           0       -4.659735    2.903203    1.708049
    127          1           0       -5.820263    2.069682    2.767289
    128          1           0       -6.442039    7.892888    3.694748
    129          1           0       -6.377778    0.024030    5.495535
    130          6           0       -5.754525   -0.862340    5.392526
    131          1           0       -6.232143   -1.675642    5.933284
    132          6           0       -5.566049   -1.212450    3.921746
    133          1           0       -5.144623   -0.345761    3.407544
    134          1           0       -6.536916   -1.423653    3.466793
    135          6           0       -4.633303   -2.407381    3.694755
    136          1           0       -3.735099   -2.265445    4.306251
    137          6           0       -5.295131   -3.721171    4.102026
    138          1           0       -5.574682   -3.712531    5.152808
    139          1           0       -6.191332   -3.891837    3.508143
    140          1           0       -4.612884   -4.552704    3.941445
    141          6           0       -4.212040   -2.460773    2.228914
    142          1           0       -3.676318   -1.554297    1.957193
    143          1           0       -5.081719   -2.557042    1.581591
    144          1           0       -3.559922   -3.308979    2.042618
    145          1           0       -4.792638   -0.658006    5.858592
    146          1           0       -1.527792   -4.655622    4.828815
    147          6           0       -1.312078   -5.151093    3.883931
    148          1           0       -2.189159   -5.065852    3.245862
    149          6           0       -0.102738   -4.512949    3.201115
    150          1           0        0.767684   -4.620515    3.858890
    151          6           0        0.197080   -5.215664    1.879656
    152          1           0        1.100524   -4.816041    1.426189
    153          1           0        0.338371   -6.283717    2.038043
    154          1           0       -0.631073   -5.078310    1.186522
    155          6           0       -0.345830   -3.024450    2.969594
    156          1           0        0.525675   -2.564935    2.511359
    157          1           0       -0.540672   -2.517371    3.913391
    158          1           0       -1.201105   -2.876462    2.314531
    159          1           0       -1.133078   -6.206483    4.081792
    160          1           0        4.508924   -6.754857    1.755020
    161          6           0        4.130206   -7.122909    0.804301
    162          1           0        3.045918   -7.045625    0.820742
    163          6           0        4.688270   -6.295603   -0.345384
    164          1           0        5.779288   -6.310850   -0.358510
    165          1           0        4.342300   -6.694431   -1.302592
    166          6           0        4.238720   -4.846169   -0.302346
    167          8           0        3.333179   -4.436126    0.383291
    168          8           0        4.951781   -4.097605   -1.116575
    169          1           0        4.626047   -3.146456   -1.181776
    170          1           0        4.411425   -8.167466    0.693781
    171          1           0        0.387543   -7.317696   -3.029367
    172          6           0        0.856227   -6.805588   -2.191027
    173          1           0        1.672890   -7.426750   -1.823962
    174          6           0        1.361546   -5.433869   -2.612177
    175          1           0        1.786134   -4.908084   -1.761262
    176          1           0        0.552726   -4.830337   -3.016289
    177          1           0        2.131637   -5.526545   -3.376179
    178          1           0        0.121502   -6.712439   -1.394511
    179          1           0       -4.055686   -7.830131   -0.048065
    180          6           0       -4.781187   -7.275286    0.543020
    181          1           0       -4.939889   -7.801515    1.483394
    182          6           0       -4.280782   -5.852739    0.794635
    183          1           0       -5.010550   -5.321567    1.408928
    184          1           0       -3.336552   -5.901239    1.342808
    185          6           0       -4.074000   -5.119285   -0.490294
    186          6           0       -2.915919   -5.037746   -1.214496
    187          1           0       -1.944462   -5.430046   -0.980113
    188          7           0       -3.112936   -4.352869   -2.373001
    189          1           0       -2.366920   -4.092721   -3.034200
    190          6           0       -4.408799   -3.956448   -2.422265
    191          6           0       -5.092093   -3.234103   -3.394548
    192          1           0       -4.581452   -2.889944   -4.282054
    193          6           0       -6.428164   -2.972467   -3.181635
    194          1           0       -6.990034   -2.413502   -3.918467
    195          6           0       -7.079558   -3.417311   -2.026129
    196          1           0       -8.128669   -3.186608   -1.896621
    197          6           0       -6.414109   -4.139858   -1.061801
    198          1           0       -6.931297   -4.481842   -0.175451
    199          6           0       -5.061655   -4.424892   -1.248441
    200          1           0       -5.720403   -7.251410   -0.005707
    201          6           0        3.080559   -1.247261   -1.879336
    202          8           0        4.249544   -1.597639   -1.607121
    203          6           0        1.942443   -1.814160   -1.254972
    204          6           0        0.665561   -1.453524   -1.560315
    205          6           0        0.357492   -0.341312   -2.492426
    206          6           0        1.570751    0.575186   -2.661357
    207          6           0        2.818225   -0.240659   -2.963470
    208          6           0       -0.465617   -2.274306   -1.079055
    209          6           0       -1.678944   -1.450355   -0.661536
    210          6           0       -2.067463   -0.516509   -1.801728
    211          6           0       -0.908755    0.448088   -2.099009
    212          6           0       -3.301046    0.316931   -1.481975
    213          6           0       -3.728824    1.186635   -2.673105
    214          6           0       -2.602780    2.176434   -2.956880
    215          6           0       -1.283127    1.440627   -3.209725
    216          6           0       -4.588389   -0.393450   -1.063286
    217          6           0       -5.691917    0.645025   -1.330695
    218          6           0       -5.028926    1.808850   -2.109374
    219          6           0       -4.057783    0.383161   -3.934811
    220          8           0       -5.884988    2.407722   -3.049209
    221          1           0        2.117832   -2.616282   -0.549932
    222          1           0        0.124888   -0.829736   -3.469055
    223          1           0        1.723475    1.148820   -1.740286
    224          1           0        1.406247    1.278761   -3.476716
    225          1           0        2.654409   -0.810076   -3.885207
    226          1           0        3.691394    0.397515   -3.112193
    227          1           0       -0.150532   -2.950542   -0.284421
    228          1           0       -0.746202   -2.878819   -1.959333
    229          1           0       -1.445115   -0.870881    0.237267
    230          1           0       -2.508196   -2.119364   -0.427343
    231          1           0       -2.249984   -1.133550   -2.682695
    232          1           0       -0.694552    1.015712   -1.181928
    233          1           0       -3.029169    1.005491   -0.669186
    234          1           0       -2.484291    2.846235   -2.100967
    235          1           0       -2.846129    2.796732   -3.822110
    236          1           0       -1.330228    0.894238   -4.151960
    237          1           0       -0.500063    2.195558   -3.301504
    238          1           0       -4.566347   -0.687606   -0.016642
    239          1           0       -4.739674   -1.292732   -1.657449
    240          1           0       -6.137337    1.008149   -0.404534
    241          1           0       -6.496806    0.217339   -1.931125
    242          1           0       -4.770582    2.623449   -1.424329
    243          1           0       -4.875597   -0.311077   -3.758266
    244          1           0       -4.333519    1.064170   -4.740624
    245          1           0       -3.200663   -0.188141   -4.274112
    246          1           0       -6.103296    1.737863   -3.707804
 ---------------------------------------------------------------------
 Rotational constants (GHZ):           0.0140846           0.0128595           0.0102621
 Standard basis: 6-31G(d) (6D, 7F)
 There are  1731 symmetry adapted cartesian basis functions of A   symmetry.
 There are  1731 symmetry adapted basis functions of A   symmetry.
  1731 basis functions,  3288 primitive gaussians,  1731 cartesian basis functions
   375 alpha electrons      375 beta electrons
       nuclear repulsion energy     20764.2900698081 Hartrees.
 NAtoms=  246 NActive=  246 NUniq=  246 SFac= 1.00D+00 NAtFMM=   60 NAOKFM=T Big=T
 Integral buffers will be    131072 words long.
 Raffenetti 2 integral format.
 Two-electron integral symmetry is turned on.
 Nuclear repulsion after empirical dispersion term =    20764.0291847952 Hartrees.
 One-electron integrals computed using PRISM.
 NBasis=  1731 RedAO= T EigKep=  3.39D-04  NBF=  1731
 NBsUse=  1731 1.00D-06 EigRej= -1.00D+00 NBFU=  1731
 ExpMin= 1.17D-01 ExpMax= 2.19D+04 ExpMxC= 3.30D+03 IAcc=3 IRadAn=         5 AccDes= 0.00D+00
 Harris functional with IExCor= 4639 and IRadAn=       5 diagonalized for initial guess.
 HarFok:  IExCor= 4639 AccDes= 0.00D+00 IRadAn=         5 IDoV= 1 UseB2=F ITyADJ=14
 ICtDFT=  3500011 ScaDFX=  1.000000  1.000000  1.000000  1.000000
 FoFCou: FMM=F IPFlag=           0 FMFlag=      100000 FMFlg1=        2001
         NFxFlg=           0 DoJE=T BraDBF=F KetDBF=T FulRan=T
         wScrn=  0.000000 ICntrl=       500 IOpCl=  0 I1Cent=   200000004 NGrid=           0
         NMat0=    1 NMatS0=      1 NMatT0=    0 NMatD0=    1 NMtDS0=    0 NMtDT0=    0
 Petite list used in FoFCou.
 Requested convergence on RMS density matrix=1.00D-08 within 128 cycles.
 Requested convergence on MAX density matrix=1.00D-06.
 Requested convergence on             energy=1.00D-06.
 No special actions if energy rises.
 Integral accuracy reduced to 1.0D-05 until final iterations.
 Initial convergence to 1.0D-05 achieved.  Increase integral accuracy.
 SCF Done:  E(RwB97XD) =  -4400.49707995     A.U. after   14 cycles
            NFock= 14  Conv=0.82D-08     -V/T= 2.0084
 Hyperfine terms turned off by default for NAtoms > 100.

 **********************************************************************

            Population analysis using the SCF Density.

 **********************************************************************

 Orbital symmetries:
       Occupied  (A) (A) (A) (A) (A) (A) (A) (A) (A) (A) (A) (A)
                 (A) (A) (A) (A) (A) (A) (A) (A) (A) (A) (A) (A)
                 (A) (A) (A) (A) (A) (A) (A) (A) (A) (A) (A) (A)
                 (A) (A) (A) (A) (A) (A) (A) (A) (A) (A) (A) (A)
                 (A) (A) (A) (A) (A) (A) (A) (A) (A) (A) (A) (A)
                 (A) (A) (A) (A) (A) (A) (A) (A) (A) (A) (A) (A)
                 (A) (A) (A) (A) (A) (A) (A) (A) (A) (A) (A) (A)
                 (A) (A) (A) (A) (A) (A) (A) (A) (A) (A) (A) (A)
                 (A) (A) (A) (A) (A) (A) (A) (A) (A) (A) (A) (A)
                 (A) (A) (A) (A) (A) (A) (A) (A) (A) (A) (A) (A)
                 (A) (A) (A) (A) (A) (A) (A) (A) (A) (A) (A) (A)
                 (A) (A) (A) (A) (A) (A) (A) (A) (A) (A) (A) (A)
                 (A) (A) (A) (A) (A) (A) (A) (A) (A) (A) (A) (A)
                 (A) (A) (A) (A) (A) (A) (A) (A) (A) (A) (A) (A)
                 (A) (A) (A) (A) (A) (A) (A) (A) (A) (A) (A) (A)
                 (A) (A) (A) (A) (A) (A) (A) (A) (A) (A) (A) (A)
                 (A) (A) (A) (A) (A) (A) (A) (A) (A) (A) (A) (A)
                 (A) (A) (A) (A) (A) (A) (A) (A) (A) (A) (A) (A)
                 (A) (A) (A) (A) (A) (A) (A) (A) (A) (A) (A) (A)
                 (A) (A) (A) (A) (A) (A) (A) (A) (A) (A) (A) (A)
                 (A) (A) (A) (A) (A) (A) (A) (A) (A) (A) (A) (A)
                 (A) (A) (A) (A) (A) (A) (A) (A) (A) (A) (A) (A)
                 (A) (A) (A) (A) (A) (A) (A) (A) (A) (A) (A) (A)
                 (A) (A) (A) (A) (A) (A) (A) (A) (A) (A) (A) (A)
                 (A) (A) (A) (A) (A) (A) (A) (A) (A) (A) (A) (A)
                 (A) (A) (A) (A) (A) (A) (A) (A) (A) (A) (A) (A)
                 (A) (A) (A) (A) (A) (A) (A) (A) (A) (A) (A) (A)
                 (A) (A) (A) (A) (A) (A) (A) (A) (A) (A) (A) (A)
                 (A) (A) (A) (A) (A) (A) (A) (A) (A) (A) (A) (A)
                 (A) (A) (A) (A) (A) (A) (A) (A) (A) (A) (A) (A)
                 (A) (A) (A) (A) (A) (A) (A) (A) (A) (A) (A) (A)
                 (A) (A) (A)
       Virtual   (A) (A) (A) (A) (A) (A) (A) (A) (A) (A) (A) (A)
                 (A) (A) (A) (A) (A) (A) (A) (A) (A) (A) (A) (A)
                 (A) (A) (A) (A) (A) (A) (A) (A) (A) (A) (A) (A)
                 (A) (A) (A) (A) (A) (A) (A) (A) (A) (A) (A) (A)
                 (A) (A) (A) (A) (A) (A) (A) (A) (A) (A) (A) (A)
                 (A) (A) (A) (A) (A) (A) (A) (A) (A) (A) (A) (A)
                 (A) (A) (A) (A) (A) (A) (A) (A) (A) (A) (A) (A)
                 (A) (A) (A) (A) (A) (A) (A) (A) (A) (A) (A) (A)
                 (A) (A) (A) (A) (A) (A) (A) (A) (A) (A) (A) (A)
                 (A) (A) (A) (A) (A) (A) (A) (A) (A) (A) (A) (A)
                 (A) (A) (A) (A) (A) (A) (A) (A) (A) (A) (A) (A)
                 (A) (A) (A) (A) (A) (A) (A) (A) (A) (A) (A) (A)
                 (A) (A) (A) (A) (A) (A) (A) (A) (A) (A) (A) (A)
                 (A) (A) (A) (A) (A) (A) (A) (A) (A) (A) (A) (A)
                 (A) (A) (A) (A) (A) (A) (A) (A) (A) (A) (A) (A)
                 (A) (A) (A) (A) (A) (A) (A) (A) (A) (A) (A) (A)
                 (A) (A) (A) (A) (A) (A) (A) (A) (A) (A) (A) (A)
                 (A) (A) (A) (A) (A) (A) (A) (A) (A) (A) (A) (A)
                 (A) (A) (A) (A) (A) (A) (A) (A) (A) (A) (A) (A)
                 (A) (A) (A) (A) (A) (A) (A) (A) (A) (A) (A) (A)
                 (A) (A) (A) (A) (A) (A) (A) (A) (A) (A) (A) (A)
                 (A) (A) (A) (A) (A) (A) (A) (A) (A) (A) (A) (A)
                 (A) (A) (A) (A) (A) (A) (A) (A) (A) (A) (A) (A)
                 (A) (A) (A) (A) (A) (A) (A) (A) (A) (A) (A) (A)
                 (A) (A) (A) (A) (A) (A) (A) (A) (A) (A) (A) (A)
                 (A) (A) (A) (A) (A) (A) (A) (A) (A) (A) (A) (A)
                 (A) (A) (A) (A) (A) (A) (A) (A) (A) (A) (A) (A)
                 (A) (A) (A) (A) (A) (A) (A) (A) (A) (A) (A) (A)
                 (A) (A) (A) (A) (A) (A) (A) (A) (A) (A) (A) (A)
                 (A) (A) (A) (A) (A) (A) (A) (A) (A) (A) (A) (A)
                 (A) (A) (A) (A) (A) (A) (A) (A) (A) (A) (A) (A)
                 (A) (A) (A) (A) (A) (A) (A) (A) (A) (A) (A) (A)
                 (A) (A) (A) (A) (A) (A) (A) (A) (A) (A) (A) (A)
                 (A) (A) (A) (A) (A) (A) (A) (A) (A) (A) (A) (A)
                 (A) (A) (A) (A) (A) (A) (A) (A) (A) (A) (A) (A)
                 (A) (A) (A) (A) (A) (A) (A) (A) (A) (A) (A) (A)
                 (A) (A) (A) (A) (A) (A) (A) (A) (A) (A) (A) (A)
                 (A) (A) (A) (A) (A) (A) (A) (A) (A) (A) (A) (A)
                 (A) (A) (A) (A) (A) (A) (A) (A) (A) (A) (A) (A)
                 (A) (A) (A) (A) (A) (A) (A) (A) (A) (A) (A) (A)
                 (A) (A) (A) (A) (A) (A) (A) (A) (A) (A) (A) (A)
                 (A) (A) (A) (A) (A) (A) (A) (A) (A) (A) (A) (A)
                 (A) (A) (A) (A) (A) (A) (A) (A) (A) (A) (A) (A)
                 (A) (A) (A) (A) (A) (A) (A) (A) (A) (A) (A) (A)
                 (A) (A) (A) (A) (A) (A) (A) (A) (A) (A) (A) (A)
                 (A) (A) (A) (A) (A) (A) (A) (A) (A) (A) (A) (A)
                 (A) (A) (A) (A) (A) (A) (A) (A) (A) (A) (A) (A)
                 (A) (A) (A) (A) (A) (A) (A) (A) (A) (A) (A) (A)
                 (A) (A) (A) (A) (A) (A) (A) (A) (A) (A) (A) (A)
                 (A) (A) (A) (A) (A) (A) (A) (A) (A) (A) (A) (A)
                 (A) (A) (A) (A) (A) (A) (A) (A) (A) (A) (A) (A)
                 (A) (A) (A) (A) (A) (A) (A) (A) (A) (A) (A) (A)
                 (A) (A) (A) (A) (A) (A) (A) (A) (A) (A) (A) (A)
                 (A) (A) (A) (A) (A) (A) (A) (A) (A) (A) (A) (A)
                 (A) (A) (A) (A) (A) (A) (A) (A) (A) (A) (A) (A)
                 (A) (A) (A) (A) (A) (A) (A) (A) (A) (A) (A) (A)
                 (A) (A) (A) (A) (A) (A) (A) (A) (A) (A) (A) (A)
                 (A) (A) (A) (A) (A) (A) (A) (A) (A) (A) (A) (A)
                 (A) (A) (A) (A) (A) (A) (A) (A) (A) (A) (A) (A)
                 (A) (A) (A) (A) (A) (A) (A) (A) (A) (A) (A) (A)
                 (A) (A) (A) (A) (A) (A) (A) (A) (A) (A) (A) (A)
                 (A) (A) (A) (A) (A) (A) (A) (A) (A) (A) (A) (A)
                 (A) (A) (A) (A) (A) (A) (A) (A) (A) (A) (A) (A)
                 (A) (A) (A) (A) (A) (A) (A) (A) (A) (A) (A) (A)
                 (A) (A) (A) (A) (A) (A) (A) (A) (A) (A) (A) (A)
                 (A) (A) (A) (A) (A) (A) (A) (A) (A) (A) (A) (A)
                 (A) (A) (A) (A) (A) (A) (A) (A) (A) (A) (A) (A)
                 (A) (A) (A) (A) (A) (A) (A) (A) (A) (A) (A) (A)
                 (A) (A) (A) (A) (A) (A) (A) (A) (A) (A) (A) (A)
                 (A) (A) (A) (A) (A) (A) (A) (A) (A) (A) (A) (A)
                 (A) (A) (A) (A) (A) (A) (A) (A) (A) (A) (A) (A)
                 (A) (A) (A) (A) (A) (A) (A) (A) (A) (A) (A) (A)
                 (A) (A) (A) (A) (A) (A) (A) (A) (A) (A) (A) (A)
                 (A) (A) (A) (A) (A) (A) (A) (A) (A) (A) (A) (A)
                 (A) (A) (A) (A) (A) (A) (A) (A) (A) (A) (A) (A)
                 (A) (A) (A) (A) (A) (A) (A) (A) (A) (A) (A) (A)
                 (A) (A) (A) (A) (A) (A) (A) (A) (A) (A) (A) (A)
                 (A) (A) (A) (A) (A) (A) (A) (A) (A) (A) (A) (A)
                 (A) (A) (A) (A) (A) (A) (A) (A) (A) (A) (A) (A)
                 (A) (A) (A) (A) (A) (A) (A) (A) (A) (A) (A) (A)
                 (A) (A) (A) (A) (A) (A) (A) (A) (A) (A) (A) (A)
                 (A) (A) (A) (A) (A) (A) (A) (A) (A) (A) (A) (A)
                 (A) (A) (A) (A) (A) (A) (A) (A) (A) (A) (A) (A)
                 (A) (A) (A) (A) (A) (A) (A) (A) (A) (A) (A) (A)
                 (A) (A) (A) (A) (A) (A) (A) (A) (A) (A) (A) (A)
                 (A) (A) (A) (A) (A) (A) (A) (A) (A) (A) (A) (A)
                 (A) (A) (A) (A) (A) (A) (A) (A) (A) (A) (A) (A)
                 (A) (A) (A) (A) (A) (A) (A) (A) (A) (A) (A) (A)
                 (A) (A) (A) (A) (A) (A) (A) (A) (A) (A) (A) (A)
                 (A) (A) (A) (A) (A) (A) (A) (A) (A) (A) (A) (A)
                 (A) (A) (A) (A) (A) (A) (A) (A) (A) (A) (A) (A)
                 (A) (A) (A) (A) (A) (A) (A) (A) (A) (A) (A) (A)
                 (A) (A) (A) (A) (A) (A) (A) (A) (A) (A) (A) (A)
                 (A) (A) (A) (A) (A) (A) (A) (A) (A) (A) (A) (A)
                 (A) (A) (A) (A) (A) (A) (A) (A) (A) (A) (A) (A)
                 (A) (A) (A) (A) (A) (A) (A) (A) (A) (A) (A) (A)
                 (A) (A) (A) (A) (A) (A) (A) (A) (A) (A) (A) (A)
                 (A) (A) (A) (A) (A) (A) (A) (A) (A) (A) (A) (A)
                 (A) (A) (A) (A) (A) (A) (A) (A) (A) (A) (A) (A)
                 (A) (A) (A) (A) (A) (A) (A) (A) (A) (A) (A) (A)
                 (A) (A) (A) (A) (A) (A) (A) (A) (A) (A) (A) (A)
                 (A) (A) (A) (A) (A) (A) (A) (A) (A) (A) (A) (A)
                 (A) (A) (A) (A) (A) (A) (A) (A) (A) (A) (A) (A)
                 (A) (A) (A) (A) (A) (A) (A) (A) (A) (A) (A) (A)
                 (A) (A) (A) (A) (A) (A) (A) (A) (A) (A) (A) (A)
                 (A) (A) (A) (A) (A) (A) (A) (A) (A) (A) (A) (A)
                 (A) (A) (A) (A) (A) (A) (A) (A) (A) (A) (A) (A)
                 (A) (A) (A) (A) (A) (A) (A) (A) (A) (A) (A) (A)
                 (A) (A) (A) (A) (A) (A) (A) (A) (A) (A) (A) (A)
                 (A) (A) (A) (A) (A) (A) (A) (A) (A) (A) (A) (A)
                 (A) (A) (A) (A) (A) (A) (A) (A) (A) (A) (A) (A)
                 (A) (A) (A) (A) (A) (A) (A) (A) (A) (A) (A) (A)
                 (A) (A) (A) (A) (A) (A) (A) (A) (A) (A) (A) (A)
 The electronic state is 1-A.
 Alpha  occ. eigenvalues --  -88.97121 -19.21937 -19.19900 -19.19694 -19.18574
 Alpha  occ. eigenvalues --  -19.17984 -19.17749 -19.10628 -19.09881 -14.42379
 Alpha  occ. eigenvalues --  -14.38096 -10.35146 -10.34747 -10.31447 -10.27900
 Alpha  occ. eigenvalues --  -10.27634 -10.27386 -10.26603 -10.25780 -10.25532
 Alpha  occ. eigenvalues --  -10.24957 -10.24698 -10.24655 -10.24418 -10.24217
 Alpha  occ. eigenvalues --  -10.23834 -10.23807 -10.23665 -10.23555 -10.23403
 Alpha  occ. eigenvalues --  -10.23386 -10.23227 -10.23087 -10.22991 -10.22870
 Alpha  occ. eigenvalues --  -10.22800 -10.22768 -10.22729 -10.22560 -10.22487
 Alpha  occ. eigenvalues --  -10.22448 -10.22414 -10.22339 -10.22328 -10.22307
 Alpha  occ. eigenvalues --  -10.22194 -10.22182 -10.22172 -10.22142 -10.21987
 Alpha  occ. eigenvalues --  -10.21962 -10.21891 -10.21868 -10.21749 -10.21713
 Alpha  occ. eigenvalues --  -10.21684 -10.21544 -10.21529 -10.21511 -10.21490
 Alpha  occ. eigenvalues --  -10.21407 -10.21361 -10.21341 -10.21250 -10.21192
 Alpha  occ. eigenvalues --  -10.21107 -10.21066 -10.21045 -10.21000 -10.20932
 Alpha  occ. eigenvalues --  -10.20926 -10.20848 -10.20790 -10.20679 -10.20677
 Alpha  occ. eigenvalues --  -10.20330 -10.20311 -10.20217 -10.20121 -10.20096
 Alpha  occ. eigenvalues --  -10.20072 -10.20030 -10.19909 -10.19824 -10.19759
 Alpha  occ. eigenvalues --  -10.19736 -10.19705 -10.19646 -10.19496 -10.19487
 Alpha  occ. eigenvalues --  -10.19367 -10.19296 -10.18962 -10.18740 -10.17881
 Alpha  occ. eigenvalues --   -7.99040  -5.94082  -5.93711  -5.93008  -1.12300
 Alpha  occ. eigenvalues --   -1.08364  -1.07462  -1.06067  -1.04399  -1.03145
 Alpha  occ. eigenvalues --   -1.02491  -0.98733  -0.96850  -0.93120  -0.89178
 Alpha  occ. eigenvalues --   -0.88906  -0.88286  -0.86900  -0.86161  -0.85777
 Alpha  occ. eigenvalues --   -0.85666  -0.84467  -0.84439  -0.83684  -0.83589
 Alpha  occ. eigenvalues --   -0.82497  -0.82393  -0.82088  -0.82005  -0.81476
 Alpha  occ. eigenvalues --   -0.81275  -0.80804  -0.80723  -0.80074  -0.78144
 Alpha  occ. eigenvalues --   -0.77303  -0.77145  -0.76794  -0.76698  -0.76210
 Alpha  occ. eigenvalues --   -0.76180  -0.76154  -0.75661  -0.75497  -0.74486
 Alpha  occ. eigenvalues --   -0.74170  -0.73890  -0.73441  -0.72326  -0.72299
 Alpha  occ. eigenvalues --   -0.72292  -0.72061  -0.71765  -0.71543  -0.71273
 Alpha  occ. eigenvalues --   -0.71131  -0.70938  -0.70874  -0.70304  -0.69678
 Alpha  occ. eigenvalues --   -0.69483  -0.68931  -0.68732  -0.67964  -0.66514
 Alpha  occ. eigenvalues --   -0.66186  -0.65857  -0.65322  -0.64783  -0.64640
 Alpha  occ. eigenvalues --   -0.63670  -0.62871  -0.62852  -0.62790  -0.62670
 Alpha  occ. eigenvalues --   -0.62454  -0.61715  -0.61121  -0.60907  -0.60156
 Alpha  occ. eigenvalues --   -0.60049  -0.59978  -0.59909  -0.59578  -0.59259
 Alpha  occ. eigenvalues --   -0.58841  -0.58464  -0.58322  -0.58179  -0.57307
 Alpha  occ. eigenvalues --   -0.57259  -0.56532  -0.56001  -0.54989  -0.54326
 Alpha  occ. eigenvalues --   -0.53716  -0.53302  -0.53159  -0.52288  -0.51624
 Alpha  occ. eigenvalues --   -0.51071  -0.50622  -0.50305  -0.50193  -0.50036
 Alpha  occ. eigenvalues --   -0.49792  -0.49729  -0.49471  -0.49380  -0.49111
 Alpha  occ. eigenvalues --   -0.49031  -0.48962  -0.48934  -0.48799  -0.48689
 Alpha  occ. eigenvalues --   -0.48561  -0.48477  -0.48457  -0.48131  -0.47748
 Alpha  occ. eigenvalues --   -0.47646  -0.47476  -0.47282  -0.47018  -0.46719
 Alpha  occ. eigenvalues --   -0.46605  -0.46343  -0.46080  -0.45940  -0.45929
 Alpha  occ. eigenvalues --   -0.45753  -0.45526  -0.45455  -0.45411  -0.45239
 Alpha  occ. eigenvalues --   -0.45232  -0.45111  -0.45012  -0.44989  -0.44934
 Alpha  occ. eigenvalues --   -0.44859  -0.44563  -0.44495  -0.44260  -0.44228
 Alpha  occ. eigenvalues --   -0.44091  -0.44053  -0.44008  -0.43742  -0.43735
 Alpha  occ. eigenvalues --   -0.43602  -0.43465  -0.43422  -0.43224  -0.43073
 Alpha  occ. eigenvalues --   -0.43035  -0.42887  -0.42798  -0.42710  -0.42638
 Alpha  occ. eigenvalues --   -0.42369  -0.42007  -0.41978  -0.41864  -0.41808
 Alpha  occ. eigenvalues --   -0.41685  -0.41476  -0.41276  -0.41241  -0.41171
 Alpha  occ. eigenvalues --   -0.41083  -0.40971  -0.40845  -0.40762  -0.40737
 Alpha  occ. eigenvalues --   -0.40618  -0.40445  -0.40380  -0.40296  -0.40218
 Alpha  occ. eigenvalues --   -0.40056  -0.39905  -0.39834  -0.39792  -0.39646
 Alpha  occ. eigenvalues --   -0.39342  -0.39275  -0.39241  -0.39125  -0.38815
 Alpha  occ. eigenvalues --   -0.38723  -0.38610  -0.38481  -0.38465  -0.38369
 Alpha  occ. eigenvalues --   -0.38366  -0.38291  -0.38204  -0.38141  -0.37894
 Alpha  occ. eigenvalues --   -0.37844  -0.37802  -0.37607  -0.37401  -0.37324
 Alpha  occ. eigenvalues --   -0.37276  -0.37072  -0.36760  -0.36476  -0.36402
 Alpha  occ. eigenvalues --   -0.36311  -0.36264  -0.36160  -0.36081  -0.36021
 Alpha  occ. eigenvalues --   -0.35913  -0.35744  -0.35610  -0.35376  -0.35186
 Alpha  occ. eigenvalues --   -0.35103  -0.34675  -0.34644  -0.34559  -0.34491
 Alpha  occ. eigenvalues --   -0.34424  -0.34312  -0.34206  -0.34118  -0.34062
 Alpha  occ. eigenvalues --   -0.34039  -0.33980  -0.33804  -0.33782  -0.33696
 Alpha  occ. eigenvalues --   -0.33691  -0.33664  -0.33474  -0.33454  -0.33410
 Alpha  occ. eigenvalues --   -0.33390  -0.33215  -0.33204  -0.33084  -0.33003
 Alpha  occ. eigenvalues --   -0.32735  -0.32709  -0.32692  -0.32534  -0.32428
 Alpha  occ. eigenvalues --   -0.32388  -0.32383  -0.32047  -0.31854  -0.31733
 Alpha  occ. eigenvalues --   -0.31670  -0.31369  -0.31187  -0.30800  -0.30114
 Alpha  occ. eigenvalues --   -0.29966  -0.28265  -0.27893  -0.27811  -0.27581
 Alpha  occ. eigenvalues --   -0.27000  -0.26559  -0.26096  -0.25460  -0.25297
 Alpha  occ. eigenvalues --   -0.25138  -0.24509  -0.24359  -0.23810  -0.22495
 Alpha  occ. eigenvalues --   -0.21039  -0.20546  -0.20467  -0.19422  -0.18079
 Alpha virt. eigenvalues --    0.09194   0.14102   0.14297   0.14373   0.14643
 Alpha virt. eigenvalues --    0.16210   0.16270   0.16402   0.17101   0.18074
 Alpha virt. eigenvalues --    0.18295   0.19311   0.19719   0.20285   0.20855
 Alpha virt. eigenvalues --    0.21062   0.21233   0.21495   0.21896   0.22177
 Alpha virt. eigenvalues --    0.22502   0.22578   0.22846   0.22963   0.23357
 Alpha virt. eigenvalues --    0.23446   0.23782   0.23903   0.23972   0.24087
 Alpha virt. eigenvalues --    0.24414   0.24603   0.24853   0.25115   0.25249
 Alpha virt. eigenvalues --    0.25482   0.25654   0.25733   0.25875   0.26038
 Alpha virt. eigenvalues --    0.26075   0.26146   0.26394   0.26516   0.26801
 Alpha virt. eigenvalues --    0.26882   0.26918   0.27060   0.27147   0.27243
 Alpha virt. eigenvalues --    0.27452   0.27611   0.27773   0.27895   0.27961
 Alpha virt. eigenvalues --    0.28122   0.28264   0.28319   0.28448   0.28514
 Alpha virt. eigenvalues --    0.28685   0.28768   0.28867   0.28921   0.29092
 Alpha virt. eigenvalues --    0.29255   0.29300   0.29355   0.29476   0.29555
 Alpha virt. eigenvalues --    0.29643   0.29715   0.29726   0.29797   0.30119
 Alpha virt. eigenvalues --    0.30304   0.30456   0.30534   0.30570   0.30633
 Alpha virt. eigenvalues --    0.30792   0.30932   0.31000   0.31055   0.31198
 Alpha virt. eigenvalues --    0.31235   0.31372   0.31513   0.31546   0.31632
 Alpha virt. eigenvalues --    0.31779   0.31861   0.31938   0.32065   0.32147
 Alpha virt. eigenvalues --    0.32205   0.32217   0.32283   0.32435   0.32542
 Alpha virt. eigenvalues --    0.32627   0.32710   0.32731   0.32832   0.32980
 Alpha virt. eigenvalues --    0.33082   0.33147   0.33204   0.33335   0.33384
 Alpha virt. eigenvalues --    0.33436   0.33554   0.33652   0.33677   0.33709
 Alpha virt. eigenvalues --    0.33778   0.33804   0.34035   0.34144   0.34276
 Alpha virt. eigenvalues --    0.34366   0.34461   0.34560   0.34657   0.34735
 Alpha virt. eigenvalues --    0.34845   0.34987   0.35067   0.35123   0.35271
 Alpha virt. eigenvalues --    0.35416   0.35472   0.35533   0.35599   0.35762
 Alpha virt. eigenvalues --    0.35855   0.35909   0.36111   0.36218   0.36352
 Alpha virt. eigenvalues --    0.36509   0.36548   0.36649   0.36761   0.36784
 Alpha virt. eigenvalues --    0.36916   0.37074   0.37179   0.37308   0.37396
 Alpha virt. eigenvalues --    0.37486   0.37612   0.37773   0.37945   0.38104
 Alpha virt. eigenvalues --    0.38202   0.38214   0.38411   0.38462   0.38532
 Alpha virt. eigenvalues --    0.38780   0.38786   0.38873   0.39043   0.39178
 Alpha virt. eigenvalues --    0.39227   0.39340   0.39400   0.39530   0.39710
 Alpha virt. eigenvalues --    0.39752   0.39884   0.39999   0.40053   0.40241
 Alpha virt. eigenvalues --    0.40254   0.40309   0.40405   0.40442   0.40602
 Alpha virt. eigenvalues --    0.40775   0.40931   0.40985   0.41128   0.41247
 Alpha virt. eigenvalues --    0.41403   0.41469   0.41708   0.41752   0.42023
 Alpha virt. eigenvalues --    0.42075   0.42373   0.42386   0.42515   0.42680
 Alpha virt. eigenvalues --    0.42879   0.42900   0.43123   0.43245   0.43439
 Alpha virt. eigenvalues --    0.43464   0.43653   0.44030   0.44174   0.44202
 Alpha virt. eigenvalues --    0.44451   0.44556   0.44632   0.44861   0.44879
 Alpha virt. eigenvalues --    0.45188   0.45594   0.46002   0.46302   0.46472
 Alpha virt. eigenvalues --    0.46657   0.46985   0.47120   0.47373   0.47659
 Alpha virt. eigenvalues --    0.47938   0.48161   0.48264   0.48276   0.48760
 Alpha virt. eigenvalues --    0.48957   0.49430   0.49574   0.50242   0.50602
 Alpha virt. eigenvalues --    0.50889   0.51007   0.51162   0.51642   0.52182
 Alpha virt. eigenvalues --    0.52697   0.53097   0.53385   0.53447   0.53779
 Alpha virt. eigenvalues --    0.54076   0.54657   0.54774   0.55681   0.57031
 Alpha virt. eigenvalues --    0.57765   0.57836   0.58405   0.60262   0.60495
 Alpha virt. eigenvalues --    0.61183   0.61433   0.61824   0.61959   0.62155
 Alpha virt. eigenvalues --    0.62728   0.63032   0.63218   0.63387   0.63472
 Alpha virt. eigenvalues --    0.63675   0.64114   0.64181   0.64467   0.65029
 Alpha virt. eigenvalues --    0.65227   0.65620   0.65715   0.65866   0.65945
 Alpha virt. eigenvalues --    0.66052   0.66160   0.66310   0.66456   0.66486
 Alpha virt. eigenvalues --    0.66639   0.66817   0.66923   0.67066   0.67192
 Alpha virt. eigenvalues --    0.67383   0.67634   0.67684   0.67924   0.68069
 Alpha virt. eigenvalues --    0.68406   0.68475   0.68551   0.68637   0.68867
 Alpha virt. eigenvalues --    0.69046   0.69149   0.69261   0.69382   0.69466
 Alpha virt. eigenvalues --    0.69548   0.69570   0.69689   0.69889   0.70093
 Alpha virt. eigenvalues --    0.70136   0.70285   0.70365   0.70587   0.70665
 Alpha virt. eigenvalues --    0.70858   0.71112   0.71218   0.71269   0.71521
 Alpha virt. eigenvalues --    0.71808   0.71953   0.72237   0.72263   0.72400
 Alpha virt. eigenvalues --    0.72670   0.72810   0.72952   0.72961   0.73187
 Alpha virt. eigenvalues --    0.73311   0.73335   0.73456   0.73655   0.73887
 Alpha virt. eigenvalues --    0.73992   0.74189   0.74330   0.74400   0.74565
 Alpha virt. eigenvalues --    0.74621   0.74940   0.75054   0.75132   0.75244
 Alpha virt. eigenvalues --    0.75634   0.75724   0.76087   0.76225   0.76382
 Alpha virt. eigenvalues --    0.76551   0.76672   0.76853   0.76903   0.76958
 Alpha virt. eigenvalues --    0.77098   0.77270   0.77389   0.77421   0.77596
 Alpha virt. eigenvalues --    0.77762   0.77979   0.78086   0.78194   0.78440
 Alpha virt. eigenvalues --    0.78654   0.78871   0.79068   0.79238   0.79314
 Alpha virt. eigenvalues --    0.79490   0.79806   0.79979   0.80311   0.80421
 Alpha virt. eigenvalues --    0.80523   0.80582   0.80741   0.80984   0.81159
 Alpha virt. eigenvalues --    0.81309   0.81517   0.81659   0.81819   0.81889
 Alpha virt. eigenvalues --    0.82067   0.82183   0.82517   0.82645   0.82771
 Alpha virt. eigenvalues --    0.82875   0.82987   0.83065   0.83275   0.83314
 Alpha virt. eigenvalues --    0.83380   0.83570   0.83644   0.83681   0.83949
 Alpha virt. eigenvalues --    0.84030   0.84154   0.84465   0.84591   0.84737
 Alpha virt. eigenvalues --    0.84793   0.85069   0.85387   0.85498   0.85710
 Alpha virt. eigenvalues --    0.85934   0.86183   0.86248   0.86420   0.86486
 Alpha virt. eigenvalues --    0.86723   0.86896   0.87006   0.87196   0.87524
 Alpha virt. eigenvalues --    0.87728   0.87840   0.88011   0.88187   0.88219
 Alpha virt. eigenvalues --    0.88330   0.88414   0.88645   0.88710   0.88851
 Alpha virt. eigenvalues --    0.88966   0.89129   0.89209   0.89381   0.89555
 Alpha virt. eigenvalues --    0.89599   0.89676   0.89904   0.90041   0.90220
 Alpha virt. eigenvalues --    0.90540   0.90563   0.90716   0.91008   0.91021
 Alpha virt. eigenvalues --    0.91223   0.91460   0.91475   0.91653   0.92055
 Alpha virt. eigenvalues --    0.92179   0.92446   0.92586   0.92758   0.92866
 Alpha virt. eigenvalues --    0.93217   0.93252   0.93358   0.93845   0.94032
 Alpha virt. eigenvalues --    0.94614   0.95094   0.95480   0.95551   0.95684
 Alpha virt. eigenvalues --    0.96227   0.96421   0.96493   0.96641   0.96723
 Alpha virt. eigenvalues --    0.97037   0.97390   0.97757   0.97886   0.98145
 Alpha virt. eigenvalues --    0.98325   0.98527   0.98562   0.98642   0.98723
 Alpha virt. eigenvalues --    0.98894   0.99146   0.99323   0.99451   0.99547
 Alpha virt. eigenvalues --    0.99654   0.99860   1.00028   1.00211   1.00478
 Alpha virt. eigenvalues --    1.00860   1.01038   1.01143   1.01192   1.01368
 Alpha virt. eigenvalues --    1.01415   1.01524   1.01615   1.01979   1.02035
 Alpha virt. eigenvalues --    1.02082   1.02226   1.02303   1.02724   1.02776
 Alpha virt. eigenvalues --    1.02831   1.03075   1.03239   1.03335   1.03503
 Alpha virt. eigenvalues --    1.03666   1.03767   1.03901   1.03999   1.04136
 Alpha virt. eigenvalues --    1.04285   1.04449   1.04519   1.04663   1.04707
 Alpha virt. eigenvalues --    1.04874   1.04911   1.04993   1.05183   1.05292
 Alpha virt. eigenvalues --    1.05406   1.05550   1.05665   1.05727   1.05845
 Alpha virt. eigenvalues --    1.05867   1.05967   1.06073   1.06137   1.06340
 Alpha virt. eigenvalues --    1.06411   1.06521   1.06657   1.06765   1.06852
 Alpha virt. eigenvalues --    1.06959   1.07165   1.07213   1.07287   1.07320
 Alpha virt. eigenvalues --    1.07397   1.07501   1.07577   1.07721   1.07847
 Alpha virt. eigenvalues --    1.08020   1.08088   1.08154   1.08300   1.08360
 Alpha virt. eigenvalues --    1.08484   1.08548   1.08722   1.08866   1.09044
 Alpha virt. eigenvalues --    1.09150   1.09289   1.09368   1.09508   1.09547
 Alpha virt. eigenvalues --    1.09628   1.09898   1.09984   1.10137   1.10156
 Alpha virt. eigenvalues --    1.10330   1.10568   1.10585   1.10808   1.10837
 Alpha virt. eigenvalues --    1.10993   1.11038   1.11233   1.11305   1.11423
 Alpha virt. eigenvalues --    1.11561   1.11631   1.11744   1.11844   1.12032
 Alpha virt. eigenvalues --    1.12098   1.12207   1.12460   1.12480   1.12593
 Alpha virt. eigenvalues --    1.12820   1.12983   1.13038   1.13331   1.13452
 Alpha virt. eigenvalues --    1.13549   1.13676   1.13997   1.14085   1.14366
 Alpha virt. eigenvalues --    1.14432   1.14497   1.14571   1.14835   1.14896
 Alpha virt. eigenvalues --    1.15009   1.15156   1.15277   1.15308   1.15412
 Alpha virt. eigenvalues --    1.15542   1.15612   1.15823   1.15917   1.16219
 Alpha virt. eigenvalues --    1.16552   1.16620   1.16896   1.17191   1.17247
 Alpha virt. eigenvalues --    1.17482   1.17605   1.17810   1.17935   1.17997
 Alpha virt. eigenvalues --    1.18314   1.18460   1.18898   1.19012   1.19176
 Alpha virt. eigenvalues --    1.19254   1.19383   1.19601   1.19714   1.19929
 Alpha virt. eigenvalues --    1.20127   1.20434   1.20478   1.20529   1.20753
 Alpha virt. eigenvalues --    1.20886   1.21048   1.21229   1.21523   1.21584
 Alpha virt. eigenvalues --    1.21745   1.21854   1.22178   1.22274   1.22507
 Alpha virt. eigenvalues --    1.22561   1.22874   1.23168   1.23381   1.23505
 Alpha virt. eigenvalues --    1.23827   1.24049   1.24190   1.24310   1.24628
 Alpha virt. eigenvalues --    1.24854   1.25251   1.25330   1.25543   1.25722
 Alpha virt. eigenvalues --    1.26217   1.26400   1.27194   1.27426   1.27637
 Alpha virt. eigenvalues --    1.27846   1.28076   1.28358   1.28498   1.29207
 Alpha virt. eigenvalues --    1.29667   1.29935   1.30036   1.30667   1.31063
 Alpha virt. eigenvalues --    1.31259   1.31675   1.31968   1.32456   1.33052
 Alpha virt. eigenvalues --    1.33167   1.33349   1.33657   1.34039   1.34442
 Alpha virt. eigenvalues --    1.34535   1.34800   1.35108   1.35409   1.35563
 Alpha virt. eigenvalues --    1.35941   1.36273   1.36997   1.37142   1.37253
 Alpha virt. eigenvalues --    1.37655   1.37998   1.38193   1.38386   1.38889
 Alpha virt. eigenvalues --    1.39398   1.39509   1.39920   1.40351   1.40579
 Alpha virt. eigenvalues --    1.40942   1.41196   1.41316   1.41795   1.42042
 Alpha virt. eigenvalues --    1.42271   1.43312   1.43434   1.43679   1.45369
 Alpha virt. eigenvalues --    1.45441   1.45522   1.45854   1.47310   1.47514
 Alpha virt. eigenvalues --    1.47846   1.48247   1.48468   1.49126   1.49846
 Alpha virt. eigenvalues --    1.49940   1.50531   1.50626   1.51302   1.51810
 Alpha virt. eigenvalues --    1.51958   1.52427   1.52703   1.53157   1.53580
 Alpha virt. eigenvalues --    1.53989   1.54141   1.54306   1.54551   1.55215
 Alpha virt. eigenvalues --    1.55564   1.55609   1.56149   1.56322   1.56593
 Alpha virt. eigenvalues --    1.56863   1.57297   1.57455   1.57727   1.57846
 Alpha virt. eigenvalues --    1.57924   1.58142   1.58187   1.58428   1.58836
 Alpha virt. eigenvalues --    1.59226   1.59576   1.59647   1.59696   1.59844
 Alpha virt. eigenvalues --    1.59892   1.60204   1.60368   1.60489   1.60688
 Alpha virt. eigenvalues --    1.60945   1.61195   1.61533   1.61558   1.61709
 Alpha virt. eigenvalues --    1.61726   1.62082   1.62305   1.62815   1.62972
 Alpha virt. eigenvalues --    1.63055   1.63202   1.63506   1.63778   1.64226
 Alpha virt. eigenvalues --    1.64380   1.64695   1.64896   1.64959   1.65279
 Alpha virt. eigenvalues --    1.65407   1.65568   1.65732   1.65912   1.66142
 Alpha virt. eigenvalues --    1.66632   1.66842   1.67149   1.67356   1.67381
 Alpha virt. eigenvalues --    1.67406   1.67697   1.68397   1.68576   1.68768
 Alpha virt. eigenvalues --    1.68872   1.69135   1.69570   1.69874   1.70377
 Alpha virt. eigenvalues --    1.71941   1.72562   1.73174   1.73926   1.74226
 Alpha virt. eigenvalues --    1.74804   1.74960   1.75481   1.76136   1.76635
 Alpha virt. eigenvalues --    1.77500   1.77700   1.77971   1.78095   1.78711
 Alpha virt. eigenvalues --    1.79651   1.79819   1.80529   1.81066   1.81203
 Alpha virt. eigenvalues --    1.81483   1.82257   1.83145   1.83540   1.84406
 Alpha virt. eigenvalues --    1.84671   1.84913   1.85111   1.85234   1.85350
 Alpha virt. eigenvalues --    1.85789   1.86259   1.86429   1.87100   1.87309
 Alpha virt. eigenvalues --    1.87688   1.88044   1.88128   1.88375   1.88583
 Alpha virt. eigenvalues --    1.88632   1.88739   1.88887   1.88986   1.89551
 Alpha virt. eigenvalues --    1.89668   1.90096   1.90309   1.90624   1.90789
 Alpha virt. eigenvalues --    1.91095   1.91277   1.91503   1.91924   1.92133
 Alpha virt. eigenvalues --    1.92573   1.93181   1.93821   1.94477   1.94634
 Alpha virt. eigenvalues --    1.94649   1.94951   1.95020   1.95351   1.95539
 Alpha virt. eigenvalues --    1.95690   1.96074   1.96187   1.96458   1.96606
 Alpha virt. eigenvalues --    1.96686   1.96922   1.96986   1.97139   1.97449
 Alpha virt. eigenvalues --    1.97868   1.97879   1.98356   1.98658   1.98768
 Alpha virt. eigenvalues --    1.99068   1.99398   1.99562   1.99674   1.99816
 Alpha virt. eigenvalues --    2.00273   2.00842   2.00960   2.01136   2.01535
 Alpha virt. eigenvalues --    2.01639   2.02265   2.03057   2.03513   2.03533
 Alpha virt. eigenvalues --    2.04175   2.05072   2.05125   2.05405   2.05604
 Alpha virt. eigenvalues --    2.05986   2.06012   2.06051   2.06295   2.06475
 Alpha virt. eigenvalues --    2.06798   2.07057   2.07248   2.07292   2.08029
 Alpha virt. eigenvalues --    2.08182   2.08291   2.08467   2.08632   2.08819
 Alpha virt. eigenvalues --    2.09433   2.09571   2.09831   2.10033   2.10284
 Alpha virt. eigenvalues --    2.10473   2.10566   2.10660   2.10872   2.11011
 Alpha virt. eigenvalues --    2.11199   2.11272   2.11604   2.11629   2.11883
 Alpha virt. eigenvalues --    2.11967   2.12141   2.12182   2.12487   2.12624
 Alpha virt. eigenvalues --    2.12786   2.12953   2.13105   2.13170   2.13593
 Alpha virt. eigenvalues --    2.13800   2.14030   2.14207   2.14491   2.14565
 Alpha virt. eigenvalues --    2.14878   2.15174   2.15273   2.15348   2.15576
 Alpha virt. eigenvalues --    2.15655   2.16087   2.16300   2.16418   2.16597
 Alpha virt. eigenvalues --    2.16787   2.16888   2.17156   2.17392   2.17465
 Alpha virt. eigenvalues --    2.17623   2.17822   2.17898   2.18033   2.18636
 Alpha virt. eigenvalues --    2.18727   2.18918   2.19000   2.19058   2.19219
 Alpha virt. eigenvalues --    2.19593   2.19871   2.20267   2.20601   2.20715
 Alpha virt. eigenvalues --    2.20911   2.21267   2.21774   2.22068   2.22300
 Alpha virt. eigenvalues --    2.22376   2.22855   2.23294   2.23314   2.23727
 Alpha virt. eigenvalues --    2.23976   2.24167   2.24332   2.24987   2.25244
 Alpha virt. eigenvalues --    2.25352   2.25502   2.25800   2.25847   2.25960
 Alpha virt. eigenvalues --    2.26284   2.26807   2.26918   2.27057   2.27118
 Alpha virt. eigenvalues --    2.27148   2.27502   2.27735   2.28105   2.28516
 Alpha virt. eigenvalues --    2.29111   2.29591   2.29820   2.30131   2.30288
 Alpha virt. eigenvalues --    2.30486   2.30759   2.30896   2.30970   2.31260
 Alpha virt. eigenvalues --    2.31452   2.31537   2.31634   2.31670   2.32382
 Alpha virt. eigenvalues --    2.32770   2.33296   2.33313   2.33516   2.33573
 Alpha virt. eigenvalues --    2.34059   2.34208   2.34326   2.35064   2.35383
 Alpha virt. eigenvalues --    2.35607   2.35962   2.36563   2.36900   2.37012
 Alpha virt. eigenvalues --    2.37269   2.37389   2.37741   2.37936   2.38551
 Alpha virt. eigenvalues --    2.39256   2.39530   2.40279   2.40294   2.40435
 Alpha virt. eigenvalues --    2.40630   2.40806   2.41009   2.41064   2.41204
 Alpha virt. eigenvalues --    2.41508   2.41633   2.41699   2.41838   2.41948
 Alpha virt. eigenvalues --    2.42122   2.42490   2.42494   2.42582   2.42686
 Alpha virt. eigenvalues --    2.42913   2.43307   2.43507   2.43689   2.43791
 Alpha virt. eigenvalues --    2.43929   2.44240   2.44272   2.44673   2.44778
 Alpha virt. eigenvalues --    2.44906   2.45022   2.45107   2.45271   2.45752
 Alpha virt. eigenvalues --    2.45888   2.45980   2.46093   2.46413   2.46693
 Alpha virt. eigenvalues --    2.46928   2.47141   2.47513   2.47815   2.48019
 Alpha virt. eigenvalues --    2.48204   2.48253   2.48478   2.48615   2.48669
 Alpha virt. eigenvalues --    2.48700   2.48840   2.48858   2.49322   2.49437
 Alpha virt. eigenvalues --    2.49444   2.49799   2.50332   2.50400   2.50791
 Alpha virt. eigenvalues --    2.50980   2.51310   2.51388   2.51672   2.51954
 Alpha virt. eigenvalues --    2.52224   2.52464   2.52652   2.52887   2.53227
 Alpha virt. eigenvalues --    2.54155   2.54741   2.54857   2.55266   2.55595
 Alpha virt. eigenvalues --    2.56623   2.56847   2.57103   2.57428   2.57596
 Alpha virt. eigenvalues --    2.57762   2.59236   2.59964   2.60194   2.60668
 Alpha virt. eigenvalues --    2.60849   2.61462   2.61560   2.61856   2.63072
 Alpha virt. eigenvalues --    2.63242   2.63404   2.64213   2.64809   2.65113
 Alpha virt. eigenvalues --    2.65239   2.65684   2.65744   2.65978   2.66423
 Alpha virt. eigenvalues --    2.66791   2.67065   2.67183   2.67460   2.67648
 Alpha virt. eigenvalues --    2.67804   2.68020   2.68178   2.68311   2.68868
 Alpha virt. eigenvalues --    2.68883   2.69072   2.69613   2.70006   2.70156
 Alpha virt. eigenvalues --    2.70484   2.71010   2.71237   2.71621   2.72104
 Alpha virt. eigenvalues --    2.73449   2.73687   2.74273   2.74484   2.74769
 Alpha virt. eigenvalues --    2.74928   2.75591   2.75637   2.76487   2.77162
 Alpha virt. eigenvalues --    2.77612   2.78095   2.78476   2.78540   2.78748
 Alpha virt. eigenvalues --    2.79203   2.79584   2.79654   2.79743   2.80211
 Alpha virt. eigenvalues --    2.81343   2.81406   2.82055   2.82616   2.83182
 Alpha virt. eigenvalues --    2.84059   2.84107   2.84867   2.84991   2.85253
 Alpha virt. eigenvalues --    2.85406   2.85614   2.86196   2.86446   2.86833
 Alpha virt. eigenvalues --    2.86875   2.87564   2.87697   2.88329   2.88473
 Alpha virt. eigenvalues --    2.88613   2.88795   2.88952   2.89145   2.89487
 Alpha virt. eigenvalues --    2.90257   2.90420   2.90852   2.90929   2.91849
 Alpha virt. eigenvalues --    2.91892   2.92253   2.92434   2.93344   2.93587
 Alpha virt. eigenvalues --    2.93725   2.94117   2.94945   2.95415   2.95546
 Alpha virt. eigenvalues --    2.96459   2.96486   2.97808   2.99286   3.00546
 Alpha virt. eigenvalues --    3.01448   3.03397   3.03994   3.04046   3.06180
 Alpha virt. eigenvalues --    3.06853   3.07125   3.07360   3.07898   3.08330
 Alpha virt. eigenvalues --    3.09997   3.11314   3.12888   3.13142   3.14016
 Alpha virt. eigenvalues --    3.17451   3.17996   3.18587   3.19720   3.19752
 Alpha virt. eigenvalues --    3.22014   3.22720   3.23302   3.27151   3.27764
 Alpha virt. eigenvalues --    3.29430   3.30327   3.30848   3.32038   3.35940
 Alpha virt. eigenvalues --    3.37877   3.38203   3.46035   3.61358   3.62900
 Alpha virt. eigenvalues --    3.65746   4.08476   4.08688   4.12979   4.18957
 Alpha virt. eigenvalues --    4.22814   4.25677   4.28393   4.28753   4.29090
 Alpha virt. eigenvalues --    4.29926   4.30556   4.30989   4.31247   4.31307
 Alpha virt. eigenvalues --    4.31755   4.31803   4.32148   4.33128   4.34065
 Alpha virt. eigenvalues --    4.34247   4.34830   4.35260   4.36132   4.36241
 Alpha virt. eigenvalues --    4.36684   4.37026   4.37324   4.37875   4.38853
 Alpha virt. eigenvalues --    4.39109   4.40189   4.40639   4.41441   4.42667
 Alpha virt. eigenvalues --    4.42887   4.44037   4.44654   4.45651   4.45873
 Alpha virt. eigenvalues --    4.46343   4.46915   4.47270   4.48342   4.48784
 Alpha virt. eigenvalues --    4.48919   4.49490   4.49719   4.49975   4.51024
 Alpha virt. eigenvalues --    4.51162   4.51470   4.51779   4.51847   4.52001
 Alpha virt. eigenvalues --    4.52542   4.53310   4.53814   4.55339   4.56050
 Alpha virt. eigenvalues --    4.57808   4.58387   4.59792   4.60397   4.60762
 Alpha virt. eigenvalues --    4.61803   4.61990   4.62573   4.62712   4.62953
 Alpha virt. eigenvalues --    4.65182   4.65283   4.66106   4.67222   4.67491
 Alpha virt. eigenvalues --    4.69904   4.70510   4.71993   4.73265   4.74148
 Alpha virt. eigenvalues --    4.75285   4.75587   4.75711   4.76868   4.77794
 Alpha virt. eigenvalues --    4.78462   4.80737   4.81618   4.89228   4.89469
 Alpha virt. eigenvalues --    4.90731   4.95589   4.95914   5.00504   5.01858
 Alpha virt. eigenvalues --    5.03022
          Condensed to atoms (all electrons):
 Mulliken charges:
               1
     1  H    0.146563
     2  C   -0.484658
     3  H    0.168411
     4  C   -0.374387
     5  H    0.151493
     6  H    0.155996
     7  C    0.135517
     8  C   -0.210697
     9  H    0.138490
    10  C   -0.209183
    11  H    0.155181
    12  C    0.362324
    13  O   -0.721817
    14  H    0.474441
    15  C   -0.241099
    16  H    0.178490
    17  C   -0.214742
    18  H    0.149308
    19  H    0.168581
    20  H    0.149183
    21  C   -0.483895
    22  H    0.150620
    23  C   -0.117490
    24  H    0.144445
    25  C   -0.485385
    26  H    0.151447
    27  H    0.155813
    28  H    0.180279
    29  C   -0.481654
    30  H    0.182601
    31  H    0.141413
    32  H    0.148165
    33  H    0.155329
    34  H    0.134581
    35  C   -0.491860
    36  H    0.156529
    37  C   -0.383269
    38  H    0.146293
    39  H    0.151073
    40  C    0.591642
    41  O   -0.590390
    42  O   -0.577133
    43  H    0.175485
    44  H    0.166898
    45  C   -0.603528
    46  H    0.208580
    47  H    0.222021
    48  C    0.589273
    49  O   -0.503505
    50  N   -0.610995
    51  H    0.334700
    52  C   -0.180382
    53  H    0.214527
    54  C   -0.302179
    55  H    0.137170
    56  H    0.154563
    57  C   -0.108678
    58  H    0.140743
    59  C   -0.491166
    60  H    0.177924
    61  H    0.148048
    62  H    0.156946
    63  C   -0.518198
    64  H    0.148730
    65  H    0.199048
    66  H    0.170345
    67  H    0.161730
    68  H    0.149266
    69  C   -0.486905
    70  H    0.156082
    71  C   -0.115197
    72  H    0.138697
    73  C   -0.494664
    74  H    0.156088
    75  H    0.159858
    76  H    0.177781
    77  C   -0.512910
    78  H    0.151203
    79  H    0.142803
    80  H    0.207656
    81  H    0.154555
    82  H    0.172650
    83  C   -0.486229
    84  H    0.152674
    85  C   -0.376303
    86  H    0.157524
    87  H    0.159003
    88  C    0.148440
    89  C   -0.212497
    90  H    0.142812
    91  C   -0.164412
    92  H    0.161154
    93  C   -0.184487
    94  H    0.176711
    95  C   -0.171635
    96  H    0.216862
    97  C   -0.218674
    98  H    0.146725
    99  H    0.167556
   100  H    0.154089
   101  C   -0.485591
   102  H    0.149652
   103  C   -0.119128
   104  H    0.158389
   105  C   -0.489021
   106  H    0.162621
   107  H    0.148752
   108  H    0.164090
   109  C   -0.496666
   110  H    0.166575
   111  H    0.165070
   112  H    0.157382
   113  H    0.161226
   114  H    0.184531
   115  C   -0.499196
   116  H    0.162164
   117  C   -0.317906
   118  H    0.179476
   119  H    0.170309
   120  C   -0.444231
   121  H    0.182891
   122  H    0.197351
   123  S    0.063896
   124  C   -0.648533
   125  H    0.198667
   126  H    0.206366
   127  H    0.208262
   128  H    0.159068
   129  H    0.158548
   130  C   -0.499771
   131  H    0.155125
   132  C   -0.291972
   133  H    0.152526
   134  H    0.144655
   135  C   -0.107249
   136  H    0.141641
   137  C   -0.494941
   138  H    0.150298
   139  H    0.151852
   140  H    0.168218
   141  C   -0.498498
   142  H    0.168563
   143  H    0.165837
   144  H    0.171588
   145  H    0.161871
   146  H    0.150237
   147  C   -0.492949
   148  H    0.163549
   149  C   -0.113388
   150  H    0.140283
   151  C   -0.508819
   152  H    0.201788
   153  H    0.141404
   154  H    0.153884
   155  C   -0.488145
   156  H    0.171851
   157  H    0.147491
   158  H    0.162573
   159  H    0.147355
   160  H    0.166617
   161  C   -0.497921
   162  H    0.193623
   163  C   -0.398879
   164  H    0.185099
   165  H    0.200401
   166  C    0.605683
   167  O   -0.481491
   168  O   -0.622316
   169  H    0.481323
   170  H    0.154114
   171  H    0.156156
   172  C   -0.492174
   173  H    0.138652
   174  C   -0.528985
   175  H    0.161271
   176  H    0.225137
   177  H    0.141921
   178  H    0.159958
   179  H    0.162867
   180  C   -0.481704
   181  H    0.143244
   182  C   -0.374817
   183  H    0.154951
   184  H    0.161062
   185  C    0.028644
   186  C   -0.024168
   187  H    0.181607
   188  N   -0.721643
   189  H    0.412062
   190  C    0.296860
   191  C   -0.207044
   192  H    0.172446
   193  C   -0.193353
   194  H    0.137290
   195  C   -0.181945
   196  H    0.133569
   197  C   -0.227032
   198  H    0.139467
   199  C    0.050582
   200  H    0.163235
   201  C    0.491627
   202  O   -0.631819
   203  C   -0.312247
   204  C    0.216010
   205  C   -0.234310
   206  C   -0.324969
   207  C   -0.425269
   208  C   -0.421020
   209  C   -0.312482
   210  C   -0.135992
   211  C   -0.113865
   212  C   -0.117447
   213  C    0.042198
   214  C   -0.299164
   215  C   -0.333758
   216  C   -0.328271
   217  C   -0.341489
   218  C    0.123395
   219  C   -0.567160
   220  O   -0.659781
   221  H    0.192194
   222  H    0.272632
   223  H    0.147714
   224  H    0.163445
   225  H    0.214829
   226  H    0.194792
   227  H    0.162740
   228  H    0.252514
   229  H    0.136122
   230  H    0.177968
   231  H    0.170922
   232  H    0.116300
   233  H    0.116611
   234  H    0.146692
   235  H    0.140676
   236  H    0.188970
   237  H    0.137769
   238  H    0.150709
   239  H    0.186051
   240  H    0.148316
   241  H    0.145608
   242  H    0.138897
   243  H    0.157599
   244  H    0.148118
   245  H    0.209080
   246  H    0.401381
 Sum of Mulliken charges =  -1.00000
[...]
   47 Atom       -0.305158      0.150177      0.154981
   48 Atom       -0.370084      0.094131      0.275953
   49 Atom       -0.844629     -0.656036      1.500665
   50 Atom       -0.481280     -0.452061      0.933341
   51 Atom       -0.395468      0.161731      0.233737
   52 Atom       -0.293577      0.097469      0.196109
   53 Atom       -0.285203      0.137485      0.147718
   54 Atom       -0.032907      0.013853      0.019054
   55 Atom       -0.290706      0.141646      0.149060
   56 Atom       -0.294313      0.144016      0.150298
   57 Atom       -0.036887      0.000053      0.036833
   58 Atom       -0.285183      0.141115      0.144068
   59 Atom       -0.028829      0.003796      0.025033
   60 Atom       -0.304378      0.149008      0.155369
   61 Atom       -0.305185      0.149435      0.155751
   62 Atom       -0.304494      0.148685      0.155809
   63 Atom       -0.054560      0.000155      0.054405
   64 Atom       -0.305961      0.148814      0.157147
   65 Atom       -0.293933      0.144010      0.149923
   66 Atom       -0.304705      0.148311      0.156393
   67 Atom       -0.287027      0.136519      0.150507
   68 Atom       -0.305379      0.150390      0.154989
   69 Atom       -0.013268      0.001968      0.011300
   70 Atom       -0.307501      0.151216      0.156286
   71 Atom       -0.022820     -0.002486      0.025306
   72 Atom       -0.285330      0.142509      0.142821
   73 Atom       -0.029000      0.005424      0.023576
   74 Atom       -0.305933      0.150333      0.155600
   75 Atom       -0.306453      0.150223      0.156231
   76 Atom       -0.304239      0.149410      0.154828
   77 Atom       -0.037860     -0.012458      0.050318
   78 Atom       -0.308101      0.150343      0.157759
   79 Atom       -0.305948      0.150115      0.155834
   80 Atom       -0.291342      0.144200      0.147141
   81 Atom       -0.305287      0.150325      0.154962
   82 Atom       -0.303267      0.147861      0.155407
   83 Atom       -0.050103      0.019009      0.031094
   84 Atom       -0.305677      0.150107      0.155570
   85 Atom       -0.025151     -0.011954      0.037105
   86 Atom       -0.292676      0.144115      0.148561
   87 Atom       -0.293009      0.144074      0.148934
   88 Atom       -0.275689      0.097615      0.178074
   89 Atom       -0.230715      0.075944      0.154772
   90 Atom       -0.312152      0.145473      0.166679
   91 Atom       -0.272965      0.108070      0.164894
   92 Atom       -0.312268      0.147212      0.165056
   93 Atom       -0.269433      0.118098      0.151335
   94 Atom       -0.311718      0.147205      0.164512
   95 Atom       -0.320051      0.141741      0.178309
   96 Atom       -0.296752      0.140692      0.156060
   97 Atom       -0.242463      0.081215      0.161248
   98 Atom       -0.312493      0.146286      0.166206
   99 Atom       -0.303992      0.148129      0.155863
  100 Atom       -0.303845      0.149098      0.154747
  101 Atom       -0.016212      0.003373      0.012839
  102 Atom       -0.306280      0.150523      0.155757
  103 Atom       -0.024339     -0.017183      0.041522
  104 Atom       -0.283555      0.140285      0.143270
  105 Atom       -0.020581      0.004594      0.015986
  106 Atom       -0.301870      0.147515      0.154355
  107 Atom       -0.306187      0.150286      0.155901
  108 Atom       -0.305195      0.149477      0.155717
  109 Atom       -0.021833      0.008615      0.013218
  110 Atom       -0.302761      0.148225      0.154537
  111 Atom       -0.303921      0.149266      0.154655
  112 Atom       -0.307060      0.150693      0.156367
  113 Atom       -0.305092      0.150009      0.155083
  114 Atom       -0.301531      0.146561      0.154970
  115 Atom       -0.038113      0.010374      0.027739
  116 Atom       -0.306339      0.150200      0.156139
  117 Atom       -0.059913      0.007369      0.052545
  118 Atom       -0.290129      0.141810      0.148319
  119 Atom       -0.290210      0.141211      0.148999
  120 Atom       -0.215941      0.088403      0.127538
  121 Atom       -0.293136      0.142405      0.150731
  122 Atom       -0.290760      0.139471      0.151289
  123 Atom       -2.284653     -0.569464      2.854116
  124 Atom       -0.219295      0.102105      0.117190
  125 Atom       -0.303654      0.146950      0.156705
  126 Atom       -0.302897      0.146724      0.156172
  127 Atom       -0.306453      0.146599      0.159854
  128 Atom       -0.304542      0.148616      0.155925
  129 Atom       -0.304991      0.150289      0.154703
  130 Atom       -0.018837      0.005743      0.013095
  131 Atom       -0.307308      0.151357      0.155952
  132 Atom       -0.029753      0.000587      0.029166
  133 Atom       -0.293071      0.142686      0.150386
  134 Atom       -0.293692      0.144162      0.149530
  135 Atom       -0.027175     -0.001569      0.028744
  136 Atom       -0.285205      0.141716      0.143489
  137 Atom       -0.019824      0.005778      0.014047
  138 Atom       -0.307524      0.151474      0.156050
  139 Atom       -0.304686      0.149551      0.155135
  140 Atom       -0.304622      0.149761      0.154861
  141 Atom       -0.034399      0.013146      0.021253
  142 Atom       -0.304174      0.149477      0.154697
  143 Atom       -0.301915      0.148194      0.153721
  144 Atom       -0.306987      0.150451      0.156537
  145 Atom       -0.304389      0.149699      0.154690
  146 Atom       -0.305644      0.150714      0.154930
  147 Atom       -0.006009      0.000324      0.005685
  148 Atom       -0.304774      0.149764      0.155010
  149 Atom       -0.030857     -0.003550      0.034406
  150 Atom       -0.284728      0.141478      0.143250
  151 Atom       -0.039760     -0.010968      0.050729
  152 Atom       -0.294180      0.144693      0.149488
  153 Atom       -0.305941      0.149701      0.156239
  154 Atom       -0.304002      0.148171      0.155831
  155 Atom       -0.034958      0.000363      0.034595
  156 Atom       -0.303887      0.148113      0.155774
  157 Atom       -0.305448      0.148894      0.156554
  158 Atom       -0.303917      0.148184      0.155734
  159 Atom       -0.305738      0.150817      0.154921
  160 Atom       -0.305624      0.147639      0.157985
  161 Atom       -0.066601      0.016644      0.049956
  162 Atom       -0.302216      0.145903      0.156313
  163 Atom       -0.059270      0.019518      0.039751
  164 Atom       -0.294703      0.143683      0.151020
  165 Atom       -0.291531      0.141107      0.150424
  166 Atom       -0.405096      0.051829      0.353266
  167 Atom       -0.769242     -0.703918      1.473160
  168 Atom       -1.312518      0.506924      0.805594
  169 Atom       -0.271803      0.122905      0.148898
  170 Atom       -0.306926      0.149993      0.156933
  171 Atom       -0.305684      0.151434      0.154250
  172 Atom       -0.010255     -0.000811      0.011066
  173 Atom       -0.305239      0.150579      0.154660
  174 Atom       -0.085817     -0.001283      0.087100
  175 Atom       -0.303721      0.148487      0.155234
  176 Atom       -0.281715      0.137527      0.144188
  177 Atom       -0.306936      0.149090      0.157847
  178 Atom       -0.308009      0.151868      0.156141
  179 Atom       -0.304614      0.149017      0.155597
  180 Atom       -0.034762      0.010487      0.024275
  181 Atom       -0.304773      0.150103      0.154669
  182 Atom       -0.034574     -0.001777      0.036351
  183 Atom       -0.294500      0.146321      0.148180
  184 Atom       -0.292860      0.145114      0.147746
  185 Atom       -0.079519      0.014216      0.065303
  186 Atom       -0.122851     -0.084626      0.207477
  187 Atom       -0.325911      0.150199      0.175712
  188 Atom       -0.419626     -0.101833      0.521459
  189 Atom       -0.275018      0.110942      0.164076
  190 Atom       -0.149533     -0.072466      0.221999
  191 Atom       -0.199546      0.069977      0.129569
  192 Atom       -0.314408      0.147165      0.167243
  193 Atom       -0.209249      0.074755      0.134494
  194 Atom       -0.314178      0.146523      0.167655
  195 Atom       -0.196429      0.066883      0.129547
  196 Atom       -0.314664      0.145907      0.168757
  197 Atom       -0.228656      0.077765      0.150891
  198 Atom       -0.315149      0.148584      0.166565
  199 Atom       -0.198938      0.081836      0.117103
  200 Atom       -0.304370      0.148780      0.155591
  201 Atom       -0.566908      0.158802      0.408106
  202 Atom       -0.903491     -0.459688      1.363179
  203 Atom       -0.114557      0.018230      0.096327
  204 Atom       -0.598666      0.283187      0.315478
  205 Atom       -0.095938     -0.042205      0.138143
  206 Atom       -0.054868      0.007229      0.047639
  207 Atom       -0.049174     -0.001723      0.050898
  208 Atom       -0.093234     -0.014063      0.107297
  209 Atom       -0.040152     -0.006595      0.046746
  210 Atom       -0.023509     -0.017442      0.040951
  211 Atom       -0.031356      0.001612      0.029744
  212 Atom       -0.026255     -0.003677      0.029931
  213 Atom       -0.042151      0.003408      0.038743
  214 Atom       -0.013470     -0.006238      0.019707
  215 Atom       -0.033804     -0.014817      0.048621
  216 Atom       -0.071879      0.006725      0.065154
  217 Atom       -0.017801      0.000380      0.017420
  218 Atom       -0.309507      0.131406      0.178100
  219 Atom       -0.035844     -0.002506      0.038349
  220 Atom       -1.663658     -0.100573      1.764231
  221 Atom       -0.295709      0.133812      0.161897
  222 Atom       -0.203787      0.101445      0.102342
  223 Atom       -0.287689      0.140923      0.146766
  224 Atom       -0.297536      0.144746      0.152790
  225 Atom       -0.285209      0.138566      0.146643
  226 Atom       -0.286187      0.137431      0.148756
  227 Atom       -0.295993      0.140292      0.155701
  228 Atom       -0.241596      0.118490      0.123106
  229 Atom       -0.290612      0.143673      0.146939
  230 Atom       -0.291379      0.143468      0.147911
  231 Atom       -0.284145      0.137895      0.146250
  232 Atom       -0.278877      0.138739      0.140139
  233 Atom       -0.278197      0.136896      0.141301
  234 Atom       -0.291451      0.142693      0.148757
  235 Atom       -0.297219      0.147005      0.150214
  236 Atom       -0.287486      0.142288      0.145198
  237 Atom       -0.297074      0.144472      0.152602
  238 Atom       -0.302873      0.149204      0.153669
  239 Atom       -0.291644      0.144492      0.147152
  240 Atom       -0.301261      0.149895      0.151366
  241 Atom       -0.297389      0.145275      0.152114
  242 Atom       -0.281885      0.133697      0.148188
  243 Atom       -0.302264      0.148786      0.153479
  244 Atom       -0.301031      0.149336      0.151695
  245 Atom       -0.300052      0.147314      0.152738
  246 Atom       -0.454733      0.198525      0.256209
 -----------------------------------------------------
 Unable to Open any file for archive entry.
 1\1\GINC-EXP-2-19\SP\RwB97XD\6-31G(d)\C84H151N2O8S1(1-)\HKLEM\11-Jul-2
 024\0\\# wb97xd/6-31G(d) prop=efg\\19nt_mm_min_distance_cutoff3_nowat_
 xtb_conf_1\\-1,1\H,0,46.8576,33.6601,30.8677\C,0,46.354,34.588,30.601\
 H,0,46.5041,34.7734,29.5398\C,0,44.8603,34.5063,30.9159\H,0,44.4161,33
 .6838,30.3504\H,0,44.7275,34.2982,31.9803\C,0,44.1817,35.7993,30.5604\
 C,0,43.6247,35.9921,29.3031\H,0,43.6467,35.1859,28.5822\C,0,43.0381,37
 .1931,28.9598\H,0,42.6007,37.3405,27.984\C,0,42.9968,38.2415,29.8777\O
 ,0,42.4076,39.3964,29.5176\H,0,42.4423,40.0367,30.2746\C,0,43.565,38.0
 585,31.1363\H,0,43.5387,38.8695,31.849\C,0,44.1481,36.8517,31.4657\H,0
 ,44.5824,36.7235,32.4479\H,0,46.8113,35.4036,31.1565\H,0,48.9383,38.60
 54,26.5813\C,0,48.063,39.251,26.62\H,0,47.4201,39.0094,25.7755\C,0,47.
 305,39.0552,27.9335\H,0,47.9785,39.3053,28.7614\C,0,46.0913,39.9775,28
 .0014\H,0,46.3911,41.0181,27.898\H,0,45.3906,39.7361,27.205\H,0,45.576
 1,39.8584,28.9512\C,0,46.8659,37.6018,28.0891\H,0,46.3219,37.4662,29.0
 207\H,0,47.7268,36.9354,28.0875\H,0,46.2072,37.3172,27.2709\H,0,48.392
 1,40.2831,26.5192\H,0,36.2105,47.2312,32.5637\C,0,37.164,46.712,32.465
 \H,0,36.9697,45.6568,32.2801\C,0,37.9934,47.3043,31.3309\H,0,38.119,48
 .38,31.494\H,0,37.5035,47.1555,30.3667\C,0,39.417,46.6842,31.2556\O,0,
 40.0664,46.6437,32.3251\O,0,39.8141,46.305,30.1467\H,0,37.7112,46.7981
 ,33.4019\H,0,42.5367,47.0923,22.5818\C,0,43.019,47.115,23.555\H,0,42.4
 695,46.4786,24.2454\H,0,43.0284,48.1261,23.9483\C,0,44.4668,46.6157,23
 .4734\O,0,45.3557,47.0943,24.1472\N,0,44.702,45.6071,22.5915\H,0,43.92
 ,45.1932,22.1079\C,0,45.983,44.912,22.455\H,0,46.7019,45.4773,23.0468\
 C,0,45.8954,43.4624,22.9357\H,0,45.2545,42.9009,22.2491\H,0,46.8955,43
 .0267,22.8853\C,0,45.3438,43.3059,24.3589\H,0,44.3469,43.7597,24.3959\
 C,0,45.2064,41.8224,24.6956\H,0,44.7477,41.6997,25.673\H,0,44.588,41.3
 108,23.9603\H,0,46.1845,41.3464,24.7148\C,0,46.2228,44.0012,25.3943\H,
 0,47.2472,43.6394,25.3314\H,0,46.2185,45.0776,25.2491\H,0,45.8479,43.7
 968,26.3945\H,0,46.2857,44.9397,21.4034\H,0,51.5065,46.0637,23.6759\C,
 0,51.26,46.169,24.731\H,0,51.6088,47.1405,25.0687\C,0,49.7517,46.0336,
 24.9463\H,0,49.4427,45.0409,24.5971\C,0,49.4068,46.1499,26.4282\H,0,49
 .9229,45.3864,27.0063\H,0,49.7005,47.1246,26.8098\H,0,48.337,46.0308,2
 6.5794\C,0,48.9932,47.0837,24.138\H,0,49.3096,48.0839,24.4247\H,0,49.1
 804,46.9592,23.0727\H,0,47.9222,47.0146,24.3136\H,0,51.7949,45.4004,25
 .2855\H,0,49.3698,43.2392,37.5688\C,0,50.213,42.685,37.162\H,0,50.9224
 ,42.4898,37.9638\C,0,49.732,41.375,36.5349\H,0,50.5929,40.8308,36.1383
 \H,0,49.267,40.7581,37.3075\C,0,48.743,41.6343,35.4311\C,0,49.1787,41.
 8612,34.132\H,0,50.2381,41.8321,33.9132\C,0,48.2726,42.1137,33.117\H,0
 ,48.6273,42.2792,32.1093\C,0,46.9159,42.1465,33.3897\H,0,46.206,42.338
 9,32.5988\C,0,46.4693,41.9298,34.6826\H,0,45.4128,41.957,34.8997\C,0,4
 7.3799,41.6771,35.6936\H,0,47.0275,41.5033,36.7015\H,0,50.697,43.307,3
 6.412\H,0,50.6634,45.9334,32.3131\C,0,50.84,46.417,31.354\H,0,51.541,4
 5.8091,30.7857\C,0,49.5252,46.5766,30.5929\H,0,49.7387,47.073,29.6396\
 C,0,48.8997,45.2141,30.3076\H,0,48.6538,44.7118,31.2412\H,0,49.5856,44
 .584,29.7447\H,0,47.9859,45.3259,29.7284\C,0,48.5538,47.4447,31.3877\H
 ,0,48.3056,46.965,32.3325\H,0,47.6302,47.5963,30.8323\H,0,48.9964,48.4
 158,31.5958\H,0,51.2956,47.3884,31.5338\H,0,52.7418,50.8851,27.1409\C,
 0,52.401,50.618,26.143\H,0,53.211,50.1141,25.6209\C,0,51.1828,49.7112,
 26.2338\H,0,51.4612,48.7885,26.7474\H,0,50.8493,49.4582,25.2237\C,0,50
 .0145,50.3445,26.9717\H,0,49.7923,51.3378,26.5776\H,0,49.1265,49.7164,
 26.8871\S,0,50.3598,50.5153,28.7631\C,0,48.6597,50.7832,29.3333\H,0,48
 .2326,51.6365,28.8136\H,0,48.0677,49.89,29.1534\H,0,48.7109,50.9856,30
 .3982\H,0,52.1583,51.5325,25.6052\H,0,50.2754,51.3802,33.4536\C,0,49.7
 55,50.767,34.187\H,0,49.9049,51.2128,35.1672\C,0,48.2735,50.6703,33.84
 48\H,0,48.1742,50.2788,32.8299\H,0,47.8276,51.6679,33.8566\C,0,47.4879
 ,49.7567,34.7922\H,0,48.0472,48.8222,34.9136\C,0,47.3068,50.396,36.166
 4\H,0,48.2663,50.6104,36.6309\H,0,46.7504,51.3275,36.0785\H,0,46.7559,
 49.7273,36.8237\C,0,46.1293,49.4265,34.1805\H,0,46.2581,48.9059,33.234
 5\H,0,45.5566,50.3346,34.0016\H,0,45.5497,48.7895,34.8421\H,0,50.2083,
 49.7777,34.1865\H,0,47.3301,46.5938,37.2327\C,0,46.253,46.438,37.253\H
 ,0,45.7695,47.3524,36.9157\C,0,45.8571,45.2711,36.3488\H,0,46.3487,44.
 3622,36.715\C,0,44.3465,45.0551,36.386\H,0,44.0672,44.1801,35.8047\H,0
 ,44.0065,44.9074,37.4099\H,0,43.8341,45.9239,35.9764\C,0,46.3239,45.52
 37,34.9182\H,0,46.0687,44.6807,34.2819\H,0,47.404,45.6587,34.8865\H,0,
 45.8518,46.4172,34.5166\H,0,45.9518,46.2502,38.2821\H,0,43.3093,40.763
 5,37.6038\C,0,42.317,41.201,37.522\H,0,42.4271,42.282,37.4868\C,0,41.6
 241,40.7123,36.2576\H,0,41.5441,39.6242,36.2385\H,0,40.6105,41.1176,36
 .1997\C,0,42.3308,41.1542,34.9887\O,0,43.177,42.0147,34.9472\O,0,41.89
 43,40.4904,33.9396\H,0,42.2762,40.8168,33.0663\H,0,41.739,40.9301,38.4
 023\H,0,39.0124,45.1728,36.0913\C,0,39.963,44.652,35.992\H,0,39.9698,4
 3.8161,36.6911\C,0,40.1662,44.1696,34.5636\H,0,41.1366,43.692,34.4587\
 H,0,40.118,45.,33.8637\H,0,39.3983,43.4482,34.2893\H,0,40.7582,45.3361
 ,36.2794\H,0,41.7023,49.4258,37.9806\C,0,42.518,50.112,37.763\H,0,43.1
 347,50.2141,38.655\C,0,43.3458,49.593,36.5871\H,0,44.172,50.2821,36.40
 11\H,0,43.7614,48.617,36.85\C,0,42.5101,49.4635,35.3556\C,0,41.8332,48
 .3519,34.9332\H,0,41.8141,47.369,35.3646\N,0,41.1118,48.6178,33.8112\H
 ,0,40.5937,47.9131,33.2668\C,0,41.3166,49.9131,33.4661\C,0,40.8058,50.
 6528,32.405\H,0,40.1358,50.1967,31.6909\C,0,41.1876,51.9725,32.2978\H,
 0,40.8081,52.577,31.4844\C,0,42.0606,52.5529,33.2243\H,0,42.3379,53.59
 14,33.1008\C,0,42.5652,51.8315,34.2825\H,0,43.2355,52.2942,34.9943\C,0
 ,42.1956,50.4939,34.4219\H,0,42.0907,51.0831,37.5218\C,0,42.5817,42.39
 68,31.0934\O,0,42.6039,41.2143,31.4991\C,0,42.9529,43.496,31.9061\C,0,
 42.9117,44.7882,31.4792\C,0,42.5886,45.1498,30.0772\C,0,42.7756,43.946
 6,29.151\C,0,42.0732,42.7224,29.7176\C,0,43.0419,45.89,32.4559\C,0,43.
 8492,47.073,31.9323\C,0,43.2654,47.5282,30.6\C,0,43.362,46.3872,29.575
 2\C,0,43.9906,48.7374,30.0251\C,0,43.335,49.2351,28.7287\C,0,43.4567,4
 8.1258,27.6881\C,0,42.8298,46.8263,28.203\C,0,44.1226,49.9986,30.879\C
 ,0,44.4062,51.1135,29.8571\C,0,44.1885,50.4963,28.4528\C,0,41.8686,49.
 6433,28.8982\O,0,43.6617,51.4068,27.521\H,0,43.2179,43.2799,32.9329\H,
 0,41.5115,45.4434,30.0882\H,0,43.8453,43.7359,29.041\H,0,42.3676,44.15
 89,28.1634\H,0,41.0054,42.9442,29.8238\H,0,42.174,41.8582,29.0582\H,0,
 43.435,45.5286,33.4061\H,0,42.0022,46.2259,32.6148\H,0,44.897,46.7827,
 31.8052\H,0,43.8087,47.8882,32.6561\H,0,42.214,47.7663,30.7674\H,0,44.
 422,46.1154,29.4673\H,0,45.0077,48.4141,29.7612\H,0,44.5127,47.953,27.
 4639\H,0,42.9716,48.4201,26.755\H,0,41.7473,46.9328,28.2766\H,0,43.038
 4,46.0482,27.4664\H,0,44.9271,49.9131,31.6056\H,0,43.2008,50.1887,31.4
 256\H,0,45.4208,51.5001,29.9528\H,0,43.7248,51.955,29.9944\H,0,45.148,
 50.194,28.0197\H,0,41.7647,50.4507,29.6188\H,0,41.4654,49.9661,27.9378
 \H,0,41.2634,48.8103,29.2388\H,0,42.7878,51.6671,27.8351\\Version=ES64
 L-G16RevC.01\State=1-A\HF=-4400.49708\RMSD=8.238e-09\Dipole=3.3789308,
 -0.7425944,-2.2485878\Quadrupole=-13.3328683,-34.2088401,47.5417083,-5
 .3689339,21.6587041,-2.9956386\PG=C01 [X(C84H151N2O8S1)]\\@
 The archive entry for this job was punched.


 NOBODY LOSES ALL THE TIME
 I HAD AN UNCLE NAMED
 SOL WHO WAS A BORN FAILURE AND
 NEARLY EVERYBODY SAID HE SHOULD HAVE GONE
 INTO VAUDEVILLE PERHAPS BECAUSE MY UNCLE SOL COULD
 SING MCCANN HE WAS A DIVER ON XMAS EVE LIKE HELL ITSELF WHICH
 MAY OR MAY NOT ACCOUNT FOR THE FACT THAT MY UNCLE
 SOL INDULGED IN THAT POSSIBLY MOST INEXCUSABLE
 OF ALL TO USE A HIGHFALOOTIN PHRASE
 LUXURIES THAT IS OR TO
 WIT FARMING AND BE
 IT NEEDLESSLY
 ADDED
 MY UNCLE SOL'S FARM     
 FAILED BECAUSE THE CHICKENS
 ATE THE VEGETABLES SO
 MY UNCLE SOL HAD A
 CHICKEN FARM TILL THE
 SKUNKS ATE THE CHICKENS WHEN 
 MY UNCLE SOL
 HAD A SKUNK FARM BUT
 THE SKUNKS CAUGHT COLD AND
 DIED AND SO
 MY UNCLE SOL IMITATED THE
 SKUNKS IN A SUBTLE MANNER
 OR BY DROWNING HIMSELF IN THE WATERTANK
 BUT SOMEBODY WHO'D GIVEN MY UNCLE SOL A VICTOR     
 VICTROLA AND RECORDS WHILE HE LIVED PRESENTED TO
 HIM UPON THE AUSPICIOUS OCCASION OF HIS DECEASE A
 SCRUMPTIOUS NOT TO MENTION SPLENDIFEROUS FUNERAL WITH
 TALL BOYS IN BLACK GLOVES AND FLOWERS AND EVERYTHING AND
 I REMEMBER WE ALL CRIED LIKE THE MISSOURI
 WHEN MY UNCLE SOL'S COFFIN LURCHED BECAUSE     
 SOMEBODY PRESSED A BUTTON
 (AND DOWN WENT
 MY UNCLE
 SOL
 AND STARTED A WORM FARM)
           E. E. CUMMINGS
 Job cpu time:       0 days  2 hours 50 minutes 40.0 seconds.
 Elapsed time:       0 days  0 hours  5 minutes 41.5 seconds.
 File lengths (MBytes):  RWF=   1612 Int=      0 D2E=      0 Chk=    173 Scr=      1
 Normal termination of Gaussian 16 at Thu Jul 11 11:57:04 2024.
