 Entering Gaussian System, Link 0=g16
 Initial command:
 /cm/shared/apps/spack/cpu/opt/spack/linux-centos8-zen/gcc-8.3.1/gaussian-16.C.01-po5bqktfeugvmjyga3v7eigbecnokxng/g16/l1.exe "/scratch/hklem/job_32090251/Gau-1017451.inp" -scrdir="/scratch/hklem/job_32090251/"
 Entering Link 1 = /cm/shared/apps/spack/cpu/opt/spack/linux-centos8-zen/gcc-8.3.1/gaussian-16.C.01-po5bqktfeugvmjyga3v7eigbecnokxng/g16/l1.exe PID=   1017454.
  
 Copyright (c) 1988-2019, Gaussian, Inc.  All Rights Reserved.
  
 This is part of the Gaussian(R) 16 program.  It is based on
 the Gaussian(R) 09 system (copyright 2009, Gaussian, Inc.),
 the Gaussian(R) 03 system (copyright 2003, Gaussian, Inc.),
 the Gaussian(R) 98 system (copyright 1998, Gaussian, Inc.),
 the Gaussian(R) 94 system (copyright 1995, Gaussian, Inc.),
 the Gaussian 92(TM) system (copyright 1992, Gaussian, Inc.),
 the Gaussian 90(TM) system (copyright 1990, Gaussian, Inc.),
 the Gaussian 88(TM) system (copyright 1988, Gaussian, Inc.),
 the Gaussian 86(TM) system (copyright 1986, Carnegie Mellon
 University), and the Gaussian 82(TM) system (copyright 1983,
 Carnegie Mellon University). Gaussian is a federally registered
 trademark of Gaussian, Inc.
  
 This software contains proprietary and confidential information,
 including trade secrets, belonging to Gaussian, Inc.
  
 This software is provided under written license and may be
 used, copied, transmitted, or stored only in accord with that
 written license.
  
 The following legend is applicable only to US Government
 contracts under FAR:
  
                    RESTRICTED RIGHTS LEGEND
  
 Use, reproduction and disclosure by the US Government is
 subject to restrictions as set forth in subparagraphs (a)
 and (c) of the Commercial Computer Software - Restricted
 Rights clause in FAR 52.227-19.
  
 Gaussian, Inc.
 340 Quinnipiac St., Bldg. 40, Wallingford CT 06492
  
  
 ---------------------------------------------------------------
 Warning -- This program may not be used in any manner that
 competes with the business of Gaussian, Inc. or will provide
 assistance to any competitor of Gaussian, Inc.  The licensee
 of this program is prohibited from giving any competitor of
 Gaussian, Inc. access to this program.  By using this program,
 the user acknowledges that Gaussian, Inc. is engaged in the
 business of creating and licensing software in the field of
 computational chemistry and represents and warrants to the
 licensee that it is not a competitor of Gaussian, Inc. and that
 it will not use this program in any manner prohibited above.
 ---------------------------------------------------------------
  

 Cite this work as:
 Gaussian 16, Revision C.01,
 M. J. Frisch, G. W. Trucks, H. B. Schlegel, G. E. Scuseria, 
 M. A. Robb, J. R. Cheeseman, G. Scalmani, V. Barone, 
 G. A. Petersson, H. Nakatsuji, X. Li, M. Caricato, A. V. Marenich, 
 J. Bloino, B. G. Janesko, R. Gomperts, B. Mennucci, H. P. Hratchian, 
 J. V. Ortiz, A. F. Izmaylov, J. L. Sonnenberg, D. Williams-Young, 
 F. Ding, F. Lipparini, F. Egidi, J. Goings, B. Peng, A. Petrone, 
 T. Henderson, D. Ranasinghe, V. G. Zakrzewski, J. Gao, N. Rega, 
 G. Zheng, W. Liang, M. Hada, M. Ehara, K. Toyota, R. Fukuda, 
 J. Hasegawa, M. Ishida, T. Nakajima, Y. Honda, O. Kitao, H. Nakai, 
 T. Vreven, K. Throssell, J. A. Montgomery, Jr., J. E. Peralta, 
 F. Ogliaro, M. J. Bearpark, J. J. Heyd, E. N. Brothers, K. N. Kudin, 
 V. N. Staroverov, T. A. Keith, R. Kobayashi, J. Normand, 
 K. Raghavachari, A. P. Rendell, J. C. Burant, S. S. Iyengar, 
 J. Tomasi, M. Cossi, J. M. Millam, M. Klene, C. Adamo, R. Cammi, 
 J. W. Ochterski, R. L. Martin, K. Morokuma, O. Farkas, 
 J. B. Foresman, and D. J. Fox, Gaussian, Inc., Wallingford CT, 2019.
 
 ******************************************
 Gaussian 16:  ES64L-G16RevC.01  3-Jul-2019
                11-Jul-2024 
 ******************************************
 %nprocshared=32
 Will use up to   32 processors via shared memory.
 %mem=64GB
 --------------------------
 # wb97xd/6-31G(d) prop=efg
 --------------------------
 1/38=1,172=1/1;
 2/12=2,17=6,18=5,40=1/2;
 3/5=1,6=6,7=1,11=2,25=1,30=1,74=-58/1,2,3;
 4//1;
 5/5=2,38=5/2;
 6/7=2,8=2,9=2,10=2,14=1,28=1/1,2;
 99/5=1,9=1/99;
 ---------------------------------------
 19nt_mm_min_distance_cutoff3_xtb_conf_1
 ---------------------------------------
 Symbolic Z-matrix:
 Charge = -1 Multiplicity = 1
 H                     47.0636   33.7897   30.8118 
 C                     46.354    34.588    30.601 
 H                     46.1722   34.6189   29.5288 
 C                     45.0413   34.3635   31.3516 
 H                     44.6118   33.4047   31.0523 
 H                     45.2421   34.3266   32.425 
 C                     44.0769   35.4757   31.0494 
 C                     43.1406   35.3553   30.0315 
 H                     43.0752   34.4302   29.4747 
 C                     42.2879   36.3951   29.72 
 H                     41.5569   36.2992   28.9318 
 C                     42.3562   37.5938   30.4275 
 O                     41.5099   38.5903   30.0995 
 H                     41.6795   39.3669   30.6857 
 C                     43.2981   37.7231   31.4457 
 H                     43.3573   38.6493   31.9981 
 C                     44.1439   36.6746   31.7466 
 H                     44.8685   36.7898   32.5409 
 H                     46.7986   35.5356   30.8965 
 H                     48.4075   38.2949   26.2315 
 C                     48.063    39.251    26.62 
 H                     47.3941   39.6997   25.8885 
 C                     47.3366   39.0631   27.9515 
 H                     48.0337   38.6123   28.6672 
 C                     46.8811   40.4108   28.5037 
 H                     47.7307   41.0748   28.6498 
 H                     46.1885   40.8855   27.8115 
 H                     46.3782   40.2793   29.4589 
 C                     46.1412   38.127    27.7874 
 H                     45.6364   37.9738   28.7388 
 H                     46.4603   37.1572   27.4113 
 H                     45.4245   38.5476   27.0848 
 H                     48.9244   39.9041   26.7431 
 H                     36.3876   47.3015   32.9523 
 C                     37.164    46.712    32.465 
 H                     36.7572   46.2793   31.5531 
 C                     38.3743   47.58     32.1279 
 H                     38.8149   47.9886   33.0403 
 H                     38.0663   48.4041   31.48 
 C                     39.4424   46.753    31.373 
 O                     40.4843   46.4616   31.9965 
 O                     39.1853   46.437    30.1985 
 H                     37.4558   45.9011   33.1307 
 H                     42.4485   46.862    22.6663 
 C                     43.019    47.115    23.555 
 H                     42.566    46.6248   24.4176 
 H                     43.0093   48.1919   23.7131 
 C                     44.4603   46.6513   23.4331 
 O                     45.3857   47.2375   23.9888 
 N                     44.6857   45.5519   22.6833 
 H                     43.8911   45.0905   22.2675 
 C                     45.983    44.912    22.455 
 H                     46.6945   45.3869   23.1311 
 C                     45.8955   43.4069   22.6923 
 H                     45.1087   43.0028   22.0485 
 H                     46.8389   42.9525   22.3824 
 C                     45.6018   43.0211   24.1483 
 H                     44.7906   43.6551   24.522 
 C                     45.1487   41.5639   24.2206 
 H                     44.9352   41.2838   25.2493 
 H                     44.2463   41.406    23.6337 
 H                     45.9267   40.9048   23.8388 
 C                     46.8295   43.2302   25.0295 
 H                     47.6707   42.6472   24.6588 
 H                     47.1153   44.2769   25.0526 
 H                     46.6236   42.9148   26.0494 
 H                     46.2963   45.1084   21.4233 
 H                     51.3506   46.525    23.7064 
 C                     51.26     46.169    24.731 
 H                     51.617    46.9482   25.4017 
 C                     49.8092   45.8229   25.0602 
 H                     49.4837   45.0238   24.3825 
 C                     49.7088   45.3239   26.4988 
 H                     50.3245   44.4387   26.6438 
 H                     50.0488   46.099    27.1821 
 H                     48.6822   45.0696   26.7496 
 C                     48.905    47.0367   24.8607 
 H                     49.1545   47.8042   25.5889 
 H                     49.0231   47.4518   23.8617 
 H                     47.8595   46.7713   24.997 
 H                     51.899    45.2963   24.8494 
 H                     49.3575   42.9958   37.758 
 C                     50.213    42.685    37.162 
 H                     51.0385   42.4513   37.8312 
 C                     49.8504   41.4677   36.3082 
 H                     50.7261   41.165    35.7285 
 H                     49.5786   40.6394   36.9671 
 C                     48.7063   41.7629   35.3752 
 C                     48.9423   42.24     34.0923 
 H                     49.9612   42.3954   33.7617 
 C                     47.8914   42.5032   33.2308 
 H                     48.0912   42.8608   32.2312 
 C                     46.5868   42.2986   33.6444 
 H                     45.7623   42.4925   32.9742 
 C                     46.337    41.8333   34.9242 
 H                     45.3184   41.6708   35.2401 
 C                     47.3913   41.5703   35.7812 
 H                     47.1939   41.2006   36.7786 
 H                     50.5041   43.5187   36.5264 
 H                     51.0545   45.7806   32.2108 
 C                     50.84     46.417    31.354 
 H                     51.7133   46.4331   30.7058 
 C                     49.6208   45.8935   30.599 
 H                     49.4681   46.5154   29.7095 
 C                     49.8613   44.4581   30.1394 
 H                     50.0282   43.8087   30.9969 
 H                     50.7342   44.4061   29.493 
 H                     49.0035   44.0853   29.5843 
 C                     48.3739   45.9739   31.4752 
 H                     48.5007   45.3826   32.38 
 H                     47.5061   45.5963   30.9394 
 H                     48.17     47.0026   31.7672 
 H                     50.6688   47.4274   31.72 
 H                     52.7033   49.8412   26.8416 
 C                     52.401    50.618    26.143 
 H                     53.0465   50.5697   25.2695 
 C                     50.9442   50.4207   25.7404 
 H                     50.8348   49.4663   25.2229 
 H                     50.6407   51.2122   25.0502 
 C                     50.0093   50.4524   26.9395 
 H                     50.1795   51.3504   27.5356 
 H                     48.965    50.4202   26.6234 
 S                     50.286    49.0218   28.05 
 C                     49.4487   49.6651   29.5217 
 H                     49.9656   50.5534   29.876 
 H                     48.4146   49.8918   29.2802 
 H                     49.488    48.8869   30.2747 
 H                     52.5386   51.5861   26.6215 
 H                     50.5524   50.999    33.483 
 C                     49.755    50.767    34.187 
 H                     49.5617   51.6555   34.7817 
 C                     48.5032   50.3201   33.4401 
 H                     48.7728   49.5133   32.7538 
 H                     48.1238   51.1489   32.8374 
 C                     47.3847   49.8195   34.3598 
 H                     47.7768   48.9907   34.9611 
 C                     46.8989   50.916    35.3028 
 H                     47.6819   51.2275   35.9903 
 H                     46.5658   51.781    34.7331 
 H                     46.0592   50.552    35.8887 
 C                     46.2163   49.3027   33.5244 
 H                     46.5361   48.5042   32.8587 
 H                     45.7913   50.1069   32.9271 
 H                     45.4289   48.9151   34.1642 
 H                     50.1045   49.977    34.8489 
 H                     47.2552   46.8078   37.0449 
 C                     46.253    46.438    37.253 
 H                     45.5507   47.2552   37.112 
 C                     45.9031   45.2789   36.3202 
 H                     46.6476   44.4841   36.4503 
 C                     44.5272   44.7127   36.6598 
 H                     44.2853   43.8823   36.0008 
 H                     44.4999   44.3564   37.6883 
 H                     43.7676   45.483    36.5417 
 C                     45.9357   45.7362   34.8653 
 H                     45.755    44.8931   34.2035 
 H                     46.9045   46.1641   34.6169 
 H                     45.171    46.4894   34.6883 
 H                     46.2136   46.1216   38.2938 
 H                     43.2435   40.6331   37.4807 
 C                     42.317    41.201    37.522 
 H                     42.5626   42.2533   37.4025 
 C                     41.3766   40.7573   36.4146 
 H                     41.1287   39.6977   36.5005 
 H                     40.4397   41.3175   36.4522 
 C                     41.9804   40.9856   35.0424 
 O                     43.015    41.5766   34.8494 
 O                     41.235    40.4629   34.0923 
 H                     41.6288   40.6143   33.1763 
 H                     41.8582   41.0538   38.4975 
 H                     38.8899   44.722    35.8234 
 C                     39.963    44.652    35.992 
 H                     40.1385   43.9175   36.7772 
 C                     40.6822   44.2581   34.71 
 H                     41.7502   44.1577   34.8906 
 H                     40.5301   45.0007   33.93 
 H                     40.3088   43.3037   34.3439 
 H                     40.3084   45.6191   36.3516 
 H                     41.4926   49.7582   37.848 
 C                     42.518    50.112    37.763 
 H                     42.9353   50.2136   38.7636 
 C                     43.3458   49.1327   36.9304 
 H                     44.3798   49.4913   36.8928 
 H                     43.3446   48.1566   37.4223 
 C                     42.8154   48.9784   35.541 
 C                     42.1898   47.8787   35.0184 
 H                     41.9794   46.9386   35.4915 
 N                     41.8346   48.0887   33.7223 
 H                     41.3154   47.4363   33.1178 
 C                     42.2258   49.3399   33.3693 
 C                     42.1024   50.0043   32.1544 
 H                     41.6205   49.5227   31.3166 
 C                     42.6076   51.282    32.0679 
 H                     42.5334   51.8277   31.1374 
 C                     43.2173   51.8953   33.1678 
 H                     43.5964   52.9031   33.0596 
 C                     43.341    51.2471   34.3754 
 H                     43.8136   51.7368   35.2153 
 C                     42.8499   49.9464   34.4926 
 H                     42.5004   51.091    37.2905 
 C                     42.6109   41.7355   31.0767 
 O                     42.1692   40.7236   31.6527 
 C                     42.9182   42.9451   31.7562 
 C                     43.26     44.0947   31.1154 
 C                     43.4826   44.1162   29.6379 
 C                     43.8286   42.7132   29.1352 
 C                     42.7664   41.7246   29.5825 
 C                     43.2632   45.3754   31.849 
 C                     44.2287   46.4348   31.3246 
 C                     44.1472   46.5317   29.8038 
 C                     44.5287   45.162    29.2126 
 C                     45.0868   47.5932   29.2409 
 C                     45.0248   47.6456   27.7097 
 C                     45.5325   46.3171   27.1653 
 C                     44.6654   45.1728   27.6837 
 C                     44.8961   49.0579   29.6518 
 C                     45.5241   49.8695   28.4968 
 C                     45.9526   48.8398   27.4324 
 C                     43.6316   47.9632   27.1655 
 O                     45.8664   49.3602   26.1238 
 H                     42.7801   42.9488   32.8284 
 H                     42.5198   44.4152   29.1937 
 H                     44.8028   42.4145   29.5332 
 H                     43.8819   42.6993   28.0474 
 H                     41.7991   42.0148   29.159 
 H                     42.9855   40.7116   29.238 
 H                     43.4142   45.2086   32.9163 
 H                     42.2311   45.7601   31.7376 
 H                     45.2501   46.1829   31.6238 
 H                     43.9816   47.3966   31.7752 
 H                     43.1165   46.7698   29.5333 
 H                     45.5013   44.8749   29.6356 
 H                     46.1107   47.3043   29.5135 
 H                     46.5664   46.17     27.4934 
 H                     45.5223   46.313    26.0745 
 H                     43.6753   45.2289   27.2318 
 H                     45.1226   44.2371   27.3594 
 H                     45.38     49.2756   30.6024 
 H                     43.8384   49.2891   29.7655 
 H                     46.3698   50.4689   28.8343 
 H                     44.8058   50.5556   28.0489 
 H                     46.9956   48.5273   27.6132 
 H                     42.9253   47.177    27.3994 
 H                     43.2527   48.8949   27.5726 
 H                     43.675    48.0581   26.0844 
 H                     45.7312   48.604    25.5277 
 O                     40.583    44.8783   28.6759 
 H                     39.9444   44.1675   28.6045 
 H                     40.1369   45.5393   29.2986 
 O                     46.5627   49.676    23.2595 
 H                     46.2683   48.759    23.3648 
 H                     46.8158   49.9549   24.1452 
 O                     41.2016   45.8413   26.2034 
 H                     41.0297   45.448    27.0861 
 H                     40.6793   46.6458   26.1945 
 O                     43.9001   50.2685   24.1331 
 H                     44.2389   50.1848   25.0324 
 H                     44.689    50.2285   23.5729 
 
 Stoichiometry    C84H159N2O12S(1-)
 Framework group  C1[X(C84H159N2O12S)]
 Deg. of freedom   768
 Full point group                 C1      NOp   1
 Largest Abelian subgroup         C1      NOp   1
 Largest concise Abelian subgroup C1      NOp   1
                         Standard orientation:                         
 ---------------------------------------------------------------------
 Center     Atomic      Atomic             Coordinates (Angstroms)
 Number     Number       Type             X           Y           Z
 ---------------------------------------------------------------------
      1          1           0        7.159179    8.188593    3.640030
      2          6           0        6.732215    7.663688    2.787136
      3          1           0        6.079925    8.347251    2.247804
      4          6           0        7.831266    7.143184    1.860775
      5          1           0        8.435678    7.982011    1.508067
      6          1           0        8.481719    6.465615    2.419058
      7          6           0        7.222395    6.420839    0.692068
      8          6           0        6.972320    7.077907   -0.505011
      9          1           0        7.259220    8.115257   -0.613207
     10          6           0        6.367130    6.428694   -1.562168
     11          1           0        6.177391    6.938630   -2.494253
     12          6           0        5.992087    5.091906   -1.441988
     13          8           0        5.403205    4.485978   -2.492173
     14          1           0        5.199122    3.549314   -2.254447
     15          6           0        6.234379    4.428949   -0.240985
     16          1           0        5.946058    3.392989   -0.140209
     17          6           0        6.840995    5.090745    0.807496
     18          1           0        7.023896    4.561906    1.732756
     19          1           0        6.127606    6.837496    3.154273
     20          1           0        0.674037    8.232757    2.628587
     21          6           0        0.400922    7.233995    2.294489
     22          1           0       -0.141767    7.320802    1.355444
     23          6           0        1.646142    6.368457    2.104415
     24          1           0        2.170108    6.297603    3.064537
     25          6           0        1.253569    4.961441    1.662949
     26          1           0        0.601548    4.494336    2.398302
     27          1           0        0.727114    4.999660    0.711340
     28          1           0        2.138254    4.340519    1.542969
     29          6           0        2.591674    6.998793    1.084201
     30          1           0        3.489223    6.395855    0.964505
     31          1           0        2.890999    7.995675    1.401091
     32          1           0        2.103484    7.079946    0.115029
     33          1           0       -0.262789    6.791943    3.034611
     34          1           0        3.165530   -4.405808   -7.609827
     35          6           0        2.975340   -3.547677   -6.965461
     36          1           0        2.819151   -2.668347   -7.587282
     37          6           0        1.745605   -3.785909   -6.092028
     38          1           0        1.906537   -4.643784   -5.434984
     39          1           0        0.876852   -3.979479   -6.725730
     40          6           0        1.439981   -2.536308   -5.231951
     41          8           0        1.675469   -2.614278   -4.008150
     42          8           0        0.982144   -1.542857   -5.822584
     43          1           0        3.852402   -3.377855   -6.342737
     44          1           0       -5.334097    3.702794   -5.433503
     45          6           0       -5.129000    2.990217   -4.640132
     46          1           0       -4.079538    2.697458   -4.690196
     47          1           0       -5.750615    2.104906   -4.761054
     48          6           0       -5.400598    3.595919   -3.273903
     49          8           0       -5.761075    2.916094   -2.316462
     50          7           0       -5.223143    4.928289   -3.151494
     51          1           0       -4.902171    5.440031   -3.959124
     52          6           0       -5.394157    5.714611   -1.927961
     53          1           0       -5.526305    5.005144   -1.110609
     54          6           0       -4.192768    6.626893   -1.696230
     55          1           0       -4.061080    7.253490   -2.583284
     56          1           0       -4.417810    7.288730   -0.857273
     57          6           0       -2.884981    5.875891   -1.412108
     58          1           0       -2.786299    5.058427   -2.134375
     59          6           0       -1.694631    6.818121   -1.583072
     60          1           0       -0.763461    6.292159   -1.386732
     61          1           0       -1.651807    7.213373   -2.595817
     62          1           0       -1.769956    7.654853   -0.890488
     63          6           0       -2.885733    5.285984   -0.005164
     64          1           0       -3.027452    6.068556    0.738087
     65          1           0       -3.678186    4.552942    0.106479
     66          1           0       -1.939088    4.792456    0.200658
     67          1           0       -6.305750    6.316010   -2.019895
     68          1           0       -7.556214    4.401759    3.227698
     69          6           0       -6.619558    3.949379    3.548287
     70          1           0       -6.836376    2.977839    3.988219
     71          6           0       -5.663128    3.785249    2.368762
     72          1           0       -5.448461    4.780019    1.958714
     73          6           0       -4.357986    3.152975    2.843614
     74          1           0       -3.882024    3.773036    3.600368
     75          1           0       -4.557897    2.173595    3.272716
     76          1           0       -3.663281    3.031461    2.016513
     77          6           0       -6.295174    2.927634    1.275280
     78          1           0       -6.429076    1.911349    1.636965
     79          1           0       -7.264809    3.323577    0.979824
     80          1           0       -5.660580    2.889567    0.393279
     81          1           0       -6.177466    4.581574    4.315639
     82          1           0        4.638617   -2.875988    6.719925
     83          6           0        4.161901   -2.134495    7.357595
     84          1           0        4.463986   -2.313455    8.387455
     85          6           0        4.557933   -0.723215    6.917458
     86          1           0        4.079225    0.003986    7.578174
     87          1           0        5.640136   -0.609898    7.017957
     88          6           0        4.155063   -0.450739    5.492660
     89          6           0        2.918084    0.109102    5.200061
     90          1           0        2.241154    0.355220    6.008018
     91          6           0        2.550486    0.368181    3.891017
     92          1           0        1.590635    0.816671    3.679968
     93          6           0        3.414738    0.063708    2.854064
     94          1           0        3.138542    0.272175    1.830920
     95          6           0        4.646579   -0.504335    3.130991
     96          1           0        5.318668   -0.735292    2.319388
     97          6           0        5.009931   -0.760052    4.441621
     98          1           0        5.975687   -1.198007    4.656008
     99          1           0        3.084384   -2.265038    7.282113
    100          1           0       -1.435120   -0.887279    5.970854
    101          6           0       -2.345331   -0.791140    5.381453
    102          1           0       -3.082987   -0.247498    5.967450
    103          6           0       -2.053331   -0.059312    4.073902
    104          1           0       -2.996639    0.077613    3.532875
    105          6           0       -1.466014    1.319819    4.361135
    106          1           0       -0.529860    1.226354    4.908641
    107          1           0       -2.156355    1.911284    4.957866
    108          1           0       -1.273041    1.854208    3.433705
    109          6           0       -1.101918   -0.876519    3.204457
    110          1           0       -0.160273   -1.049304    3.721978
    111          1           0       -0.889679   -0.353110    2.275083
    112          1           0       -1.535994   -1.843581    2.956602
    113          1           0       -2.730539   -1.791087    5.191997
    114          1           0       -8.238429    0.054135    5.041316
    115          6           0       -9.110102   -0.070085    4.402879
    116          1           0       -9.870389    0.643521    4.710668
    117          6           0       -8.726593    0.155687    2.945063
    118          1           0       -8.378974    1.181668    2.813997
    119          1           0       -9.602328    0.014994    2.306116
    120          6           0       -7.642406   -0.805347    2.482638
    121          1           0       -7.922295   -1.836200    2.705598
    122          1           0       -7.459115   -0.703550    1.411396
    123         16           0       -6.052978   -0.493362    3.338661
    124          6           0       -5.239474   -2.068107    2.965570
    125          1           0       -5.791268   -2.882104    3.428953
    126          1           0       -5.186299   -2.202411    1.889367
    127          1           0       -4.239282   -2.014276    3.378933
    128          1           0       -9.502160   -1.075719    4.544669
    129          1           0       -3.959455   -5.581159    5.135677
    130          6           0       -3.066397   -5.997181    4.672363
    131          1           0       -3.213206   -7.067752    4.559262
    132          6           0       -2.809453   -5.330356    3.325549
    133          1           0       -2.804011   -4.246387    3.465543
    134          1           0       -3.627016   -5.567407    2.640348
    135          6           0       -1.482385   -5.741471    2.679512
    136          1           0       -0.670187   -5.501807    3.376010
    137          6           0       -1.441222   -7.237260    2.382050
    138          1           0       -1.480682   -7.827324    3.294763
    139          1           0       -2.278093   -7.516814    1.745468
    140          1           0       -0.520720   -7.483274    1.859535
    141          6           0       -1.264871   -4.953122    1.390587
    142          1           0       -1.269296   -3.882592    1.582880
    143          1           0       -2.046309   -5.182071    0.668738
    144          1           0       -0.311830   -5.211961    0.938600
    145          1           0       -2.226168   -5.832299    5.344070
    146          1           0        2.338733   -5.414073    3.939963
    147          6           0        3.075217   -5.420064    3.138703
    148          1           0        2.678181   -6.005139    2.313493
    149          6           0        3.376249   -3.995329    2.674409
    150          1           0        3.736274   -3.413471    3.531576
    151          6           0        4.461832   -3.998049    1.601789
    152          1           0        4.680430   -2.982508    1.280462
    153          1           0        5.379004   -4.444592    1.982449
    154          1           0        4.131438   -4.572382    0.738491
    155          6           0        2.112504   -3.330760    2.137550
    156          1           0        2.316389   -2.296156    1.873970
    157          1           0        1.322360   -3.343603    2.885134
    158          1           0        1.757261   -3.853351    1.252052
    159          1           0        3.977656   -5.905327    3.506196
    160          1           0        8.200715   -1.783020    1.320191
    161          6           0        8.168987   -2.341706    0.387731
    162          1           0        7.294397   -2.987005    0.412559
    163          6           0        8.080734   -1.391168   -0.793897
    164          1           0        8.939277   -0.718042   -0.831202
    165          1           0        8.055459   -1.943144   -1.736076
    166          6           0        6.824857   -0.543091   -0.737618
    167          8           0        5.937355   -0.702628    0.064763
    168          8           0        6.823533    0.382860   -1.672572
    169          1           0        5.989109    0.948496   -1.643436
    170          1           0        9.061965   -2.959357    0.317990
    171          1           0        5.891635   -4.172553   -3.912195
    172          6           0        5.671642   -4.096527   -2.848854
    173          1           0        6.615389   -4.078310   -2.304944
    174          6           0        4.854097   -2.846128   -2.558934
    175          1           0        4.664212   -2.757016   -1.491543
    176          1           0        3.900037   -2.870664   -3.080620
    177          1           0        5.392535   -1.957684   -2.883105
    178          1           0        5.130236   -4.993366   -2.554821
    179          1           0        2.888619   -8.841173   -1.583622
    180          6           0        2.234621   -8.904379   -0.716365
    181          1           0        2.668322   -9.603967   -0.003524
    182          6           0        2.065839   -7.523508   -0.082161
    183          1           0        1.436314   -7.621306    0.808511
    184          1           0        3.044643   -7.154611    0.235007
    185          6           0        1.455334   -6.536139   -1.024472
    186          6           0        2.078968   -5.469405   -1.613528
    187          1           0        3.094680   -5.141019   -1.502298
    188          7           0        1.221359   -4.785286   -2.417661
    189          1           0        1.452361   -3.971421   -3.004923
    190          6           0        0.009896   -5.396069   -2.368176
    191          6           0       -1.183397   -5.064530   -2.999660
    192          1           0       -1.232146   -4.210184   -3.658288
    193          6           0       -2.279971   -5.860865   -2.757583
    194          1           0       -3.225934   -5.630838   -3.228080
    195          6           0       -2.195100   -6.971815   -1.911275
    196          1           0       -3.079152   -7.575266   -1.751950
    197          6           0       -1.017591   -7.310028   -1.284500
    198          1           0       -0.969688   -8.172859   -0.635027
    199          6           0        0.109480   -6.516157   -1.499481
    200          1           0        1.273035   -9.291027   -1.044789
    201          6           0        3.525595    1.697214   -1.622242
    202          8           0        4.737709    1.977110   -1.679293
    203          6           0        3.041157    0.402863   -1.291693
    204          6           0        1.729059    0.054719   -1.370604
    205          6           0        0.678397    1.073722   -1.671870
    206          6           0        1.178855    2.472612   -1.306519
    207          6           0        2.509543    2.742170   -1.986435
    208          6           0        1.338389   -1.367464   -1.314509
    209          6           0       -0.056184   -1.648246   -0.761481
    210          6           0       -1.079137   -0.693896   -1.371113
    211          6           0       -0.671018    0.745847   -1.008185
    212          6           0       -2.491003   -0.953380   -0.855566
    213          6           0       -3.497479    0.042680   -1.443811
    214          6           0       -3.131139    1.437369   -0.954239
    215          6           0       -1.717632    1.796312   -1.404997
    216          6           0       -3.147170   -2.313987   -1.117761
    217          6           0       -4.664772   -2.031114   -1.054757
    218          6           0       -4.809670   -0.508369   -0.862157
    219          6           0       -3.575960    0.001873   -2.970312
    220          8           0       -5.979489   -0.004380   -1.468950
    221          1           0        3.782341   -0.347466   -1.054310
    222          1           0        0.526273    1.034543   -2.762293
    223          1           0        1.296819    2.544503   -0.221343
    224          1           0        0.464207    3.229825   -1.626284
    225          1           0        2.378365    2.694661   -3.072608
    226          1           0        2.893637    3.735624   -1.744825
    227          1           0        2.090123   -1.953732   -0.784473
    228          1           0        1.368477   -1.703956   -2.368787
    229          1           0       -0.050464   -1.536696    0.326524
    230          1           0       -0.327067   -2.680643   -0.984948
    231          1           0       -1.053661   -0.816241   -2.455819
    232          1           0       -0.544119    0.792153    0.082255
    233          1           0       -2.478411   -0.796726    0.231377
    234          1           0       -3.181867    1.455325    0.139077
    235          1           0       -3.832067    2.181257   -1.335417
    236          1           0       -1.701070    1.933938   -2.485943
    237          1           0       -1.456224    2.751412   -0.947628
    238          1           0       -2.847696   -3.054555   -0.378120
    239          1           0       -2.858441   -2.696326   -2.095289
    240          1           0       -5.147677   -2.582394   -0.247733
    241          1           0       -5.166619   -2.314917   -1.979369
    242          1           0       -4.847360   -0.269734    0.214796
    243          1           0       -2.645282    0.317237   -3.424253
    244          1           0       -3.808458   -0.996451   -3.326199
    245          1           0       -4.356292    0.674786   -3.313730
    246          1           0       -5.807680    0.928808   -1.681301
    247          8           0        0.557389    0.799800   -4.806235
    248          1           0        1.215412    1.277400   -5.313235
    249          1           0        0.671150   -0.158841   -5.109134
    250          8           0       -8.294424    1.808040   -1.849720
    251          1           0       -7.503321    2.359070   -1.945487
    252          1           0       -7.997378    1.037338   -1.355665
    253          8           0       -1.913468    1.868812   -5.225008
    254          1           0       -1.015089    1.529257   -5.022495
    255          1           0       -2.279441    1.226533   -5.836268
    256          8           0       -7.193821    0.438300   -4.111612
    257          1           0       -6.673068   -0.069014   -3.477593
    258          1           0       -7.806897    0.951475   -3.565191
 ---------------------------------------------------------------------
 Rotational constants (GHZ):           0.0140128           0.0122706           0.0098579
 Standard basis: 6-31G(d) (6D, 7F)
 There are  1807 symmetry adapted cartesian basis functions of A   symmetry.
 There are  1807 symmetry adapted basis functions of A   symmetry.
  1807 basis functions,  3432 primitive gaussians,  1807 cartesian basis functions
   395 alpha electrons      395 beta electrons
       nuclear repulsion energy     23147.1629189741 Hartrees.
 NAtoms=  258 NActive=  258 NUniq=  258 SFac= 1.00D+00 NAtFMM=   60 NAOKFM=T Big=T
 Integral buffers will be    131072 words long.
 Raffenetti 2 integral format.
 Two-electron integral symmetry is turned on.
 Nuclear repulsion after empirical dispersion term =    23146.8739049366 Hartrees.
 One-electron integrals computed using PRISM.
 NBasis=  1807 RedAO= T EigKep=  3.40D-04  NBF=  1807
 NBsUse=  1807 1.00D-06 EigRej= -1.00D+00 NBFU=  1807
 ExpMin= 1.17D-01 ExpMax= 2.19D+04 ExpMxC= 3.30D+03 IAcc=3 IRadAn=         5 AccDes= 0.00D+00
 Harris functional with IExCor= 4639 and IRadAn=       5 diagonalized for initial guess.
 HarFok:  IExCor= 4639 AccDes= 0.00D+00 IRadAn=         5 IDoV= 1 UseB2=F ITyADJ=14
 ICtDFT=  3500011 ScaDFX=  1.000000  1.000000  1.000000  1.000000
 FoFCou: FMM=F IPFlag=           0 FMFlag=      100000 FMFlg1=        2001
         NFxFlg=           0 DoJE=T BraDBF=F KetDBF=T FulRan=T
         wScrn=  0.000000 ICntrl=       500 IOpCl=  0 I1Cent=   200000004 NGrid=           0
         NMat0=    1 NMatS0=      1 NMatT0=    0 NMatD0=    1 NMtDS0=    0 NMtDT0=    0
 Petite list used in FoFCou.
 Requested convergence on RMS density matrix=1.00D-08 within 128 cycles.
 Requested convergence on MAX density matrix=1.00D-06.
 Requested convergence on             energy=1.00D-06.
 No special actions if energy rises.
 Integral accuracy reduced to 1.0D-05 until final iterations.
 Initial convergence to 1.0D-05 achieved.  Increase integral accuracy.
 SCF Done:  E(RwB97XD) =  -4706.16126619     A.U. after   15 cycles
            NFock= 15  Conv=0.34D-08     -V/T= 2.0084
 Hyperfine terms turned off by default for NAtoms > 100.

 **********************************************************************

            Population analysis using the SCF Density.

 **********************************************************************

 Orbital symmetries:
       Occupied  (A) (A) (A) (A) (A) (A) (A) (A) (A) (A) (A) (A)
                 (A) (A) (A) (A) (A) (A) (A) (A) (A) (A) (A) (A)
                 (A) (A) (A) (A) (A) (A) (A) (A) (A) (A) (A) (A)
                 (A) (A) (A) (A) (A) (A) (A) (A) (A) (A) (A) (A)
                 (A) (A) (A) (A) (A) (A) (A) (A) (A) (A) (A) (A)
                 (A) (A) (A) (A) (A) (A) (A) (A) (A) (A) (A) (A)
                 (A) (A) (A) (A) (A) (A) (A) (A) (A) (A) (A) (A)
                 (A) (A) (A) (A) (A) (A) (A) (A) (A) (A) (A) (A)
                 (A) (A) (A) (A) (A) (A) (A) (A) (A) (A) (A) (A)
                 (A) (A) (A) (A) (A) (A) (A) (A) (A) (A) (A) (A)
                 (A) (A) (A) (A) (A) (A) (A) (A) (A) (A) (A) (A)
                 (A) (A) (A) (A) (A) (A) (A) (A) (A) (A) (A) (A)
                 (A) (A) (A) (A) (A) (A) (A) (A) (A) (A) (A) (A)
                 (A) (A) (A) (A) (A) (A) (A) (A) (A) (A) (A) (A)
                 (A) (A) (A) (A) (A) (A) (A) (A) (A) (A) (A) (A)
                 (A) (A) (A) (A) (A) (A) (A) (A) (A) (A) (A) (A)
                 (A) (A) (A) (A) (A) (A) (A) (A) (A) (A) (A) (A)
                 (A) (A) (A) (A) (A) (A) (A) (A) (A) (A) (A) (A)
                 (A) (A) (A) (A) (A) (A) (A) (A) (A) (A) (A) (A)
                 (A) (A) (A) (A) (A) (A) (A) (A) (A) (A) (A) (A)
                 (A) (A) (A) (A) (A) (A) (A) (A) (A) (A) (A) (A)
                 (A) (A) (A) (A) (A) (A) (A) (A) (A) (A) (A) (A)
                 (A) (A) (A) (A) (A) (A) (A) (A) (A) (A) (A) (A)
                 (A) (A) (A) (A) (A) (A) (A) (A) (A) (A) (A) (A)
                 (A) (A) (A) (A) (A) (A) (A) (A) (A) (A) (A) (A)
                 (A) (A) (A) (A) (A) (A) (A) (A) (A) (A) (A) (A)
                 (A) (A) (A) (A) (A) (A) (A) (A) (A) (A) (A) (A)
                 (A) (A) (A) (A) (A) (A) (A) (A) (A) (A) (A) (A)
                 (A) (A) (A) (A) (A) (A) (A) (A) (A) (A) (A) (A)
                 (A) (A) (A) (A) (A) (A) (A) (A) (A) (A) (A) (A)
                 (A) (A) (A) (A) (A) (A) (A) (A) (A) (A) (A) (A)
                 (A) (A) (A) (A) (A) (A) (A) (A) (A) (A) (A) (A)
                 (A) (A) (A) (A) (A) (A) (A) (A) (A) (A) (A)
       Virtual   (A) (A) (A) (A) (A) (A) (A) (A) (A) (A) (A) (A)
                 (A) (A) (A) (A) (A) (A) (A) (A) (A) (A) (A) (A)
                 (A) (A) (A) (A) (A) (A) (A) (A) (A) (A) (A) (A)
                 (A) (A) (A) (A) (A) (A) (A) (A) (A) (A) (A) (A)
                 (A) (A) (A) (A) (A) (A) (A) (A) (A) (A) (A) (A)
                 (A) (A) (A) (A) (A) (A) (A) (A) (A) (A) (A) (A)
                 (A) (A) (A) (A) (A) (A) (A) (A) (A) (A) (A) (A)
                 (A) (A) (A) (A) (A) (A) (A) (A) (A) (A) (A) (A)
                 (A) (A) (A) (A) (A) (A) (A) (A) (A) (A) (A) (A)
                 (A) (A) (A) (A) (A) (A) (A) (A) (A) (A) (A) (A)
                 (A) (A) (A) (A) (A) (A) (A) (A) (A) (A) (A) (A)
                 (A) (A) (A) (A) (A) (A) (A) (A) (A) (A) (A) (A)
                 (A) (A) (A) (A) (A) (A) (A) (A) (A) (A) (A) (A)
                 (A) (A) (A) (A) (A) (A) (A) (A) (A) (A) (A) (A)
                 (A) (A) (A) (A) (A) (A) (A) (A) (A) (A) (A) (A)
                 (A) (A) (A) (A) (A) (A) (A) (A) (A) (A) (A) (A)
                 (A) (A) (A) (A) (A) (A) (A) (A) (A) (A) (A) (A)
                 (A) (A) (A) (A) (A) (A) (A) (A) (A) (A) (A) (A)
                 (A) (A) (A) (A) (A) (A) (A) (A) (A) (A) (A) (A)
                 (A) (A) (A) (A) (A) (A) (A) (A) (A) (A) (A) (A)
                 (A) (A) (A) (A) (A) (A) (A) (A) (A) (A) (A) (A)
                 (A) (A) (A) (A) (A) (A) (A) (A) (A) (A) (A) (A)
                 (A) (A) (A) (A) (A) (A) (A) (A) (A) (A) (A) (A)
                 (A) (A) (A) (A) (A) (A) (A) (A) (A) (A) (A) (A)
                 (A) (A) (A) (A) (A) (A) (A) (A) (A) (A) (A) (A)
                 (A) (A) (A) (A) (A) (A) (A) (A) (A) (A) (A) (A)
                 (A) (A) (A) (A) (A) (A) (A) (A) (A) (A) (A) (A)
                 (A) (A) (A) (A) (A) (A) (A) (A) (A) (A) (A) (A)
                 (A) (A) (A) (A) (A) (A) (A) (A) (A) (A) (A) (A)
                 (A) (A) (A) (A) (A) (A) (A) (A) (A) (A) (A) (A)
                 (A) (A) (A) (A) (A) (A) (A) (A) (A) (A) (A) (A)
                 (A) (A) (A) (A) (A) (A) (A) (A) (A) (A) (A) (A)
                 (A) (A) (A) (A) (A) (A) (A) (A) (A) (A) (A) (A)
                 (A) (A) (A) (A) (A) (A) (A) (A) (A) (A) (A) (A)
                 (A) (A) (A) (A) (A) (A) (A) (A) (A) (A) (A) (A)
                 (A) (A) (A) (A) (A) (A) (A) (A) (A) (A) (A) (A)
                 (A) (A) (A) (A) (A) (A) (A) (A) (A) (A) (A) (A)
                 (A) (A) (A) (A) (A) (A) (A) (A) (A) (A) (A) (A)
                 (A) (A) (A) (A) (A) (A) (A) (A) (A) (A) (A) (A)
                 (A) (A) (A) (A) (A) (A) (A) (A) (A) (A) (A) (A)
                 (A) (A) (A) (A) (A) (A) (A) (A) (A) (A) (A) (A)
                 (A) (A) (A) (A) (A) (A) (A) (A) (A) (A) (A) (A)
                 (A) (A) (A) (A) (A) (A) (A) (A) (A) (A) (A) (A)
                 (A) (A) (A) (A) (A) (A) (A) (A) (A) (A) (A) (A)
                 (A) (A) (A) (A) (A) (A) (A) (A) (A) (A) (A) (A)
                 (A) (A) (A) (A) (A) (A) (A) (A) (A) (A) (A) (A)
                 (A) (A) (A) (A) (A) (A) (A) (A) (A) (A) (A) (A)
                 (A) (A) (A) (A) (A) (A) (A) (A) (A) (A) (A) (A)
                 (A) (A) (A) (A) (A) (A) (A) (A) (A) (A) (A) (A)
                 (A) (A) (A) (A) (A) (A) (A) (A) (A) (A) (A) (A)
                 (A) (A) (A) (A) (A) (A) (A) (A) (A) (A) (A) (A)
                 (A) (A) (A) (A) (A) (A) (A) (A) (A) (A) (A) (A)
                 (A) (A) (A) (A) (A) (A) (A) (A) (A) (A) (A) (A)
                 (A) (A) (A) (A) (A) (A) (A) (A) (A) (A) (A) (A)
                 (A) (A) (A) (A) (A) (A) (A) (A) (A) (A) (A) (A)
                 (A) (A) (A) (A) (A) (A) (A) (A) (A) (A) (A) (A)
                 (A) (A) (A) (A) (A) (A) (A) (A) (A) (A) (A) (A)
                 (A) (A) (A) (A) (A) (A) (A) (A) (A) (A) (A) (A)
                 (A) (A) (A) (A) (A) (A) (A) (A) (A) (A) (A) (A)
                 (A) (A) (A) (A) (A) (A) (A) (A) (A) (A) (A) (A)
                 (A) (A) (A) (A) (A) (A) (A) (A) (A) (A) (A) (A)
                 (A) (A) (A) (A) (A) (A) (A) (A) (A) (A) (A) (A)
                 (A) (A) (A) (A) (A) (A) (A) (A) (A) (A) (A) (A)
                 (A) (A) (A) (A) (A) (A) (A) (A) (A) (A) (A) (A)
                 (A) (A) (A) (A) (A) (A) (A) (A) (A) (A) (A) (A)
                 (A) (A) (A) (A) (A) (A) (A) (A) (A) (A) (A) (A)
                 (A) (A) (A) (A) (A) (A) (A) (A) (A) (A) (A) (A)
                 (A) (A) (A) (A) (A) (A) (A) (A) (A) (A) (A) (A)
                 (A) (A) (A) (A) (A) (A) (A) (A) (A) (A) (A) (A)
                 (A) (A) (A) (A) (A) (A) (A) (A) (A) (A) (A) (A)
                 (A) (A) (A) (A) (A) (A) (A) (A) (A) (A) (A) (A)
                 (A) (A) (A) (A) (A) (A) (A) (A) (A) (A) (A) (A)
                 (A) (A) (A) (A) (A) (A) (A) (A) (A) (A) (A) (A)
                 (A) (A) (A) (A) (A) (A) (A) (A) (A) (A) (A) (A)
                 (A) (A) (A) (A) (A) (A) (A) (A) (A) (A) (A) (A)
                 (A) (A) (A) (A) (A) (A) (A) (A) (A) (A) (A) (A)
                 (A) (A) (A) (A) (A) (A) (A) (A) (A) (A) (A) (A)
                 (A) (A) (A) (A) (A) (A) (A) (A) (A) (A) (A) (A)
                 (A) (A) (A) (A) (A) (A) (A) (A) (A) (A) (A) (A)
                 (A) (A) (A) (A) (A) (A) (A) (A) (A) (A) (A) (A)
                 (A) (A) (A) (A) (A) (A) (A) (A) (A) (A) (A) (A)
                 (A) (A) (A) (A) (A) (A) (A) (A) (A) (A) (A) (A)
                 (A) (A) (A) (A) (A) (A) (A) (A) (A) (A) (A) (A)
                 (A) (A) (A) (A) (A) (A) (A) (A) (A) (A) (A) (A)
                 (A) (A) (A) (A) (A) (A) (A) (A) (A) (A) (A) (A)
                 (A) (A) (A) (A) (A) (A) (A) (A) (A) (A) (A) (A)
                 (A) (A) (A) (A) (A) (A) (A) (A) (A) (A) (A) (A)
                 (A) (A) (A) (A) (A) (A) (A) (A) (A) (A) (A) (A)
                 (A) (A) (A) (A) (A) (A) (A) (A) (A) (A) (A) (A)
                 (A) (A) (A) (A) (A) (A) (A) (A) (A) (A) (A) (A)
                 (A) (A) (A) (A) (A) (A) (A) (A) (A) (A) (A) (A)
                 (A) (A) (A) (A) (A) (A) (A) (A) (A) (A) (A) (A)
                 (A) (A) (A) (A) (A) (A) (A) (A) (A) (A) (A) (A)
                 (A) (A) (A) (A) (A) (A) (A) (A) (A) (A) (A) (A)
                 (A) (A) (A) (A) (A) (A) (A) (A) (A) (A) (A) (A)
                 (A) (A) (A) (A) (A) (A) (A) (A) (A) (A) (A) (A)
                 (A) (A) (A) (A) (A) (A) (A) (A) (A) (A) (A) (A)
                 (A) (A) (A) (A) (A) (A) (A) (A) (A) (A) (A) (A)
                 (A) (A) (A) (A) (A) (A) (A) (A) (A) (A) (A) (A)
                 (A) (A) (A) (A) (A) (A) (A) (A) (A) (A) (A) (A)
                 (A) (A) (A) (A) (A) (A) (A) (A) (A) (A) (A) (A)
                 (A) (A) (A) (A) (A) (A) (A) (A) (A) (A) (A) (A)
                 (A) (A) (A) (A) (A) (A) (A) (A) (A) (A) (A) (A)
                 (A) (A) (A) (A) (A) (A) (A) (A) (A) (A) (A) (A)
                 (A) (A) (A) (A) (A) (A) (A) (A) (A) (A) (A) (A)
                 (A) (A) (A) (A) (A) (A) (A) (A) (A) (A) (A) (A)
                 (A) (A) (A) (A) (A) (A) (A) (A) (A) (A) (A) (A)
                 (A) (A) (A) (A) (A) (A) (A) (A) (A) (A) (A) (A)
                 (A) (A) (A) (A) (A) (A) (A) (A) (A) (A) (A) (A)
                 (A) (A) (A) (A) (A) (A) (A) (A) (A) (A) (A) (A)
                 (A) (A) (A) (A) (A) (A) (A) (A) (A) (A) (A) (A)
                 (A) (A) (A) (A) (A) (A) (A) (A) (A) (A) (A) (A)
                 (A) (A) (A) (A) (A) (A) (A) (A) (A) (A) (A) (A)
                 (A) (A) (A) (A) (A) (A) (A) (A) (A) (A) (A) (A)
                 (A) (A) (A) (A) (A) (A) (A) (A) (A) (A) (A) (A)
                 (A) (A) (A) (A) (A) (A) (A) (A) (A) (A) (A) (A)
                 (A) (A) (A) (A) (A) (A) (A) (A) (A) (A) (A) (A)
                 (A) (A) (A) (A) (A) (A) (A) (A)
 The electronic state is 1-A.
 Alpha  occ. eigenvalues --  -88.97593 -19.21809 -19.21010 -19.20429 -19.20246
 Alpha  occ. eigenvalues --  -19.19582 -19.18722 -19.17817 -19.17146 -19.16041
 Alpha  occ. eigenvalues --  -19.15637 -19.12178 -19.11988 -14.43512 -14.38580
 Alpha  occ. eigenvalues --  -10.35889 -10.34964 -10.32629 -10.28983 -10.28721
 Alpha  occ. eigenvalues --  -10.27968 -10.26787 -10.26610 -10.26206 -10.26163
 Alpha  occ. eigenvalues --  -10.25265 -10.24906 -10.24714 -10.24058 -10.23836
 Alpha  occ. eigenvalues --  -10.23814 -10.23666 -10.23609 -10.23602 -10.23593
 Alpha  occ. eigenvalues --  -10.23575 -10.23486 -10.23289 -10.23262 -10.23178
 Alpha  occ. eigenvalues --  -10.23126 -10.23034 -10.22956 -10.22812 -10.22786
 Alpha  occ. eigenvalues --  -10.22737 -10.22734 -10.22642 -10.22590 -10.22548
 Alpha  occ. eigenvalues --  -10.22472 -10.22461 -10.22416 -10.22415 -10.22363
 Alpha  occ. eigenvalues --  -10.22312 -10.22270 -10.22249 -10.22203 -10.22200
 Alpha  occ. eigenvalues --  -10.22192 -10.22124 -10.22102 -10.22029 -10.21952
 Alpha  occ. eigenvalues --  -10.21841 -10.21779 -10.21738 -10.21675 -10.21643
 Alpha  occ. eigenvalues --  -10.21594 -10.21492 -10.21373 -10.21328 -10.21305
 Alpha  occ. eigenvalues --  -10.21288 -10.21272 -10.21213 -10.21203 -10.21180
 Alpha  occ. eigenvalues --  -10.21158 -10.21097 -10.20963 -10.20931 -10.20859
 Alpha  occ. eigenvalues --  -10.20774 -10.20700 -10.20594 -10.20485 -10.20472
 Alpha  occ. eigenvalues --  -10.20107 -10.20067 -10.20043 -10.20003 -10.19681
 Alpha  occ. eigenvalues --  -10.19607 -10.19503 -10.19324 -10.19262  -7.99437
 Alpha  occ. eigenvalues --   -5.94485  -5.94116  -5.93413  -1.12272  -1.09681
 Alpha  occ. eigenvalues --   -1.08577  -1.06752  -1.05911  -1.04320  -1.03034
 Alpha  occ. eigenvalues --   -1.02843  -1.01089  -0.99533  -0.99478  -0.99088
 Alpha  occ. eigenvalues --   -0.97972  -0.94823  -0.90134  -0.89416  -0.88583
 Alpha  occ. eigenvalues --   -0.88099  -0.86711  -0.86365  -0.85792  -0.84510
 Alpha  occ. eigenvalues --   -0.84488  -0.84438  -0.84261  -0.83281  -0.82680
 Alpha  occ. eigenvalues --   -0.82540  -0.82338  -0.81937  -0.81773  -0.81380
 Alpha  occ. eigenvalues --   -0.80958  -0.80472  -0.79251  -0.77553  -0.77436
 Alpha  occ. eigenvalues --   -0.77307  -0.77273  -0.77036  -0.76904  -0.76754
 Alpha  occ. eigenvalues --   -0.75869  -0.75764  -0.74759  -0.74633  -0.74419
 Alpha  occ. eigenvalues --   -0.73522  -0.73331  -0.73110  -0.72698  -0.72251
 Alpha  occ. eigenvalues --   -0.72174  -0.71959  -0.71831  -0.71816  -0.71408
 Alpha  occ. eigenvalues --   -0.70785  -0.70423  -0.70318  -0.69831  -0.69395
 Alpha  occ. eigenvalues --   -0.69282  -0.68456  -0.66760  -0.66374  -0.66225
 Alpha  occ. eigenvalues --   -0.65867  -0.65425  -0.65078  -0.64191  -0.64010
 Alpha  occ. eigenvalues --   -0.63782  -0.63563  -0.63110  -0.62988  -0.62875
 Alpha  occ. eigenvalues --   -0.62120  -0.61117  -0.60971  -0.60347  -0.60295
 Alpha  occ. eigenvalues --   -0.60127  -0.59794  -0.59699  -0.59290  -0.59190
 Alpha  occ. eigenvalues --   -0.59021  -0.58077  -0.57806  -0.57350  -0.57179
 Alpha  occ. eigenvalues --   -0.56337  -0.55681  -0.55176  -0.54611  -0.54142
 Alpha  occ. eigenvalues --   -0.53580  -0.53525  -0.53208  -0.52798  -0.52659
 Alpha  occ. eigenvalues --   -0.51803  -0.51504  -0.51429  -0.51203  -0.50922
 Alpha  occ. eigenvalues --   -0.50829  -0.50335  -0.50027  -0.49965  -0.49823
 Alpha  occ. eigenvalues --   -0.49778  -0.49677  -0.49498  -0.49450  -0.49354
 Alpha  occ. eigenvalues --   -0.49331  -0.49169  -0.49135  -0.49083  -0.48855
 Alpha  occ. eigenvalues --   -0.48801  -0.48472  -0.47996  -0.47934  -0.47741
 Alpha  occ. eigenvalues --   -0.47614  -0.47502  -0.47085  -0.47032  -0.46741
 Alpha  occ. eigenvalues --   -0.46388  -0.46256  -0.46022  -0.45975  -0.45894
 Alpha  occ. eigenvalues --   -0.45857  -0.45788  -0.45764  -0.45711  -0.45618
 Alpha  occ. eigenvalues --   -0.45421  -0.45256  -0.45210  -0.45060  -0.44967
 Alpha  occ. eigenvalues --   -0.44946  -0.44883  -0.44823  -0.44531  -0.44509
 Alpha  occ. eigenvalues --   -0.44499  -0.44361  -0.44021  -0.43964  -0.43928
 Alpha  occ. eigenvalues --   -0.43788  -0.43698  -0.43454  -0.43388  -0.43243
 Alpha  occ. eigenvalues --   -0.43185  -0.43063  -0.42969  -0.42951  -0.42776
 Alpha  occ. eigenvalues --   -0.42471  -0.42365  -0.42195  -0.42066  -0.41906
 Alpha  occ. eigenvalues --   -0.41755  -0.41699  -0.41573  -0.41346  -0.41255
 Alpha  occ. eigenvalues --   -0.41075  -0.41021  -0.40996  -0.40893  -0.40813
 Alpha  occ. eigenvalues --   -0.40777  -0.40764  -0.40688  -0.40524  -0.40365
 Alpha  occ. eigenvalues --   -0.40273  -0.40245  -0.39759  -0.39700  -0.39635
 Alpha  occ. eigenvalues --   -0.39601  -0.39588  -0.39378  -0.39290  -0.39081
 Alpha  occ. eigenvalues --   -0.38862  -0.38804  -0.38701  -0.38664  -0.38620
 Alpha  occ. eigenvalues --   -0.38571  -0.38497  -0.38345  -0.38199  -0.38146
 Alpha  occ. eigenvalues --   -0.37940  -0.37924  -0.37764  -0.37491  -0.37426
 Alpha  occ. eigenvalues --   -0.37292  -0.37225  -0.37211  -0.37067  -0.36840
 Alpha  occ. eigenvalues --   -0.36758  -0.36658  -0.36620  -0.36538  -0.36446
 Alpha  occ. eigenvalues --   -0.36417  -0.36304  -0.36267  -0.36156  -0.36102
 Alpha  occ. eigenvalues --   -0.36023  -0.35892  -0.35631  -0.35517  -0.35387
 Alpha  occ. eigenvalues --   -0.35033  -0.34945  -0.34856  -0.34784  -0.34697
 Alpha  occ. eigenvalues --   -0.34630  -0.34560  -0.34527  -0.34500  -0.34466
 Alpha  occ. eigenvalues --   -0.34445  -0.34373  -0.34338  -0.34285  -0.34255
 Alpha  occ. eigenvalues --   -0.34154  -0.34032  -0.33924  -0.33829  -0.33621
 Alpha  occ. eigenvalues --   -0.33528  -0.33301  -0.33249  -0.33032  -0.32964
 Alpha  occ. eigenvalues --   -0.32829  -0.32543  -0.32512  -0.32475  -0.32420
 Alpha  occ. eigenvalues --   -0.32290  -0.32190  -0.31731  -0.31608  -0.31356
 Alpha  occ. eigenvalues --   -0.30918  -0.30814  -0.30536  -0.29518  -0.29263
 Alpha  occ. eigenvalues --   -0.29135  -0.28887  -0.28495  -0.28336  -0.28018
 Alpha  occ. eigenvalues --   -0.27697  -0.26954  -0.26699  -0.26638  -0.25707
 Alpha  occ. eigenvalues --   -0.25604  -0.25471  -0.24764  -0.24219  -0.23993
 Alpha  occ. eigenvalues --   -0.22614  -0.22129  -0.20924  -0.20715  -0.18418
 Alpha virt. eigenvalues --    0.08125   0.13839   0.14068   0.14205   0.14362
 Alpha virt. eigenvalues --    0.14837   0.15307   0.16117   0.17038   0.17271
 Alpha virt. eigenvalues --    0.17900   0.18183   0.19089   0.19262   0.19958
 Alpha virt. eigenvalues --    0.20244   0.20392   0.20556   0.20912   0.21335
 Alpha virt. eigenvalues --    0.21618   0.22031   0.22258   0.22543   0.22576
 Alpha virt. eigenvalues --    0.22697   0.22923   0.23313   0.23502   0.23650
 Alpha virt. eigenvalues --    0.23686   0.23854   0.23998   0.24186   0.24375
 Alpha virt. eigenvalues --    0.24511   0.24930   0.25008   0.25202   0.25448
 Alpha virt. eigenvalues --    0.25522   0.25562   0.25798   0.26054   0.26086
 Alpha virt. eigenvalues --    0.26303   0.26477   0.26540   0.26689   0.26842
 Alpha virt. eigenvalues --    0.26968   0.27075   0.27213   0.27238   0.27485
 Alpha virt. eigenvalues --    0.27543   0.27658   0.27786   0.27949   0.28146
 Alpha virt. eigenvalues --    0.28207   0.28284   0.28464   0.28541   0.28637
 Alpha virt. eigenvalues --    0.28703   0.28756   0.28905   0.29026   0.29149
 Alpha virt. eigenvalues --    0.29191   0.29226   0.29343   0.29455   0.29556
 Alpha virt. eigenvalues --    0.29733   0.29933   0.29996   0.30023   0.30135
 Alpha virt. eigenvalues --    0.30276   0.30297   0.30505   0.30556   0.30741
 Alpha virt. eigenvalues --    0.30868   0.30932   0.30943   0.31003   0.31131
 Alpha virt. eigenvalues --    0.31175   0.31255   0.31375   0.31420   0.31568
 Alpha virt. eigenvalues --    0.31626   0.31672   0.31698   0.31878   0.32031
 Alpha virt. eigenvalues --    0.32040   0.32050   0.32108   0.32273   0.32325
 Alpha virt. eigenvalues --    0.32454   0.32464   0.32593   0.32651   0.32800
 Alpha virt. eigenvalues --    0.32838   0.32892   0.33169   0.33215   0.33274
 Alpha virt. eigenvalues --    0.33326   0.33401   0.33494   0.33556   0.33791
 Alpha virt. eigenvalues --    0.33801   0.33857   0.33971   0.34064   0.34202
 Alpha virt. eigenvalues --    0.34308   0.34378   0.34444   0.34583   0.34759
 Alpha virt. eigenvalues --    0.34884   0.34910   0.34947   0.35141   0.35197
 Alpha virt. eigenvalues --    0.35227   0.35391   0.35448   0.35574   0.35613
 Alpha virt. eigenvalues --    0.35772   0.35836   0.35864   0.36031   0.36244
 Alpha virt. eigenvalues --    0.36284   0.36518   0.36571   0.36623   0.36731
 Alpha virt. eigenvalues --    0.36819   0.36874   0.36939   0.37059   0.37228
 Alpha virt. eigenvalues --    0.37250   0.37468   0.37531   0.37613   0.37756
 Alpha virt. eigenvalues --    0.37797   0.37985   0.38157   0.38191   0.38272
 Alpha virt. eigenvalues --    0.38521   0.38586   0.38676   0.38788   0.38918
 Alpha virt. eigenvalues --    0.39075   0.39121   0.39230   0.39446   0.39515
 Alpha virt. eigenvalues --    0.39581   0.39736   0.39759   0.39914   0.40029
 Alpha virt. eigenvalues --    0.40234   0.40312   0.40436   0.40505   0.40583
 Alpha virt. eigenvalues --    0.40700   0.40869   0.40970   0.41125   0.41221
 Alpha virt. eigenvalues --    0.41437   0.41487   0.41532   0.41654   0.41818
 Alpha virt. eigenvalues --    0.41875   0.42163   0.42262   0.42337   0.42506
 Alpha virt. eigenvalues --    0.42627   0.42803   0.42877   0.43165   0.43204
 Alpha virt. eigenvalues --    0.43335   0.43408   0.43549   0.43673   0.43939
 Alpha virt. eigenvalues --    0.44178   0.44413   0.44522   0.44808   0.44978
 Alpha virt. eigenvalues --    0.45140   0.45217   0.45281   0.45463   0.45766
 Alpha virt. eigenvalues --    0.45912   0.46017   0.46423   0.46598   0.46789
 Alpha virt. eigenvalues --    0.46854   0.47300   0.47561   0.47759   0.47986
 Alpha virt. eigenvalues --    0.48294   0.48457   0.48706   0.49114   0.49392
 Alpha virt. eigenvalues --    0.49711   0.50345   0.50444   0.50693   0.50905
 Alpha virt. eigenvalues --    0.51109   0.51420   0.51852   0.52194   0.52506
 Alpha virt. eigenvalues --    0.52730   0.53609   0.53846   0.54426   0.54802
 Alpha virt. eigenvalues --    0.55430   0.56040   0.57288   0.58149   0.58485
 Alpha virt. eigenvalues --    0.59111   0.59713   0.59895   0.60762   0.60965
 Alpha virt. eigenvalues --    0.61951   0.62149   0.62235   0.62581   0.63112
 Alpha virt. eigenvalues --    0.63234   0.63894   0.63994   0.64055   0.64356
 Alpha virt. eigenvalues --    0.64749   0.64853   0.65009   0.65310   0.65368
 Alpha virt. eigenvalues --    0.65597   0.65667   0.65843   0.65880   0.66005
 Alpha virt. eigenvalues --    0.66142   0.66311   0.66429   0.66482   0.66835
 Alpha virt. eigenvalues --    0.66873   0.67048   0.67093   0.67217   0.67290
 Alpha virt. eigenvalues --    0.67398   0.67639   0.67752   0.67951   0.68170
 Alpha virt. eigenvalues --    0.68352   0.68422   0.68521   0.68666   0.68884
 Alpha virt. eigenvalues --    0.68968   0.69074   0.69248   0.69356   0.69538
 Alpha virt. eigenvalues --    0.69598   0.69762   0.69921   0.70088   0.70248
 Alpha virt. eigenvalues --    0.70554   0.70743   0.70790   0.70955   0.71055
 Alpha virt. eigenvalues --    0.71163   0.71281   0.71466   0.71534   0.71709
 Alpha virt. eigenvalues --    0.71755   0.71889   0.72101   0.72160   0.72293
 Alpha virt. eigenvalues --    0.72384   0.72566   0.72722   0.72903   0.72997
 Alpha virt. eigenvalues --    0.73117   0.73331   0.73510   0.73514   0.73674
 Alpha virt. eigenvalues --    0.74017   0.74112   0.74207   0.74461   0.74569
 Alpha virt. eigenvalues --    0.74828   0.75010   0.75069   0.75183   0.75499
 Alpha virt. eigenvalues --    0.75550   0.75719   0.75847   0.76215   0.76281
 Alpha virt. eigenvalues --    0.76465   0.76712   0.76836   0.76870   0.77014
 Alpha virt. eigenvalues --    0.77084   0.77241   0.77376   0.77541   0.77847
 Alpha virt. eigenvalues --    0.77947   0.78224   0.78265   0.78313   0.78702
 Alpha virt. eigenvalues --    0.78983   0.79012   0.79103   0.79160   0.79367
 Alpha virt. eigenvalues --    0.79495   0.79766   0.79931   0.80106   0.80148
 Alpha virt. eigenvalues --    0.80399   0.80495   0.80580   0.80727   0.81007
 Alpha virt. eigenvalues --    0.81082   0.81493   0.81613   0.81786   0.81979
 Alpha virt. eigenvalues --    0.82004   0.82077   0.82175   0.82292   0.82334
 Alpha virt. eigenvalues --    0.82476   0.82608   0.82979   0.83083   0.83291
 Alpha virt. eigenvalues --    0.83423   0.83631   0.83653   0.83725   0.83873
 Alpha virt. eigenvalues --    0.83955   0.83968   0.84073   0.84460   0.84649
 Alpha virt. eigenvalues --    0.84714   0.84957   0.85234   0.85410   0.85759
 Alpha virt. eigenvalues --    0.85766   0.85918   0.86196   0.86236   0.86497
 Alpha virt. eigenvalues --    0.86641   0.86648   0.86874   0.87095   0.87366
 Alpha virt. eigenvalues --    0.87424   0.87480   0.87559   0.87867   0.87884
 Alpha virt. eigenvalues --    0.88025   0.88084   0.88213   0.88353   0.88544
 Alpha virt. eigenvalues --    0.88836   0.88916   0.89039   0.89331   0.89456
 Alpha virt. eigenvalues --    0.89569   0.89692   0.89821   0.89971   0.90312
 Alpha virt. eigenvalues --    0.90581   0.90628   0.90767   0.91058   0.91108
 Alpha virt. eigenvalues --    0.91503   0.91548   0.91832   0.91919   0.91948
 Alpha virt. eigenvalues --    0.92177   0.92456   0.92789   0.92801   0.92999
 Alpha virt. eigenvalues --    0.93382   0.93472   0.93643   0.93875   0.93960
 Alpha virt. eigenvalues --    0.94349   0.94495   0.94542   0.95001   0.95050
 Alpha virt. eigenvalues --    0.95297   0.95508   0.95766   0.96052   0.96205
 Alpha virt. eigenvalues --    0.96327   0.96989   0.97121   0.97341   0.97565
 Alpha virt. eigenvalues --    0.97809   0.97972   0.98260   0.98331   0.98436
 Alpha virt. eigenvalues --    0.98557   0.98853   0.98869   0.98911   0.99226
 Alpha virt. eigenvalues --    0.99400   0.99467   0.99640   0.99753   0.99910
 Alpha virt. eigenvalues --    1.00047   1.00076   1.00373   1.00518   1.00546
 Alpha virt. eigenvalues --    1.00781   1.00878   1.01011   1.01257   1.01369
 Alpha virt. eigenvalues --    1.01505   1.01571   1.01770   1.01939   1.02020
 Alpha virt. eigenvalues --    1.02149   1.02292   1.02401   1.02586   1.02647
 Alpha virt. eigenvalues --    1.02928   1.03065   1.03207   1.03302   1.03491
 Alpha virt. eigenvalues --    1.03581   1.03711   1.03870   1.03993   1.04013
 Alpha virt. eigenvalues --    1.04072   1.04120   1.04281   1.04307   1.04497
 Alpha virt. eigenvalues --    1.04568   1.04628   1.04838   1.04952   1.05055
 Alpha virt. eigenvalues --    1.05111   1.05314   1.05366   1.05544   1.05642
 Alpha virt. eigenvalues --    1.05706   1.05851   1.05921   1.06102   1.06210
 Alpha virt. eigenvalues --    1.06415   1.06571   1.06661   1.06693   1.06782
 Alpha virt. eigenvalues --    1.06974   1.07139   1.07155   1.07263   1.07311
 Alpha virt. eigenvalues --    1.07500   1.07551   1.07682   1.07783   1.07802
 Alpha virt. eigenvalues --    1.07923   1.08073   1.08285   1.08343   1.08461
 Alpha virt. eigenvalues --    1.08566   1.08694   1.08831   1.08920   1.09025
 Alpha virt. eigenvalues --    1.09155   1.09206   1.09391   1.09502   1.09521
 Alpha virt. eigenvalues --    1.09672   1.09743   1.09914   1.10030   1.10137
 Alpha virt. eigenvalues --    1.10192   1.10396   1.10467   1.10592   1.10712
 Alpha virt. eigenvalues --    1.10814   1.11011   1.11113   1.11239   1.11288
 Alpha virt. eigenvalues --    1.11377   1.11463   1.11506   1.11703   1.11816
 Alpha virt. eigenvalues --    1.11840   1.12138   1.12351   1.12459   1.12633
 Alpha virt. eigenvalues --    1.12752   1.12900   1.12984   1.13143   1.13327
 Alpha virt. eigenvalues --    1.13558   1.13599   1.13798   1.14045   1.14248
 Alpha virt. eigenvalues --    1.14358   1.14572   1.14638   1.14818   1.15015
 Alpha virt. eigenvalues --    1.15276   1.15318   1.15444   1.15516   1.15573
 Alpha virt. eigenvalues --    1.15726   1.15773   1.16205   1.16318   1.16506
 Alpha virt. eigenvalues --    1.16685   1.16929   1.16974   1.17075   1.17216
 Alpha virt. eigenvalues --    1.17368   1.17485   1.17536   1.17783   1.17834
 Alpha virt. eigenvalues --    1.18013   1.18097   1.18289   1.18344   1.18651
 Alpha virt. eigenvalues --    1.18710   1.18825   1.19067   1.19160   1.19332
 Alpha virt. eigenvalues --    1.19543   1.19583   1.19846   1.19987   1.20168
 Alpha virt. eigenvalues --    1.20515   1.20593   1.20839   1.21110   1.21217
 Alpha virt. eigenvalues --    1.21274   1.21604   1.21933   1.22044   1.22166
 Alpha virt. eigenvalues --    1.22391   1.22481   1.22647   1.22980   1.23101
 Alpha virt. eigenvalues --    1.23452   1.23744   1.24234   1.24498   1.24569
 Alpha virt. eigenvalues --    1.24727   1.25108   1.25174   1.25358   1.25556
 Alpha virt. eigenvalues --    1.25805   1.26408   1.26670   1.27032   1.27068
 Alpha virt. eigenvalues --    1.27219   1.27783   1.28320   1.28376   1.28569
 Alpha virt. eigenvalues --    1.29070   1.29456   1.29630   1.29939   1.30371
 Alpha virt. eigenvalues --    1.30509   1.30959   1.31010   1.31271   1.31552
 Alpha virt. eigenvalues --    1.31807   1.32238   1.32423   1.32610   1.32777
 Alpha virt. eigenvalues --    1.33106   1.33173   1.33437   1.33691   1.33902
 Alpha virt. eigenvalues --    1.34220   1.34601   1.35003   1.35286   1.35739
 Alpha virt. eigenvalues --    1.35986   1.36214   1.36383   1.36723   1.36737
 Alpha virt. eigenvalues --    1.36985   1.37216   1.37493   1.38109   1.38379
 Alpha virt. eigenvalues --    1.38561   1.38680   1.39297   1.39714   1.40132
 Alpha virt. eigenvalues --    1.40671   1.40876   1.41267   1.41375   1.41729
 Alpha virt. eigenvalues --    1.42297   1.42468   1.42770   1.42795   1.43183
 Alpha virt. eigenvalues --    1.43538   1.43873   1.44352   1.45103   1.45446
 Alpha virt. eigenvalues --    1.45995   1.46866   1.46927   1.47151   1.48012
 Alpha virt. eigenvalues --    1.48197   1.48313   1.48741   1.48984   1.49335
 Alpha virt. eigenvalues --    1.49587   1.49675   1.50157   1.50722   1.50766
 Alpha virt. eigenvalues --    1.50925   1.51569   1.51919   1.52243   1.52342
 Alpha virt. eigenvalues --    1.52867   1.53176   1.53576   1.53869   1.53944
 Alpha virt. eigenvalues --    1.54197   1.54317   1.54566   1.54821   1.55368
 Alpha virt. eigenvalues --    1.55646   1.56485   1.56761   1.56901   1.57159
 Alpha virt. eigenvalues --    1.57269   1.57383   1.57493   1.57661   1.57874
 Alpha virt. eigenvalues --    1.57950   1.58167   1.58436   1.58586   1.58722
 Alpha virt. eigenvalues --    1.58960   1.59131   1.59387   1.59570   1.59643
 Alpha virt. eigenvalues --    1.59670   1.60009   1.60110   1.60392   1.61099
 Alpha virt. eigenvalues --    1.61266   1.61362   1.61731   1.61990   1.62074
 Alpha virt. eigenvalues --    1.62212   1.62438   1.62586   1.62791   1.62891
 Alpha virt. eigenvalues --    1.62948   1.63053   1.63149   1.63449   1.63794
 Alpha virt. eigenvalues --    1.64163   1.64228   1.64331   1.64684   1.64885
 Alpha virt. eigenvalues --    1.65231   1.65791   1.66099   1.66463   1.66707
 Alpha virt. eigenvalues --    1.66839   1.66970   1.67074   1.67269   1.67381
 Alpha virt. eigenvalues --    1.67565   1.67866   1.68111   1.68321   1.68504
 Alpha virt. eigenvalues --    1.68672   1.68989   1.69086   1.69566   1.70309
 Alpha virt. eigenvalues --    1.70602   1.70724   1.71304   1.72042   1.73079
 Alpha virt. eigenvalues --    1.73256   1.73889   1.74404   1.74894   1.75563
 Alpha virt. eigenvalues --    1.75746   1.77011   1.77099   1.77613   1.78295
 Alpha virt. eigenvalues --    1.78621   1.79415   1.79545   1.79968   1.80625
 Alpha virt. eigenvalues --    1.81644   1.81756   1.82296   1.83407   1.83669
 Alpha virt. eigenvalues --    1.83887   1.84513   1.84722   1.84844   1.84976
 Alpha virt. eigenvalues --    1.85609   1.86023   1.86129   1.86322   1.86481
 Alpha virt. eigenvalues --    1.86880   1.87395   1.87678   1.87817   1.87871
 Alpha virt. eigenvalues --    1.88252   1.88409   1.88518   1.88588   1.88806
 Alpha virt. eigenvalues --    1.88958   1.89109   1.89353   1.89391   1.89468
 Alpha virt. eigenvalues --    1.89607   1.89778   1.90011   1.90271   1.90560
 Alpha virt. eigenvalues --    1.90977   1.91188   1.91550   1.91977   1.92459
 Alpha virt. eigenvalues --    1.92768   1.92909   1.93225   1.93543   1.93566
 Alpha virt. eigenvalues --    1.93895   1.94364   1.94528   1.94695   1.94759
 Alpha virt. eigenvalues --    1.94925   1.95229   1.95360   1.95552   1.95815
 Alpha virt. eigenvalues --    1.96151   1.96284   1.96410   1.96778   1.96851
 Alpha virt. eigenvalues --    1.96944   1.97104   1.97371   1.97505   1.97623
 Alpha virt. eigenvalues --    1.97766   1.97991   1.98239   1.98320   1.98526
 Alpha virt. eigenvalues --    1.98573   1.98802   1.98807   1.98991   1.99114
 Alpha virt. eigenvalues --    1.99435   1.99552   1.99899   2.00129   2.00384
 Alpha virt. eigenvalues --    2.00566   2.00971   2.01080   2.01648   2.02070
 Alpha virt. eigenvalues --    2.02248   2.02523   2.03180   2.03692   2.03951
 Alpha virt. eigenvalues --    2.04488   2.04680   2.05099   2.05322   2.05463
 Alpha virt. eigenvalues --    2.05528   2.05765   2.06001   2.06244   2.06566
 Alpha virt. eigenvalues --    2.06737   2.06823   2.07062   2.07282   2.07775
 Alpha virt. eigenvalues --    2.07934   2.08348   2.08623   2.08759   2.08862
 Alpha virt. eigenvalues --    2.09202   2.09639   2.09966   2.10090   2.10200
 Alpha virt. eigenvalues --    2.10409   2.10468   2.10640   2.10780   2.11040
 Alpha virt. eigenvalues --    2.11099   2.11276   2.11323   2.11373   2.11457
 Alpha virt. eigenvalues --    2.11579   2.11730   2.11963   2.12037   2.12253
 Alpha virt. eigenvalues --    2.12509   2.12702   2.12797   2.13106   2.13287
 Alpha virt. eigenvalues --    2.13464   2.13618   2.13796   2.13926   2.14185
 Alpha virt. eigenvalues --    2.14302   2.14642   2.14930   2.15318   2.15496
 Alpha virt. eigenvalues --    2.15674   2.15790   2.16009   2.16145   2.16221
 Alpha virt. eigenvalues --    2.16592   2.16654   2.16711   2.16836   2.16964
 Alpha virt. eigenvalues --    2.17379   2.17518   2.17696   2.17857   2.18086
 Alpha virt. eigenvalues --    2.18167   2.18483   2.18520   2.18664   2.19042
 Alpha virt. eigenvalues --    2.19130   2.19293   2.19485   2.19594   2.19971
 Alpha virt. eigenvalues --    2.21021   2.21120   2.21315   2.21493   2.21943
 Alpha virt. eigenvalues --    2.22244   2.22408   2.22426   2.22915   2.23473
 Alpha virt. eigenvalues --    2.23603   2.24427   2.24787   2.24881   2.25212
 Alpha virt. eigenvalues --    2.25305   2.25684   2.25718   2.25899   2.26003
 Alpha virt. eigenvalues --    2.26451   2.26737   2.26870   2.27233   2.27287
 Alpha virt. eigenvalues --    2.27501   2.27776   2.28069   2.28355   2.28409
 Alpha virt. eigenvalues --    2.28722   2.28937   2.29241   2.29626   2.29892
 Alpha virt. eigenvalues --    2.30181   2.30276   2.30398   2.30697   2.30989
 Alpha virt. eigenvalues --    2.31066   2.31360   2.31877   2.32052   2.32244
 Alpha virt. eigenvalues --    2.32740   2.33000   2.33070   2.33268   2.33834
 Alpha virt. eigenvalues --    2.34269   2.34748   2.35144   2.35264   2.35484
 Alpha virt. eigenvalues --    2.35574   2.36145   2.36950   2.37044   2.37393
 Alpha virt. eigenvalues --    2.37716   2.37757   2.38243   2.38490   2.38926
 Alpha virt. eigenvalues --    2.39940   2.40311   2.40544   2.40648   2.40791
 Alpha virt. eigenvalues --    2.40885   2.41402   2.41460   2.41496   2.41535
 Alpha virt. eigenvalues --    2.41650   2.41724   2.41880   2.42044   2.42124
 Alpha virt. eigenvalues --    2.42314   2.42490   2.42660   2.42723   2.42746
 Alpha virt. eigenvalues --    2.42840   2.42980   2.43138   2.43532   2.43632
 Alpha virt. eigenvalues --    2.43764   2.43976   2.44037   2.44461   2.44536
 Alpha virt. eigenvalues --    2.44575   2.44819   2.45023   2.45145   2.45248
 Alpha virt. eigenvalues --    2.45973   2.46116   2.46151   2.46247   2.46779
 Alpha virt. eigenvalues --    2.46947   2.47271   2.47482   2.47512   2.47882
 Alpha virt. eigenvalues --    2.48018   2.48124   2.48176   2.48489   2.48671
 Alpha virt. eigenvalues --    2.48713   2.48958   2.49041   2.49300   2.49391
 Alpha virt. eigenvalues --    2.49479   2.49954   2.50035   2.50140   2.50238
 Alpha virt. eigenvalues --    2.50784   2.50989   2.51033   2.51509   2.51577
 Alpha virt. eigenvalues --    2.51808   2.51826   2.51982   2.52525   2.53414
 Alpha virt. eigenvalues --    2.53477   2.54376   2.54494   2.54542   2.55129
 Alpha virt. eigenvalues --    2.55441   2.55881   2.55994   2.56453   2.56738
 Alpha virt. eigenvalues --    2.57856   2.58343   2.58457   2.58580   2.58893
 Alpha virt. eigenvalues --    2.59277   2.59754   2.60230   2.60409   2.61374
 Alpha virt. eigenvalues --    2.61601   2.61896   2.62130   2.62388   2.63141
 Alpha virt. eigenvalues --    2.63924   2.64484   2.64797   2.65191   2.65364
 Alpha virt. eigenvalues --    2.65413   2.65644   2.66009   2.66426   2.66699
 Alpha virt. eigenvalues --    2.67028   2.67072   2.67313   2.67981   2.68077
 Alpha virt. eigenvalues --    2.68328   2.68462   2.68534   2.68884   2.69116
 Alpha virt. eigenvalues --    2.69391   2.69489   2.69773   2.70103   2.70542
 Alpha virt. eigenvalues --    2.70618   2.71386   2.71530   2.72003   2.72765
 Alpha virt. eigenvalues --    2.73390   2.73916   2.74581   2.74749   2.75423
 Alpha virt. eigenvalues --    2.75574   2.75788   2.76344   2.76751   2.77044
 Alpha virt. eigenvalues --    2.77959   2.78098   2.78811   2.79250   2.79746
 Alpha virt. eigenvalues --    2.79888   2.80324   2.80518   2.81003   2.81449
 Alpha virt. eigenvalues --    2.81568   2.81957   2.82381   2.82877   2.83667
 Alpha virt. eigenvalues --    2.83733   2.83820   2.83907   2.84564   2.84827
 Alpha virt. eigenvalues --    2.85278   2.85438   2.85530   2.85799   2.86402
 Alpha virt. eigenvalues --    2.86901   2.86984   2.87498   2.87861   2.88103
 Alpha virt. eigenvalues --    2.88312   2.88668   2.88888   2.89228   2.89363
 Alpha virt. eigenvalues --    2.89688   2.89986   2.90271   2.90565   2.90937
 Alpha virt. eigenvalues --    2.91136   2.91283   2.91624   2.92244   2.92365
 Alpha virt. eigenvalues --    2.92649   2.93403   2.93453   2.93910   2.94410
 Alpha virt. eigenvalues --    2.94996   2.95440   2.96460   2.96872   2.97871
 Alpha virt. eigenvalues --    2.98323   2.99768   3.01133   3.02997   3.04066
 Alpha virt. eigenvalues --    3.04949   3.05719   3.05834   3.06491   3.07065
 Alpha virt. eigenvalues --    3.07431   3.08041   3.09493   3.11077   3.12046
 Alpha virt. eigenvalues --    3.13508   3.13632   3.15954   3.18288   3.19422
 Alpha virt. eigenvalues --    3.19932   3.21201   3.22098   3.22420   3.22680
 Alpha virt. eigenvalues --    3.24459   3.25866   3.29369   3.31066   3.31691
 Alpha virt. eigenvalues --    3.32219   3.34591   3.36769   3.36946   3.45393
 Alpha virt. eigenvalues --    3.61188   3.62593   3.65947   3.94561   3.95468
 Alpha virt. eigenvalues --    3.99172   4.09023   4.11749   4.14108   4.17793
 Alpha virt. eigenvalues --    4.22160   4.24478   4.28373   4.29503   4.29834
 Alpha virt. eigenvalues --    4.30596   4.30964   4.31159   4.31397   4.31751
 Alpha virt. eigenvalues --    4.31972   4.32008   4.32544   4.33700   4.33886
 Alpha virt. eigenvalues --    4.33991   4.34518   4.34963   4.35917   4.36148
 Alpha virt. eigenvalues --    4.36604   4.36751   4.37590   4.38027   4.38533
 Alpha virt. eigenvalues --    4.39006   4.40165   4.40924   4.42224   4.42331
 Alpha virt. eigenvalues --    4.42790   4.43251   4.45128   4.45434   4.45567
 Alpha virt. eigenvalues --    4.45648   4.45726   4.46650   4.47067   4.47771
 Alpha virt. eigenvalues --    4.48043   4.48668   4.49261   4.49577   4.50284
 Alpha virt. eigenvalues --    4.50504   4.51383   4.51740   4.51759   4.52361
 Alpha virt. eigenvalues --    4.52597   4.53671   4.53888   4.54268   4.54434
 Alpha virt. eigenvalues --    4.54992   4.57287   4.59076   4.59292   4.59810
 Alpha virt. eigenvalues --    4.60387   4.61195   4.62409   4.62706   4.62952
 Alpha virt. eigenvalues --    4.63159   4.63998   4.64476   4.64557   4.67967
 Alpha virt. eigenvalues --    4.68254   4.70283   4.71616   4.72127   4.72272
 Alpha virt. eigenvalues --    4.74369   4.75619   4.76409   4.76628   4.76957
 Alpha virt. eigenvalues --    4.77691   4.78762   4.80601   4.84984   4.88818
 Alpha virt. eigenvalues --    4.89434   4.90952   4.94264   4.94759   5.00443
 Alpha virt. eigenvalues --    5.00607   5.02464
          Condensed to atoms (all electrons):
 Mulliken charges:
               1
     1  H    0.148080
     2  C   -0.483080
     3  H    0.164665
     4  C   -0.375034
     5  H    0.151880
     6  H    0.157471
     7  C    0.137471
     8  C   -0.213440
     9  H    0.139298
    10  C   -0.207356
    11  H    0.156801
    12  C    0.349892
    13  O   -0.712897
    14  H    0.469929
    15  C   -0.246289
    16  H    0.182262
    17  C   -0.213790
    18  H    0.151272
    19  H    0.168506
    20  H    0.151934
    21  C   -0.485805
    22  H    0.154204
    23  C   -0.117468
    24  H    0.145450
    25  C   -0.490611
    26  H    0.158580
    27  H    0.155164
    28  H    0.171298
    29  C   -0.488210
    30  H    0.183686
    31  H    0.149753
    32  H    0.152292
    33  H    0.156316
    34  H    0.144768
    35  C   -0.501547
    36  H    0.173616
    37  C   -0.370860
    38  H    0.154374
    39  H    0.155778
    40  C    0.590198
    41  O   -0.572780
    42  O   -0.610519
    43  H    0.163975
    44  H    0.157670
    45  C   -0.650748
    46  H    0.255805
    47  H    0.252264
    48  C    0.610363
    49  O   -0.558330
    50  N   -0.604517
    51  H    0.348655
    52  C   -0.170317
    53  H    0.209976
    54  C   -0.314274
    55  H    0.142324
    56  H    0.159073
    57  C   -0.120175
    58  H    0.170305
    59  C   -0.495526
    60  H    0.172408
    61  H    0.157427
    62  H    0.154921
    63  C   -0.501466
    64  H    0.152746
    65  H    0.176774
    66  H    0.175243
    67  H    0.172163
    68  H    0.150871
    69  C   -0.488487
    70  H    0.163190
    71  C   -0.113638
    72  H    0.131517
    73  C   -0.496491
    74  H    0.146637
    75  H    0.181413
    76  H    0.166157
    77  C   -0.507679
    78  H    0.171716
    79  H    0.155240
    80  H    0.173955
    81  H    0.151453
    82  H    0.170959
    83  C   -0.486113
    84  H    0.153388
    85  C   -0.376736
    86  H    0.158099
    87  H    0.159488
    88  C    0.150955
    89  C   -0.218462
    90  H    0.142283
    91  C   -0.158324
    92  H    0.159421
    93  C   -0.180809
    94  H    0.172404
    95  C   -0.168101
    96  H    0.209413
    97  C   -0.217106
    98  H    0.145483
    99  H    0.168497
   100  H    0.153497
   101  C   -0.488760
   102  H    0.161730
   103  C   -0.128370
   104  H    0.161273
   105  C   -0.486955
   106  H    0.152542
   107  H    0.158677
   108  H    0.163870
   109  C   -0.500447
   110  H    0.166098
[...]
   44 Atom       -0.309439      0.145095      0.164344
   45 Atom       -0.144733      0.025614      0.119119
   46 Atom       -0.278000      0.132507      0.145493
   47 Atom       -0.274568      0.133388      0.141181
   48 Atom       -0.423783      0.101605      0.322178
   49 Atom       -1.000897     -0.447789      1.448686
   50 Atom       -0.453556     -0.413857      0.867414
   51 Atom       -0.391333      0.160189      0.231144
   52 Atom       -0.299162      0.110315      0.188847
   53 Atom       -0.284664      0.137341      0.147324
   54 Atom       -0.039805      0.016678      0.023126
   55 Atom       -0.290068      0.140514      0.149554
   56 Atom       -0.293511      0.143431      0.150080
   57 Atom       -0.042037     -0.011065      0.053102
   58 Atom       -0.281497      0.139799      0.141698
   59 Atom       -0.024790      0.006532      0.018258
   60 Atom       -0.305034      0.149527      0.155507
   61 Atom       -0.305143      0.149408      0.155735
   62 Atom       -0.303723      0.148617      0.155106
   63 Atom       -0.038466      0.013776      0.024690
   64 Atom       -0.304297      0.148503      0.155794
   65 Atom       -0.307006      0.149628      0.157378
   66 Atom       -0.304723      0.148825      0.155898
   67 Atom       -0.283499      0.134943      0.148556
   68 Atom       -0.305229      0.150425      0.154805
   69 Atom       -0.011401      0.002770      0.008631
   70 Atom       -0.303555      0.149419      0.154136
   71 Atom       -0.021062     -0.000257      0.021319
   72 Atom       -0.284970      0.141556      0.143414
   73 Atom       -0.030815      0.003078      0.027737
   74 Atom       -0.306663      0.150354      0.156309
   75 Atom       -0.299286      0.145901      0.153386
   76 Atom       -0.306236      0.149473      0.156763
   77 Atom       -0.035499      0.010655      0.024845
   78 Atom       -0.302530      0.147825      0.154705
   79 Atom       -0.304505      0.149748      0.154757
   80 Atom       -0.301006      0.146443      0.154564
   81 Atom       -0.305985      0.150553      0.155432
   82 Atom       -0.303573      0.148018      0.155555
   83 Atom       -0.049897      0.019391      0.030505
   84 Atom       -0.305838      0.150193      0.155645
   85 Atom       -0.025870     -0.012385      0.038255
   86 Atom       -0.292456      0.143716      0.148741
   87 Atom       -0.292723      0.143982      0.148741
   88 Atom       -0.274601      0.097376      0.177226
   89 Atom       -0.231710      0.075813      0.155897
   90 Atom       -0.311714      0.145208      0.166506
   91 Atom       -0.275302      0.111681      0.163621
   92 Atom       -0.312539      0.147053      0.165486
   93 Atom       -0.275018      0.124692      0.150326
   94 Atom       -0.309486      0.147003      0.162483
   95 Atom       -0.318068      0.144761      0.173307
   96 Atom       -0.300355      0.143067      0.157288
   97 Atom       -0.241354      0.080525      0.160829
   98 Atom       -0.312475      0.146182      0.166292
   99 Atom       -0.303854      0.148173      0.155681
  100 Atom       -0.304167      0.149051      0.155116
  101 Atom       -0.015635      0.002098      0.013536
  102 Atom       -0.305526      0.150174      0.155352
  103 Atom       -0.025296     -0.012668      0.037963
  104 Atom       -0.281536      0.139465      0.142071
  105 Atom       -0.022921      0.009189      0.013732
  106 Atom       -0.304641      0.149738      0.154903
  107 Atom       -0.306270      0.150129      0.156141
  108 Atom       -0.305344      0.149859      0.155484
  109 Atom       -0.025606      0.006198      0.019409
  110 Atom       -0.301278      0.147903      0.153376
  111 Atom       -0.304740      0.149438      0.155302
  112 Atom       -0.304190      0.148697      0.155492
  113 Atom       -0.305287      0.149285      0.156001
  114 Atom       -0.299840      0.146008      0.153832
  115 Atom       -0.046702      0.005090      0.041612
  116 Atom       -0.307327      0.150638      0.156689
  117 Atom       -0.064123      0.010746      0.053377
  118 Atom       -0.291537      0.142381      0.149156
  119 Atom       -0.291812      0.142096      0.149716
  120 Atom       -0.222924      0.088447      0.134477
  121 Atom       -0.293302      0.140673      0.152629
  122 Atom       -0.288480      0.140284      0.148196
  123 Atom       -2.273327     -0.574370      2.847697
  124 Atom       -0.218011      0.102139      0.115872
  125 Atom       -0.304094      0.147666      0.156428
  126 Atom       -0.303337      0.147396      0.155941
  127 Atom       -0.308998      0.148001      0.160997
  128 Atom       -0.304603      0.148270      0.156333
  129 Atom       -0.305189      0.150658      0.154531
  130 Atom       -0.016295      0.004033      0.012262
  131 Atom       -0.307836      0.152129      0.155706
  132 Atom       -0.033591      0.009011      0.024580
  133 Atom       -0.294044      0.143622      0.150423
  134 Atom       -0.293691      0.144433      0.149258
  135 Atom       -0.027860      0.000349      0.027511
  136 Atom       -0.284944      0.141317      0.143627
  137 Atom       -0.016613      0.005285      0.011328
  138 Atom       -0.306998      0.151568      0.155430
  139 Atom       -0.305211      0.149036      0.156174
  140 Atom       -0.307128      0.150540      0.156588
  141 Atom       -0.047988      0.011434      0.036554
  142 Atom       -0.306318      0.149575      0.156743
  143 Atom       -0.301675      0.145880      0.155795
  144 Atom       -0.302430      0.146243      0.156187
  145 Atom       -0.304995      0.150196      0.154798
  146 Atom       -0.306206      0.150797      0.155409
  147 Atom       -0.008400     -0.004170      0.012569
  148 Atom       -0.304887      0.150096      0.154790
  149 Atom       -0.031736     -0.009467      0.041203
  150 Atom       -0.281778      0.140273      0.141505
  151 Atom       -0.027341     -0.007854      0.035196
  152 Atom       -0.298574      0.147193      0.151381
  153 Atom       -0.306075      0.150143      0.155932
  154 Atom       -0.305616      0.149803      0.155813
  155 Atom       -0.032691      0.003802      0.028889
  156 Atom       -0.304634      0.148871      0.155762
  157 Atom       -0.307252      0.150029      0.157223
  158 Atom       -0.300904      0.147394      0.153510
  159 Atom       -0.306219      0.150866      0.155353
  160 Atom       -0.305500      0.147237      0.158264
  161 Atom       -0.062449      0.017834      0.044616
  162 Atom       -0.302378      0.145704      0.156675
  163 Atom       -0.051576      0.020288      0.031288
  164 Atom       -0.294668      0.143965      0.150703
  165 Atom       -0.293406      0.142651      0.150755
  166 Atom       -0.402647      0.053250      0.349397
  167 Atom       -0.757741     -0.715595      1.473335
  168 Atom       -1.282971      0.494515      0.788456
  169 Atom       -0.266457      0.119333      0.147124
  170 Atom       -0.306014      0.149752      0.156262
  171 Atom       -0.305238      0.150758      0.154479
  172 Atom       -0.015089      0.003402      0.011687
  173 Atom       -0.304711      0.150304      0.154407
  174 Atom       -0.072843      0.004707      0.068136
  175 Atom       -0.302803      0.146979      0.155824
  176 Atom       -0.287053      0.141369      0.145684
  177 Atom       -0.304034      0.148303      0.155731
  178 Atom       -0.305947      0.149915      0.156032
  179 Atom       -0.304649      0.149387      0.155261
  180 Atom       -0.035594      0.011040      0.024554
  181 Atom       -0.305192      0.150268      0.154924
  182 Atom       -0.031331     -0.000072      0.031403
  183 Atom       -0.290672      0.144294      0.146378
  184 Atom       -0.292398      0.143698      0.148701
  185 Atom       -0.079223      0.013089      0.066133
  186 Atom       -0.120761     -0.085196      0.205957
  187 Atom       -0.326495      0.150413      0.176083
  188 Atom       -0.412623     -0.118640      0.531262
  189 Atom       -0.276038      0.113747      0.162291
  190 Atom       -0.151896     -0.076297      0.228193
  191 Atom       -0.206313      0.073104      0.133208
  192 Atom       -0.314095      0.147475      0.166620
  193 Atom       -0.219295      0.084231      0.135063
  194 Atom       -0.314650      0.146610      0.168040
  195 Atom       -0.197283      0.066590      0.130693
  196 Atom       -0.314251      0.145958      0.168293
  197 Atom       -0.225599      0.076927      0.148673
  198 Atom       -0.315593      0.148397      0.167196
  199 Atom       -0.188946      0.076419      0.112527
  200 Atom       -0.305519      0.148995      0.156524
  201 Atom       -0.562923      0.162039      0.400883
  202 Atom       -0.890610     -0.475109      1.365719
  203 Atom       -0.121429      0.014753      0.106676
  204 Atom       -0.588477      0.268722      0.319755
  205 Atom       -0.079213     -0.015549      0.094762
  206 Atom       -0.048942      0.003336      0.045606
  207 Atom       -0.042817     -0.006444      0.049261
  208 Atom       -0.106255     -0.008345      0.114601
  209 Atom       -0.037391     -0.015386      0.052777
  210 Atom       -0.022284     -0.002552      0.024836
  211 Atom       -0.029206      0.002948      0.026258
  212 Atom       -0.025794      0.000795      0.024999
  213 Atom       -0.019889     -0.006803      0.026692
  214 Atom       -0.028734     -0.014263      0.042997
  215 Atom       -0.032599     -0.011304      0.043904
  216 Atom       -0.072962      0.020098      0.052863
  217 Atom       -0.037063     -0.002182      0.039245
  218 Atom       -0.338819      0.161115      0.177704
  219 Atom       -0.055852      0.003239      0.052613
  220 Atom       -1.507378     -0.125271      1.632649
  221 Atom       -0.300949      0.135132      0.165818
  222 Atom       -0.240354      0.117835      0.122519
  223 Atom       -0.288886      0.141416      0.147470
  224 Atom       -0.296824      0.144819      0.152005
  225 Atom       -0.289314      0.140331      0.148982
  226 Atom       -0.288102      0.139164      0.148938
  227 Atom       -0.295362      0.139115      0.156247
  228 Atom       -0.227733      0.109423      0.118310
  229 Atom       -0.290595      0.142952      0.147643
  230 Atom       -0.291471      0.143830      0.147641
  231 Atom       -0.286285      0.141874      0.144411
  232 Atom       -0.280039      0.139747      0.140293
  233 Atom       -0.278103      0.136673      0.141430
  234 Atom       -0.289377      0.142030      0.147347
  235 Atom       -0.285777      0.140127      0.145650
  236 Atom       -0.286363      0.141597      0.144766
  237 Atom       -0.297510      0.145311      0.152198
  238 Atom       -0.298582      0.146931      0.151651
  239 Atom       -0.299359      0.146592      0.152768
  240 Atom       -0.301439      0.149486      0.151953
  241 Atom       -0.298641      0.148586      0.150056
  242 Atom       -0.263336      0.125566      0.137770
  243 Atom       -0.303839      0.144806      0.159034
  244 Atom       -0.310063      0.149877      0.160186
  245 Atom       -0.303362      0.146493      0.156869
  246 Atom       -0.394359      0.167215      0.227144
  247 Atom       -1.380410     -0.035359      1.415769
  248 Atom       -0.486643      0.220444      0.266198
  249 Atom       -0.249213      0.098752      0.150461
  250 Atom       -1.417968     -0.094297      1.512265
  251 Atom       -0.408375      0.175462      0.232913
  252 Atom       -0.454111      0.201440      0.252672
  253 Atom       -1.468098     -0.108484      1.576582
  254 Atom       -0.342369      0.143292      0.199077
  255 Atom       -0.482526      0.213784      0.268742
  256 Atom       -1.446209     -0.112923      1.559132
  257 Atom       -0.438513      0.193231      0.245282
  258 Atom       -0.408537      0.177323      0.231214
 -----------------------------------------------------
 Unable to Open any file for archive entry.
 1\1\GINC-EXP-2-38\SP\RwB97XD\6-31G(d)\C84H159N2O12S1(1-)\HKLEM\11-Jul-
 2024\0\\# wb97xd/6-31G(d) prop=efg\\19nt_mm_min_distance_cutoff3_xtb_c
 onf_1\\-1,1\H,0,47.0636,33.7897,30.8118\C,0,46.354,34.588,30.601\H,0,4
 6.1722,34.6189,29.5288\C,0,45.0413,34.3635,31.3516\H,0,44.6118,33.4047
 ,31.0523\H,0,45.2421,34.3266,32.425\C,0,44.0769,35.4757,31.0494\C,0,43
 .1406,35.3553,30.0315\H,0,43.0752,34.4302,29.4747\C,0,42.2879,36.3951,
 29.72\H,0,41.5569,36.2992,28.9318\C,0,42.3562,37.5938,30.4275\O,0,41.5
 099,38.5903,30.0995\H,0,41.6795,39.3669,30.6857\C,0,43.2981,37.7231,31
 .4457\H,0,43.3573,38.6493,31.9981\C,0,44.1439,36.6746,31.7466\H,0,44.8
 685,36.7898,32.5409\H,0,46.7986,35.5356,30.8965\H,0,48.4075,38.2949,26
 .2315\C,0,48.063,39.251,26.62\H,0,47.3941,39.6997,25.8885\C,0,47.3366,
 39.0631,27.9515\H,0,48.0337,38.6123,28.6672\C,0,46.8811,40.4108,28.503
 7\H,0,47.7307,41.0748,28.6498\H,0,46.1885,40.8855,27.8115\H,0,46.3782,
 40.2793,29.4589\C,0,46.1412,38.127,27.7874\H,0,45.6364,37.9738,28.7388
 \H,0,46.4603,37.1572,27.4113\H,0,45.4245,38.5476,27.0848\H,0,48.9244,3
 9.9041,26.7431\H,0,36.3876,47.3015,32.9523\C,0,37.164,46.712,32.465\H,
 0,36.7572,46.2793,31.5531\C,0,38.3743,47.58,32.1279\H,0,38.8149,47.988
 6,33.0403\H,0,38.0663,48.4041,31.48\C,0,39.4424,46.753,31.373\O,0,40.4
 843,46.4616,31.9965\O,0,39.1853,46.437,30.1985\H,0,37.4558,45.9011,33.
 1307\H,0,42.4485,46.862,22.6663\C,0,43.019,47.115,23.555\H,0,42.566,46
 .6248,24.4176\H,0,43.0093,48.1919,23.7131\C,0,44.4603,46.6513,23.4331\
 O,0,45.3857,47.2375,23.9888\N,0,44.6857,45.5519,22.6833\H,0,43.8911,45
 .0905,22.2675\C,0,45.983,44.912,22.455\H,0,46.6945,45.3869,23.1311\C,0
 ,45.8955,43.4069,22.6923\H,0,45.1087,43.0028,22.0485\H,0,46.8389,42.95
 25,22.3824\C,0,45.6018,43.0211,24.1483\H,0,44.7906,43.6551,24.522\C,0,
 45.1487,41.5639,24.2206\H,0,44.9352,41.2838,25.2493\H,0,44.2463,41.406
 ,23.6337\H,0,45.9267,40.9048,23.8388\C,0,46.8295,43.2302,25.0295\H,0,4
 7.6707,42.6472,24.6588\H,0,47.1153,44.2769,25.0526\H,0,46.6236,42.9148
 ,26.0494\H,0,46.2963,45.1084,21.4233\H,0,51.3506,46.525,23.7064\C,0,51
 .26,46.169,24.731\H,0,51.617,46.9482,25.4017\C,0,49.8092,45.8229,25.06
 02\H,0,49.4837,45.0238,24.3825\C,0,49.7088,45.3239,26.4988\H,0,50.3245
 ,44.4387,26.6438\H,0,50.0488,46.099,27.1821\H,0,48.6822,45.0696,26.749
 6\C,0,48.905,47.0367,24.8607\H,0,49.1545,47.8042,25.5889\H,0,49.0231,4
 7.4518,23.8617\H,0,47.8595,46.7713,24.997\H,0,51.899,45.2963,24.8494\H
 ,0,49.3575,42.9958,37.758\C,0,50.213,42.685,37.162\H,0,51.0385,42.4513
 ,37.8312\C,0,49.8504,41.4677,36.3082\H,0,50.7261,41.165,35.7285\H,0,49
 .5786,40.6394,36.9671\C,0,48.7063,41.7629,35.3752\C,0,48.9423,42.24,34
 .0923\H,0,49.9612,42.3954,33.7617\C,0,47.8914,42.5032,33.2308\H,0,48.0
 912,42.8608,32.2312\C,0,46.5868,42.2986,33.6444\H,0,45.7623,42.4925,32
 .9742\C,0,46.337,41.8333,34.9242\H,0,45.3184,41.6708,35.2401\C,0,47.39
 13,41.5703,35.7812\H,0,47.1939,41.2006,36.7786\H,0,50.5041,43.5187,36.
 5264\H,0,51.0545,45.7806,32.2108\C,0,50.84,46.417,31.354\H,0,51.7133,4
 6.4331,30.7058\C,0,49.6208,45.8935,30.599\H,0,49.4681,46.5154,29.7095\
 C,0,49.8613,44.4581,30.1394\H,0,50.0282,43.8087,30.9969\H,0,50.7342,44
 .4061,29.493\H,0,49.0035,44.0853,29.5843\C,0,48.3739,45.9739,31.4752\H
 ,0,48.5007,45.3826,32.38\H,0,47.5061,45.5963,30.9394\H,0,48.17,47.0026
 ,31.7672\H,0,50.6688,47.4274,31.72\H,0,52.7033,49.8412,26.8416\C,0,52.
 401,50.618,26.143\H,0,53.0465,50.5697,25.2695\C,0,50.9442,50.4207,25.7
 404\H,0,50.8348,49.4663,25.2229\H,0,50.6407,51.2122,25.0502\C,0,50.009
 3,50.4524,26.9395\H,0,50.1795,51.3504,27.5356\H,0,48.965,50.4202,26.62
 34\S,0,50.286,49.0218,28.05\C,0,49.4487,49.6651,29.5217\H,0,49.9656,50
 .5534,29.876\H,0,48.4146,49.8918,29.2802\H,0,49.488,48.8869,30.2747\H,
 0,52.5386,51.5861,26.6215\H,0,50.5524,50.999,33.483\C,0,49.755,50.767,
 34.187\H,0,49.5617,51.6555,34.7817\C,0,48.5032,50.3201,33.4401\H,0,48.
 7728,49.5133,32.7538\H,0,48.1238,51.1489,32.8374\C,0,47.3847,49.8195,3
 4.3598\H,0,47.7768,48.9907,34.9611\C,0,46.8989,50.916,35.3028\H,0,47.6
 819,51.2275,35.9903\H,0,46.5658,51.781,34.7331\H,0,46.0592,50.552,35.8
 887\C,0,46.2163,49.3027,33.5244\H,0,46.5361,48.5042,32.8587\H,0,45.791
 3,50.1069,32.9271\H,0,45.4289,48.9151,34.1642\H,0,50.1045,49.977,34.84
 89\H,0,47.2552,46.8078,37.0449\C,0,46.253,46.438,37.253\H,0,45.5507,47
 .2552,37.112\C,0,45.9031,45.2789,36.3202\H,0,46.6476,44.4841,36.4503\C
 ,0,44.5272,44.7127,36.6598\H,0,44.2853,43.8823,36.0008\H,0,44.4999,44.
 3564,37.6883\H,0,43.7676,45.483,36.5417\C,0,45.9357,45.7362,34.8653\H,
 0,45.755,44.8931,34.2035\H,0,46.9045,46.1641,34.6169\H,0,45.171,46.489
 4,34.6883\H,0,46.2136,46.1216,38.2938\H,0,43.2435,40.6331,37.4807\C,0,
 42.317,41.201,37.522\H,0,42.5626,42.2533,37.4025\C,0,41.3766,40.7573,3
 6.4146\H,0,41.1287,39.6977,36.5005\H,0,40.4397,41.3175,36.4522\C,0,41.
 9804,40.9856,35.0424\O,0,43.015,41.5766,34.8494\O,0,41.235,40.4629,34.
 0923\H,0,41.6288,40.6143,33.1763\H,0,41.8582,41.0538,38.4975\H,0,38.88
 99,44.722,35.8234\C,0,39.963,44.652,35.992\H,0,40.1385,43.9175,36.7772
 \C,0,40.6822,44.2581,34.71\H,0,41.7502,44.1577,34.8906\H,0,40.5301,45.
 0007,33.93\H,0,40.3088,43.3037,34.3439\H,0,40.3084,45.6191,36.3516\H,0
 ,41.4926,49.7582,37.848\C,0,42.518,50.112,37.763\H,0,42.9353,50.2136,3
 8.7636\C,0,43.3458,49.1327,36.9304\H,0,44.3798,49.4913,36.8928\H,0,43.
 3446,48.1566,37.4223\C,0,42.8154,48.9784,35.541\C,0,42.1898,47.8787,35
 .0184\H,0,41.9794,46.9386,35.4915\N,0,41.8346,48.0887,33.7223\H,0,41.3
 154,47.4363,33.1178\C,0,42.2258,49.3399,33.3693\C,0,42.1024,50.0043,32
 .1544\H,0,41.6205,49.5227,31.3166\C,0,42.6076,51.282,32.0679\H,0,42.53
 34,51.8277,31.1374\C,0,43.2173,51.8953,33.1678\H,0,43.5964,52.9031,33.
 0596\C,0,43.341,51.2471,34.3754\H,0,43.8136,51.7368,35.2153\C,0,42.849
 9,49.9464,34.4926\H,0,42.5004,51.091,37.2905\C,0,42.6109,41.7355,31.07
 67\O,0,42.1692,40.7236,31.6527\C,0,42.9182,42.9451,31.7562\C,0,43.26,4
 4.0947,31.1154\C,0,43.4826,44.1162,29.6379\C,0,43.8286,42.7132,29.1352
 \C,0,42.7664,41.7246,29.5825\C,0,43.2632,45.3754,31.849\C,0,44.2287,46
 .4348,31.3246\C,0,44.1472,46.5317,29.8038\C,0,44.5287,45.162,29.2126\C
 ,0,45.0868,47.5932,29.2409\C,0,45.0248,47.6456,27.7097\C,0,45.5325,46.
 3171,27.1653\C,0,44.6654,45.1728,27.6837\C,0,44.8961,49.0579,29.6518\C
 ,0,45.5241,49.8695,28.4968\C,0,45.9526,48.8398,27.4324\C,0,43.6316,47.
 9632,27.1655\O,0,45.8664,49.3602,26.1238\H,0,42.7801,42.9488,32.8284\H
 ,0,42.5198,44.4152,29.1937\H,0,44.8028,42.4145,29.5332\H,0,43.8819,42.
 6993,28.0474\H,0,41.7991,42.0148,29.159\H,0,42.9855,40.7116,29.238\H,0
 ,43.4142,45.2086,32.9163\H,0,42.2311,45.7601,31.7376\H,0,45.2501,46.18
 29,31.6238\H,0,43.9816,47.3966,31.7752\H,0,43.1165,46.7698,29.5333\H,0
 ,45.5013,44.8749,29.6356\H,0,46.1107,47.3043,29.5135\H,0,46.5664,46.17
 ,27.4934\H,0,45.5223,46.313,26.0745\H,0,43.6753,45.2289,27.2318\H,0,45
 .1226,44.2371,27.3594\H,0,45.38,49.2756,30.6024\H,0,43.8384,49.2891,29
 .7655\H,0,46.3698,50.4689,28.8343\H,0,44.8058,50.5556,28.0489\H,0,46.9
 956,48.5273,27.6132\H,0,42.9253,47.177,27.3994\H,0,43.2527,48.8949,27.
 5726\H,0,43.675,48.0581,26.0844\H,0,45.7312,48.604,25.5277\O,0,40.583,
 44.8783,28.6759\H,0,39.9444,44.1675,28.6045\H,0,40.1369,45.5393,29.298
 6\O,0,46.5627,49.676,23.2595\H,0,46.2683,48.759,23.3648\H,0,46.8158,49
 .9549,24.1452\O,0,41.2016,45.8413,26.2034\H,0,41.0297,45.448,27.0861\H
 ,0,40.6793,46.6458,26.1945\O,0,43.9001,50.2685,24.1331\H,0,44.2389,50.
 1848,25.0324\H,0,44.689,50.2285,23.5729\\Version=ES64L-G16RevC.01\Stat
 e=1-A\HF=-4706.1612662\RMSD=3.445e-09\Dipole=4.3099014,-1.5780416,-0.7
 332565\Quadrupole=3.4190086,-25.6004216,22.181413,0.2377808,13.8133785
 ,27.2086915\PG=C01 [X(C84H159N2O12S1)]\\@
 The archive entry for this job was punched.


 TO ERR IS HUMAN - AND TO BLAME IT ON A COMPUTER IS EVEN MORE SO.
 Job cpu time:       0 days  3 hours 21 minutes  8.3 seconds.
 Elapsed time:       0 days  0 hours  6 minutes 36.9 seconds.
 File lengths (MBytes):  RWF=   1756 Int=      0 D2E=      0 Chk=    189 Scr=      1
 Normal termination of Gaussian 16 at Thu Jul 11 11:58:00 2024.
