 Entering Gaussian System, Link 0=g16
 Initial command:
 /cm/shared/apps/spack/cpu/opt/spack/linux-centos8-zen/gcc-8.3.1/gaussian-16.C.01-po5bqktfeugvmjyga3v7eigbecnokxng/g16/l1.exe "/scratch/hklem/job_32090253/Gau-1009184.inp" -scrdir="/scratch/hklem/job_32090253/"
 Entering Link 1 = /cm/shared/apps/spack/cpu/opt/spack/linux-centos8-zen/gcc-8.3.1/gaussian-16.C.01-po5bqktfeugvmjyga3v7eigbecnokxng/g16/l1.exe PID=   1009185.
  
 Copyright (c) 1988-2019, Gaussian, Inc.  All Rights Reserved.
  
 This is part of the Gaussian(R) 16 program.  It is based on
 the Gaussian(R) 09 system (copyright 2009, Gaussian, Inc.),
 the Gaussian(R) 03 system (copyright 2003, Gaussian, Inc.),
 the Gaussian(R) 98 system (copyright 1998, Gaussian, Inc.),
 the Gaussian(R) 94 system (copyright 1995, Gaussian, Inc.),
 the Gaussian 92(TM) system (copyright 1992, Gaussian, Inc.),
 the Gaussian 90(TM) system (copyright 1990, Gaussian, Inc.),
 the Gaussian 88(TM) system (copyright 1988, Gaussian, Inc.),
 the Gaussian 86(TM) system (copyright 1986, Carnegie Mellon
 University), and the Gaussian 82(TM) system (copyright 1983,
 Carnegie Mellon University). Gaussian is a federally registered
 trademark of Gaussian, Inc.
  
 This software contains proprietary and confidential information,
 including trade secrets, belonging to Gaussian, Inc.
  
 This software is provided under written license and may be
 used, copied, transmitted, or stored only in accord with that
 written license.
  
 The following legend is applicable only to US Government
 contracts under FAR:
  
                    RESTRICTED RIGHTS LEGEND
  
 Use, reproduction and disclosure by the US Government is
 subject to restrictions as set forth in subparagraphs (a)
 and (c) of the Commercial Computer Software - Restricted
 Rights clause in FAR 52.227-19.
  
 Gaussian, Inc.
 340 Quinnipiac St., Bldg. 40, Wallingford CT 06492
  
  
 ---------------------------------------------------------------
 Warning -- This program may not be used in any manner that
 competes with the business of Gaussian, Inc. or will provide
 assistance to any competitor of Gaussian, Inc.  The licensee
 of this program is prohibited from giving any competitor of
 Gaussian, Inc. access to this program.  By using this program,
 the user acknowledges that Gaussian, Inc. is engaged in the
 business of creating and licensing software in the field of
 computational chemistry and represents and warrants to the
 licensee that it is not a competitor of Gaussian, Inc. and that
 it will not use this program in any manner prohibited above.
 ---------------------------------------------------------------
  

 Cite this work as:
 Gaussian 16, Revision C.01,
 M. J. Frisch, G. W. Trucks, H. B. Schlegel, G. E. Scuseria, 
 M. A. Robb, J. R. Cheeseman, G. Scalmani, V. Barone, 
 G. A. Petersson, H. Nakatsuji, X. Li, M. Caricato, A. V. Marenich, 
 J. Bloino, B. G. Janesko, R. Gomperts, B. Mennucci, H. P. Hratchian, 
 J. V. Ortiz, A. F. Izmaylov, J. L. Sonnenberg, D. Williams-Young, 
 F. Ding, F. Lipparini, F. Egidi, J. Goings, B. Peng, A. Petrone, 
 T. Henderson, D. Ranasinghe, V. G. Zakrzewski, J. Gao, N. Rega, 
 G. Zheng, W. Liang, M. Hada, M. Ehara, K. Toyota, R. Fukuda, 
 J. Hasegawa, M. Ishida, T. Nakajima, Y. Honda, O. Kitao, H. Nakai, 
 T. Vreven, K. Throssell, J. A. Montgomery, Jr., J. E. Peralta, 
 F. Ogliaro, M. J. Bearpark, J. J. Heyd, E. N. Brothers, K. N. Kudin, 
 V. N. Staroverov, T. A. Keith, R. Kobayashi, J. Normand, 
 K. Raghavachari, A. P. Rendell, J. C. Burant, S. S. Iyengar, 
 J. Tomasi, M. Cossi, J. M. Millam, M. Klene, C. Adamo, R. Cammi, 
 J. W. Ochterski, R. L. Martin, K. Morokuma, O. Farkas, 
 J. B. Foresman, and D. J. Fox, Gaussian, Inc., Wallingford CT, 2019.
 
 ******************************************
 Gaussian 16:  ES64L-G16RevC.01  3-Jul-2019
                11-Jul-2024 
 ******************************************
 %nprocshared=32
 Will use up to   32 processors via shared memory.
 %mem=64GB
 --------------------------
 # wb97xd/6-31G(d) prop=efg
 --------------------------
 1/38=1,172=1/1;
 2/12=2,17=6,18=5,40=1/2;
 3/5=1,6=6,7=1,11=2,25=1,30=1,74=-58/1,2,3;
 4//1;
 5/5=2,38=5/2;
 6/7=2,8=2,9=2,10=2,14=1,28=1/1,2;
 99/5=1,9=1/99;
 ---------------------------------------
 19nt_mm_min_distance_cutoff4_xtb_conf_1
 ---------------------------------------
 Symbolic Z-matrix:
 Charge = -1 Multiplicity = 1
 H                     47.0528   33.7868   30.8348 
 C                     46.354    34.588    30.601 
 H                     45.7792   34.3044   29.7223 
 C                     45.4203   34.8554   31.782 
 H                     44.8743   33.94     32.0234 
 H                     46.012    35.1392   32.6549 
 C                     44.4511   35.9519   31.4404 
 C                     43.3305   35.6789   30.6658 
 H                     43.1381   34.6634   30.3487 
 C                     42.4565   36.6794   30.2949 
 H                     41.5911   36.4588   29.6898 
 C                     42.6894   37.9911   30.7002 
 O                     41.8208   38.9587   30.3054 
 H                     42.0412   39.8023   30.775 
 C                     43.8053   38.2739   31.4793 
 H                     43.9873   39.2881   31.8027 
 C                     44.675    37.2616   31.8385 
 H                     45.5423   37.4984   32.4394 
 H                     46.9207   35.4848   30.3604 
 H                     48.6363   38.3506   26.4094 
 C                     48.063    39.251    26.62 
 H                     47.3467   39.3993   25.8153 
 C                     47.3311   39.1225   27.9567 
 H                     48.0751   38.9408   28.7415 
 C                     46.5849   40.4113   28.2921 
 H                     47.2668   41.2589   28.3134 
 H                     45.8129   40.6054   27.5501 
 H                     46.108    40.3294   29.266 
 C                     46.3569   37.9467   27.9286 
 H                     45.8556   37.8377   28.8883 
 H                     46.8779   37.0175   27.7066 
 H                     45.5963   38.1044   27.1666 
 H                     48.7446   40.0985   26.637 
 H                     36.4389   46.7581   33.2776 
 C                     37.163    46.712    32.465 
 H                     37.3834   47.7266   32.1355 
 C                     38.4417   46.0148   32.9238 
 H                     38.207    45.0028   33.2593 
 H                     38.8891   46.5743   33.7482 
 C                     39.4508   45.936    31.7625 
 O                     40.299    46.8554   31.6697 
 O                     39.3648   44.9733   30.9756 
 H                     36.7195   46.1676   31.633 
 H                     40.6286   41.9079   22.6663 
 C                     40.763    42.802    23.272 
 H                     39.8867   42.9141   23.9065 
 C                     42.0241   42.6841   24.1265 
 H                     42.8855   42.5639   23.4662 
 H                     42.1556   43.5966   24.7107 
 C                     41.9254   41.5021   25.0501 
 C                     42.2253   40.222    24.6008 
 H                     42.5569   40.0774   23.5813 
 C                     42.1159   39.1267   25.4337 
 H                     42.362    38.1346   25.0873 
 C                     41.6835   39.2914   26.7471 
 O                     41.5942   38.2022   27.5465 
 H                     41.4557   38.4835   28.4693 
 C                     41.3513   40.5651   27.1947 
 H                     40.987    40.687    28.2047 
 C                     41.4809   41.6556   26.3557 
 H                     41.2363   42.642    26.7214 
 H                     40.8209   43.6645   22.6095 
 H                     42.4076   46.7738   22.725 
 C                     43.019    47.115    23.555 
 H                     42.6163   46.7139   24.4863 
 H                     43.0044   48.1986   23.6105 
 C                     44.4631   46.6456   23.4182 
 O                     45.3911   47.2831   23.8967 
 N                     44.6711   45.4957   22.7421 
 H                     43.8728   44.9869   22.395 
 C                     45.983    44.912    22.455 
 H                     46.7048   45.4496   23.0704 
 C                     46.0132   43.4131   22.7306 
 H                     45.2698   42.9277   22.0906 
 H                     46.9949   43.0366   22.4343 
 C                     45.7441   43.02     24.1882 
 H                     44.7919   43.4575   24.5021 
 C                     45.6439   41.4996   24.2896 
 H                     45.3549   41.2041   25.2945 
 H                     44.9014   41.1053   23.6002 
 H                     46.6043   41.0446   24.0543 
 C                     46.8336   43.5297   25.1248 
 H                     47.8127   43.1874   24.7961 
 H                     46.8349   44.6144   25.1644 
 H                     46.6632   43.1535   26.1305 
 H                     46.2238   45.0941   21.4007 
 H                     51.3647   46.4647   23.6889 
 C                     51.26     46.169    24.731 
 H                     51.6448   46.9717   25.3569 
 C                     49.798    45.889    25.0723 
 H                     49.4492   45.071    24.4309 
 C                     49.6761   45.4591   26.5318 
 H                     50.268    44.5652   26.7204 
 H                     50.0328   46.2537   27.1843 
 H                     48.6414   45.2442   26.7836 
 C                     48.9323   47.1194   24.8121 
 H                     49.1399   47.8811   25.5589 
 H                     49.1299   47.5345   23.8262 
 H                     47.8747   46.8763   24.8706 
 H                     51.8694   45.2832   24.8996 
 H                     49.4858   42.1376   37.7577 
 C                     50.213    42.685    37.162 
 H                     51.1751   42.6533   37.6695 
 C                     50.3201   42.0749   35.7627 
 H                     51.0626   42.6299   35.1847 
 H                     50.6616   41.0403   35.8491 
 C                     48.9928   42.1124   35.0558 
 C                     48.6731   43.1515   34.1925 
 H                     49.4016   43.9309   34.011 
 C                     47.4404   43.1974   33.5648 
 H                     47.205    44.0107   32.8952 
 C                     46.5063   42.2034   33.7963 
 H                     45.5374   42.2436   33.3246 
 C                     46.8135   41.1651   34.6577 
 H                     46.0841   40.3907   34.8447 
 C                     48.0469   41.1204   35.282 
 H                     48.2835   40.3049   35.9524 
 H                     49.887    43.7209   37.0969 
 H                     51.0127   45.6615   32.1187 
 C                     50.84     46.417    31.354 
 H                     51.5162   46.2292   30.5233 
 C                     49.3892   46.3736   30.8822 
 H                     49.27     47.0995   30.0702 
 C                     49.0458   44.9883   30.3412 
 H                     49.1376   44.2374   31.1238 
 H                     49.7138   44.7222   29.5257 
 H                     48.0258   44.9682   29.9635 
 C                     48.4515   46.7537   32.0244 
 H                     48.5811   46.0765   32.8662 
 H                     47.4138   46.7023   31.7019 
 H                     48.6517   47.7661   32.3686 
 H                     51.0825   47.3902   31.7763 
 H                     52.8019   49.9487   26.9012 
 C                     52.401    50.618    26.143 
 H                     52.9473   50.458    25.2166 
 C                     50.9166   50.3492   25.9383 
 H                     50.7831   49.3312   25.5719 
 H                     50.5098   51.0278   25.1857 
 C                     50.1216   50.5286   27.2211 
 H                     50.3433   51.4933   27.6797 
 H                     49.0519   50.4498   27.0297 
 S                     50.55     49.2438   28.4582 
 C                     49.9836   50.1      29.9534 
 H                     50.5202   51.0396   30.0593 
 H                     48.9133   50.2759   29.8901 
 H                     50.204    49.4514   30.7939 
 H                     52.5656   51.6445   26.4665 
 H                     50.3425   51.3598   33.4882 
 C                     49.755    50.767    34.187 
 H                     49.7958   51.253    35.1583 
 C                     48.3185   50.6358   33.6949 
 H                     48.3322   50.2169   32.6855 
 H                     47.8614   51.6257   33.6303 
 C                     47.4482   49.7408   34.5846 
 H                     47.9931   48.8081   34.7749 
 C                     47.1454   50.4065   35.924 
 H                     48.058    50.6468   36.4644 
 H                     46.5822   51.3241   35.7671 
 H                     46.5518   49.7411   36.5466 
 C                     46.1454   49.404    33.8645 
 H                     46.3439   48.8567   32.9466 
 H                     45.6018   50.3124   33.6146 
 H                     45.5027   48.7923   34.4911 
 H                     50.2178   49.7857   34.2757 
 H                     47.0061   47.0655   36.7805 
 C                     46.253    46.438    37.253 
 H                     45.3729   47.0463   37.449 
 C                     45.8912   45.2613   36.3479 
 H                     46.7931   44.6641   36.1673 
 C                     44.8508   44.3641   37.0118 
 H                     44.5919   43.5414   36.3492 
 H                     45.2336   43.9547   37.9456 
 H                     43.9473   44.9313   37.2304 
 C                     45.3684   45.76     35.0047 
 H                     45.0829   44.9149   34.384 
 H                     46.1316   46.3327   34.4827 
 H                     44.4989   46.3995   35.1483 
 H                     46.647    46.0858   38.2048 
 H                     43.0176   42.0314   37.5542 
 C                     42.317    41.201    37.522 
 H                     41.3252   41.5981   37.3166 
 C                     42.7276   40.2132   36.4347 
 H                     43.7022   39.7839   36.6803 
 H                     42.0005   39.4064   36.339 
 C                     42.865    40.9066   35.0926 
 O                     43.56     41.8725   34.8993 
 O                     42.1408   40.3244   34.1549 
 H                     42.2754   40.7507   33.254 
 H                     42.3019   40.7115   38.4931 
 H                     35.9059   38.2306   34.5609 
 C                     36.5      39.053    34.953 
 H                     36.6074   38.9236   36.0281 
 C                     37.8687   39.097    34.2813 
 H                     38.4187   38.1787   34.5066 
 H                     37.743    39.1478   33.1978 
 C                     38.704    40.2833   34.7461 
 H                     38.6575   40.38     35.8312 
 H                     39.7445   40.174    34.4414 
 S                     38.1257   41.8892   34.0885 
 C                     38.9886   41.9186   32.4949 
 H                     38.5613   41.1722   31.8306 
 H                     40.0438   41.7222   32.6591 
 H                     38.8648   42.911    32.0678 
 H                     35.9709   39.986    34.7709 
 H                     38.9889   44.2574   35.7167 
 C                     39.964    44.652    35.992 
 H                     40.218    44.2795   36.9839 
 C                     41.0085   44.2218   34.9744 
 H                     42.0021   44.5594   35.2641 
 H                     40.773    44.6247   33.9922 
 H                     41.0307   43.1377   34.9012 
 H                     39.8909   45.7363   36.0455 
 H                     41.4631   49.8738   37.8836 
 C                     42.518    50.112    37.763 
 H                     42.9932   50.0934   38.7424 
 C                     43.1851   49.1043   36.8238 
 H                     44.2497   49.3474   36.7533 
 H                     43.0921   48.1022   37.251 
 C                     42.5927   49.1002   35.4501 
 C                     41.8586   48.1009   34.8695 
 H                     41.569    47.156    35.2883 
 N                     41.5012   48.432    33.5975 
 H                     40.9768   47.8447   32.9344 
 C                     42.0129   49.6581   33.3168 
 C                     41.9458   50.4102   32.1495 
 H                     41.4164   50.0324   31.2878 
 C                     42.5735   51.6357   32.1371 
 H                     42.545    52.2458   31.245 
 C                     43.2533   52.1131   33.2628 
 H                     43.7316   53.0824   33.2119 
 C                     43.3258   51.3757   34.4229 
 H                     43.8593   51.7547   35.2837 
 C                     42.7062   50.1261   34.4654 
 H                     42.5941   51.1173   37.3564 
 C                     42.8379   42.2487   31.1247 
 O                     42.4802   41.1942   31.6838 
 C                     43.0316   43.4741   31.8183 
 C                     43.3183   44.6408   31.1837 
 C                     43.6536   44.6848   29.727 
 C                     44.0508   43.2978   29.2217 
 C                     42.9977   42.2843   29.6342 
 C                     43.1669   45.927    31.8957 
 C                     44.15     47.0164   31.4809 
 C                     44.2581   47.1119   29.9617 
 C                     44.7213   45.7516   29.4146 
 C                     45.2593   48.1797   29.5435 
 C                     45.4588   48.2615   28.0225 
 C                     45.9941   46.9211   27.5343 
 C                     45.0288   45.7961   27.912 
 C                     44.9952   49.6329   29.9427 
 C                     45.9092   50.439    29.0009 
 C                     46.4663   49.4276   27.9659 
 C                     44.199    48.6321   27.2343 
 O                     46.6939   49.9916   26.7013 
 H                     42.8399   43.4695   32.8825 
 H                     42.7246   44.9854   29.2161 
 H                     45.0219   43.016    29.6399 
 H                     44.1296   43.2942   28.1353 
 H                     42.0307   42.5913   29.2235 
 H                     43.2302   41.2885   29.2514 
 H                     43.1956   45.7779   32.9752 
 H                     42.146    46.2729   31.6534 
 H                     45.1336   46.7908   31.902 
 H                     43.8239   47.9695   31.8979 
 H                     43.2715   47.3494   29.5579 
 H                     45.6453   45.4764   29.9409 
 H                     46.2309   47.8943   29.9688 
 H                     46.9706   46.7331   27.9888 
 H                     46.1235   46.9408   26.451 
 H                     44.0988   45.9038   27.3537 
 H                     45.4849   44.8526   27.6109 
 H                     45.2232   49.8231   30.9895 
 H                     43.9468   49.8831   29.7864 
 H                     46.7168   50.9276   29.5475 
 H                     45.3557   51.2208   28.4783 
 H                     47.4465   49.0583   28.2879 
 H                     43.8879   49.6557   27.4235 
 H                     44.3966   48.517    26.17 
 H                     43.3716   47.9777   27.484 
 H                     45.8313   50.2024   26.3122 
 O                     40.8375   45.8358   28.973 
 H                     40.9308   46.6991   29.3891 
 H                     40.2712   45.3554   29.6446 
 O                     45.5374   49.9609   23.2278 
 H                     45.5233   49.0271   23.499 
 H                     45.0961   50.4554   23.9405 
 O                     41.505    45.6052   26.3116 
 H                     41.3418   45.695    27.271 
 H                     40.6428   45.4064   25.9417 
 O                     47.0443   52.642    25.5975 
 H                     47.2259   52.246    26.4554 
 H                     47.4789   52.0274   24.9553 
 O                     47.9805   50.6068   24.1547 
 H                     47.181    50.3999   23.6215 
 H                     47.9325   49.9941   24.8977 
 O                     44.6232   51.5729   25.3027 
 H                     43.9593   52.2061   25.0297 
 H                     45.4733   52.0763   25.3803 
 
 Stoichiometry    C96H183N2O15S2(1-)
 Framework group  C1[X(C96H183N2O15S2)]
 Deg. of freedom   888
 Full point group                 C1      NOp   1
 Largest Abelian subgroup         C1      NOp   1
 Largest concise Abelian subgroup C1      NOp   1
                         Standard orientation:                         
 ---------------------------------------------------------------------
 Center     Atomic      Atomic             Coordinates (Angstroms)
 Number     Number       Type             X           Y           Z
 ---------------------------------------------------------------------
      1          1           0       -7.302766   -5.832658    6.396127
      2          6           0       -6.923537   -5.559636    5.412994
      3          1           0       -6.977911   -6.430539    4.763757
      4          6           0       -7.732636   -4.405220    4.820759
      5          1           0       -8.782231   -4.701115    4.749039
      6          1           0       -7.667409   -3.539484    5.483217
      7          6           0       -7.209194   -4.049144    3.457832
      8          6           0       -7.561253   -4.812650    2.351762
      9          1           0       -8.249843   -5.637311    2.472547
     10          6           0       -7.050205   -4.537124    1.100619
     11          1           0       -7.325987   -5.137933    0.248152
     12          6           0       -6.165999   -3.475051    0.929595
     13          8           0       -5.665238   -3.237862   -0.311196
     14          1           0       -5.164461   -2.383546   -0.299934
     15          6           0       -5.811057   -2.702211    2.029113
     16          1           0       -5.131335   -1.872764    1.901402
     17          6           0       -6.327200   -2.993907    3.277577
     18          1           0       -6.036508   -2.387586    4.124476
     19          1           0       -5.878417   -5.274040    5.510189
     20          1           0       -1.046350   -6.996962    4.839987
     21          6           0       -0.749625   -6.303591    4.055808
     22          1           0       -0.586185   -6.868014    3.140748
     23          6           0       -1.832627   -5.246791    3.833912
     24          1           0       -1.998227   -4.718290    4.780340
     25          6           0       -1.389509   -4.228243    2.786764
     26          1           0       -0.453425   -3.756193    3.077940
     27          1           0       -1.248495   -4.713557    1.823017
     28          1           0       -2.143535   -3.453294    2.670491
     29          6           0       -3.145087   -5.899639    3.405430
     30          1           0       -3.923729   -5.150919    3.273743
     31          1           0       -3.482086   -6.617091    4.150972
     32          1           0       -3.016029   -6.422180    2.459744
     33          1           0        0.188321   -5.835153    4.345545
     34          1           0       -3.843883    3.731508   -7.147862
     35          6           0       -3.146909    3.011934   -6.719838
     36          1           0       -2.133601    3.299237   -6.997729
     37          6           0       -3.286615    2.967413   -5.199918
     38          1           0       -4.307584    2.686933   -4.933943
     39          1           0       -3.061351    3.950916   -4.781804
     40          6           0       -2.312150    1.932558   -4.606112
     41          8           0       -1.190034    2.345487   -4.227039
     42          8           0       -2.684993    0.744930   -4.543456
     43          1           0       -3.355500    2.030454   -7.142300
     44          1           0       -0.350073   -7.891071   -4.620679
     45          6           0        0.082136   -6.893326   -4.665951
     46          1           0       -0.551142   -6.280320   -5.303322
     47          6           0        0.171935   -6.285782   -3.266926
     48          1           0        0.804708   -6.924287   -2.646956
     49          1           0        0.626793   -5.295506   -3.327706
     50          6           0       -1.195316   -6.177404   -2.651472
     51          6           0       -1.785703   -7.273119   -2.033962
     52          1           0       -1.245280   -8.208325   -1.974124
     53          6           0       -3.049969   -7.191221   -1.485968
     54          1           0       -3.502013   -8.039295   -0.994797
     55          6           0       -3.764599   -5.998325   -1.559577
     56          8           0       -4.998769   -5.941354   -1.005547
     57          1           0       -5.300984   -5.015345   -0.973200
     58          6           0       -3.193233   -4.906696   -2.203706
     59          1           0       -3.761165   -3.991134   -2.286613
     60          6           0       -1.920128   -4.996893   -2.733776
     61          1           0       -1.480924   -4.136043   -3.216051
     62          1           0        1.067679   -6.962526   -5.124296
     63          1           0        4.055720   -5.174471   -4.853784
     64          6           0        4.193372   -4.312794   -4.207494
     65          1           0        3.258322   -3.753484   -4.150738
     66          1           0        4.961914   -3.661233   -4.610352
     67          6           0        4.587313   -4.728491   -2.794524
     68          8           0        5.262141   -4.001562   -2.078470
     69          7           0        4.159870   -5.936973   -2.370841
     70          1           0        3.577511   -6.486695   -2.983461
     71          6           0        4.479961   -6.537436   -1.074230
     72          1           0        4.918282   -5.747065   -0.464382
     73          6           0        3.251362   -7.146851   -0.408853
     74          1           0        2.853464   -7.927865   -1.064254
     75          1           0        3.574860   -7.630051    0.515889
     76          6           0        2.130527   -6.150448   -0.088776
     77          1           0        1.857483   -5.619411   -1.005330
     78          6           0        0.909161   -6.912670    0.420363
     79          1           0        0.069912   -6.236528    0.558779
     80          1           0        0.602982   -7.683790   -0.282260
     81          1           0        1.135124   -7.388543    1.372857
     82          6           0        2.565025   -5.119582    0.946864
     83          1           0        2.928273   -5.610472    1.847379
     84          1           0        3.349497   -4.481032    0.553161
     85          1           0        1.721115   -4.491142    1.220490
     86          1           0        5.236579   -7.316522   -1.226701
     87          1           0        7.550321   -4.796929    3.446789
     88          6           0        6.779149   -4.095181    3.758583
     89          1           0        7.251044   -3.138691    3.974433
     90          6           0        5.723298   -3.927948    2.667922
     91          1           0        5.264399   -4.906833    2.485236
     92          6           0        4.643143   -2.954612    3.132355
     93          1           0        4.167126   -3.313905    4.043008
     94          1           0        5.083054   -1.979812    3.333906
     95          1           0        3.878546   -2.837103    2.369615
     96          6           0        6.354955   -3.432485    1.369249
     97          1           0        6.655236   -2.393732    1.477959
     98          1           0        7.230820   -4.023543    1.110671
     99          1           0        5.652130   -3.490347    0.542371
    100          1           0        6.326972   -4.467018    4.676030
    101          1           0       -3.326504    4.502819    7.370379
    102          6           0       -2.293476    4.294426    7.640103
    103          1           0       -2.112107    4.670732    8.644939
    104          6           0       -2.019216    2.790619    7.568833
    105          1           0       -0.981955    2.600721    7.854216
    106          1           0       -2.667136    2.274981    8.282136
    107          6           0       -2.270780    2.262387    6.183003
    108          6           0       -1.234113    2.135829    5.268384
    109          1           0       -0.228777    2.400362    5.569118
    110          6           0       -1.473468    1.675320    3.985300
    111          1           0       -0.658085    1.580910    3.284250
    112          6           0       -2.757971    1.338111    3.597338
    113          1           0       -2.953519    0.996421    2.593399
    114          6           0       -3.798974    1.463888    4.500079
    115          1           0       -4.803686    1.206732    4.198228
    116          6           0       -3.556761    1.922229    5.782374
    117          1           0       -4.373598    2.016040    6.485533
    118          1           0       -1.647632    4.828019    6.946008
    119          1           0        2.719751    1.753192    5.811544
    120          6           0        3.567599    1.545916    5.160728
    121          1           0        4.146016    0.733534    5.594373
    122          6           0        3.084842    1.170852    3.762310
    123          1           0        3.958643    0.906343    3.156512
    124          6           0        2.160013   -0.041756    3.825026
    125          1           0        1.269091    0.185178    4.407691
    126          1           0        2.669289   -0.885035    4.285017
    127          1           0        1.850529   -0.337768    2.824997
    128          6           0        2.376042    2.356149    3.113425
    129          1           0        1.528765    2.672271    3.718578
    130          1           0        2.008449    2.088914    2.125027
    131          1           0        3.052897    3.201329    3.008326
    132          1           0        4.197497    2.432779    5.129677
    133          1           0        9.250165   -0.228004    4.317492
    134          6           0        9.924339   -0.471687    3.499166
    135          1           0       10.508805   -1.344275    3.780679
    136          6           0        9.130006   -0.750248    2.230687
    137          1           0        8.490921   -1.618815    2.390554
    138          1           0        9.805601   -0.983930    1.405245
    139          6           0        8.271460    0.435567    1.822610
    140          1           0        8.867806    1.348357    1.786592
    141          1           0        7.805301    0.262611    0.853134
    142         16           0        6.923206    0.731798    3.030546
    143          6           0        6.570013    2.465315    2.630943
    144          1           0        7.465390    3.062922    2.783151
    145          1           0        6.230255    2.540818    1.601694
    146          1           0        5.787000    2.793808    3.305244
    147          1           0       10.604980    0.365196    3.351506
    148          1           0        5.963265    6.089474    3.472398
    149          6           0        4.912167    6.354106    3.372136
    150          1           0        4.821917    7.429656    3.499933
    151          6           0        4.380905    5.912782    2.013497
    152          1           0        4.564717    4.841603    1.897999
    153          1           0        4.931143    6.424745    1.220939
    154          6           0        2.881636    6.174780    1.830292
    155          1           0        2.354094    5.796535    2.714424
    156          6           0        2.585943    7.665416    1.690979
    157          1           0        2.929631    8.222274    2.559542
    158          1           0        3.077617    8.063428    0.805742
    159          1           0        1.515050    7.826499    1.591033
    160          6           0        2.370816    5.425894    0.602490
    161          1           0        2.501809    4.353731    0.724097
    162          1           0        2.909762    5.741120   -0.288191
    163          1           0        1.314782    5.621647    0.440193
    164          1           0        4.359322    5.866769    4.173301
    165          1           0       -0.366166    6.513589    3.059784
    166          6           0       -1.411101    6.575827    2.762448
    167          1           0       -1.467043    7.102497    1.812443
    168          6           0       -2.014262    5.178360    2.628243
    169          1           0       -1.947345    4.670051    3.597692
    170          6           0       -3.485655    5.256654    2.231965
    171          1           0       -3.895751    4.255068    2.124489
    172          1           0       -4.060703    5.791566    2.986494
    173          1           0       -3.593881    5.779758    1.283038
    174          6           0       -1.240851    4.357788    1.601255
    175          1           0       -1.700207    3.379171    1.490468
    176          1           0       -0.207853    4.223626    1.914079
    177          1           0       -1.243431    4.858143    0.634172
    178          1           0       -1.947261    7.157296    3.510533
    179          1           0       -6.331816    4.454591    1.638357
    180          6           0       -7.258647    3.983629    1.321151
    181          1           0       -7.329311    4.062669    0.238421
    182          6           0       -7.272742    2.519127    1.747294
    183          1           0       -7.253375    2.455911    2.838207
    184          1           0       -8.163828    2.009435    1.379951
    185          6           0       -6.046974    1.789846    1.231003
    186          8           0       -4.913543    2.149680    1.429009
    187          8           0       -6.363773    0.707426    0.544920
    188          1           0       -5.550131    0.194845    0.250440
    189          1           0       -8.097093    4.515794    1.764640
    190          1           0      -11.025742    0.048047   -4.065294
    191          6           0      -10.328461    0.815884   -3.737781
    192          1           0      -10.893269    1.631967   -3.291553
    193          6           0       -9.331378    0.245524   -2.734301
    194          1           0       -9.862778   -0.095804   -1.841192
    195          1           0       -8.829258   -0.620909   -3.169643
    196          6           0       -8.287017    1.270152   -2.309423
    197          1           0       -8.761250    2.225070   -2.080973
    198          1           0       -7.734159    0.927573   -1.435113
    199         16           0       -7.051042    1.637853   -3.606706
    200          6           0       -5.856062    0.309081   -3.304364
    201          1           0       -6.287609   -0.646623   -3.589654
    202          1           0       -5.587274    0.306202   -2.252353
    203          1           0       -4.973022    0.512637   -3.905533
    204          1           0       -9.797268    1.200656   -4.605756
    205          1           0       -5.680577    4.286281   -3.271783
    206          6           0       -5.065398    4.707786   -2.480450
    207          1           0       -5.701426    5.315055   -1.837153
    208          6           0       -4.403917    3.594844   -1.683351
    209          1           0       -3.829237    3.995940   -0.850282
    210          1           0       -3.741417    3.012080   -2.318950
    211          1           0       -5.160726    2.928118   -1.278578
    212          1           0       -4.322731    5.359705   -2.935816
    213          1           0       -1.412275    9.150521   -2.577633
    214          6           0       -0.684348    9.154236   -1.768803
    215          1           0       -0.948903    9.942630   -1.066072
    216          6           0       -0.664746    7.794276   -1.066875
    217          1           0        0.047148    7.841995   -0.237193
    218          1           0       -1.656406    7.591413   -0.653583
    219          6           0       -0.281371    6.669561   -1.975745
    220          6           0       -1.084042    5.650546   -2.413839
    221          1           0       -2.121244    5.478126   -2.198013
    222          7           0       -0.391738    4.790808   -3.211908
    223          1           0       -0.751496    3.927649   -3.642196
    224          6           0        0.890803    5.228586   -3.297860
    225          6           0        1.979965    4.682693   -3.967542
    226          1           0        1.868877    3.772015   -4.536621
    227          6           0        3.186731    5.339350   -3.875195
    228          1           0        4.055910    4.941243   -4.380086
    229          6           0        3.314384    6.520343   -3.136142
    230          1           0        4.280213    7.006159   -3.090735
    231          6           0        2.242108    7.068327   -2.469220
    232          1           0        2.356436    7.978814   -1.897223
    233          6           0        1.006751    6.422940   -2.536910
    234          1           0        0.291828    9.376436   -2.192420
    235          6           0       -3.149727   -0.749562   -0.413248
    236          8           0       -4.367674   -0.864977   -0.177033
    237          6           0       -2.486982    0.504426   -0.505373
    238          6           0       -1.182715    0.621878   -0.867583
    239          6           0       -0.289788   -0.570575   -0.998251
    240          6           0       -0.886762   -1.775121   -0.270545
    241          6           0       -2.328771   -1.969851   -0.705344
    242          6           0       -0.645239    1.934668   -1.282165
    243          6           0        0.821331    2.171824   -0.938267
    244          6           0        1.676314    0.962629   -1.306544
    245          6           0        1.150160   -0.263496   -0.542301
    246          6           0        3.137001    1.184400   -0.939529
    247          6           0        4.025456   -0.036478   -1.222436
    248          6           0        3.519305   -1.204662   -0.385349
    249          6           0        2.052624   -1.492951   -0.710649
    250          6           0        3.896472    2.334252   -1.604318
    251          6           0        5.375529    1.978199   -1.363909
    252          6           0        5.387217    0.539805   -0.784768
    253          6           0        4.091314   -0.447968   -2.696220
    254          8           0        6.521945   -0.199994   -1.151100
    255          1           0       -3.094017    1.389481   -0.373173
    256          1           0       -0.254973   -0.800452   -2.075453
    257          1           0       -0.843200   -1.612771    0.810696
    258          1           0       -0.327875   -2.680023   -0.505673
    259          1           0       -2.355383   -2.112025   -1.790282
    260          1           0       -2.772334   -2.849791   -0.235058
    261          1           0       -1.263561    2.745585   -0.896852
    262          1           0       -0.749593    1.955332   -2.381836
    263          1           0        0.910943    2.367617    0.133799
    264          1           0        1.172992    3.058873   -1.465626
    265          1           0        1.585753    0.787909   -2.380840
    266          1           0        1.124372   -0.006528    0.525316
    267          1           0        3.174703    1.350613    0.145502
    268          1           0        3.617300   -0.959983    0.675781
    269          1           0        4.117608   -2.095388   -0.583621
    270          1           0        1.967063   -1.869824   -1.729886
    271          1           0        1.712890   -2.282164   -0.039378
    272          1           0        3.638328    3.302002   -1.179145
    273          1           0        3.666875    2.373536   -2.668232
    274          1           0        5.850930    2.681780   -0.679302
    275          1           0        5.947831    1.996912   -2.292781
    276          1           0        5.416721    0.573282    0.310160
    277          1           0        4.612201    0.289173   -3.300898
    278          1           0        4.612545   -1.400118   -2.778431
    279          1           0        3.099323   -0.583403   -3.111902
    280          1           0        6.462511   -0.380885   -2.101710
    281          8           0       -0.390561   -0.474633   -4.129445
    282          1           0        0.091197    0.349863   -4.252919
    283          1           0       -1.335400   -0.170371   -4.260713
    284          8           0        7.635960   -3.064763   -3.139995
    285          1           0        6.807105   -3.361013   -2.726515
    286          1           0        7.451436   -2.185463   -3.514160
    287          8           0        1.036278   -2.828452   -4.203265
    288          1           0        0.563069   -1.978357   -4.110749
    289          1           0        0.664536   -3.222179   -4.994797
    290          8           0        9.180976    0.355268   -2.144587
    291          1           0        8.558410    0.840330   -1.594211
    292          1           0        9.239409   -0.532467   -1.711524
    293          8           0        8.809008   -2.003504   -0.962208
    294          1           0        8.539461   -2.538884   -1.741325
    295          1           0        7.974138   -1.728336   -0.565938
    296          8           0        7.399642   -0.418887   -3.966437
    297          1           0        7.689757   -0.273155   -4.866898
    298          1           0        8.132389   -0.097055   -3.381964
 ---------------------------------------------------------------------
 Rotational constants (GHZ):           0.0116578           0.0094818           0.0077383
 Standard basis: 6-31G(d) (6D, 7F)
 There are  2099 symmetry adapted cartesian basis functions of A   symmetry.
 There are  2099 symmetry adapted basis functions of A   symmetry.
  2099 basis functions,  4000 primitive gaussians,  2099 cartesian basis functions
   463 alpha electrons      463 beta electrons
       nuclear repulsion energy     30532.8017350611 Hartrees.
 NAtoms=  298 NActive=  298 NUniq=  298 SFac= 1.00D+00 NAtFMM=   60 NAOKFM=T Big=T
 Integral buffers will be    131072 words long.
 Raffenetti 2 integral format.
 Two-electron integral symmetry is turned on.
 Nuclear repulsion after empirical dispersion term =    30532.4507952056 Hartrees.
 One-electron integrals computed using PRISM.
 NBasis=  2099 RedAO= T EigKep=  3.41D-04  NBF=  2099
 NBsUse=  2099 1.00D-06 EigRej= -1.00D+00 NBFU=  2099
 ExpMin= 1.17D-01 ExpMax= 2.19D+04 ExpMxC= 3.30D+03 IAcc=3 IRadAn=         5 AccDes= 0.00D+00
 Harris functional with IExCor= 4639 and IRadAn=       5 diagonalized for initial guess.
 HarFok:  IExCor= 4639 AccDes= 0.00D+00 IRadAn=         5 IDoV= 1 UseB2=F ITyADJ=14
 ICtDFT=  3500011 ScaDFX=  1.000000  1.000000  1.000000  1.000000
 FoFCou: FMM=F IPFlag=           0 FMFlag=      100000 FMFlg1=        2001
         NFxFlg=           0 DoJE=T BraDBF=F KetDBF=T FulRan=T
         wScrn=  0.000000 ICntrl=       500 IOpCl=  0 I1Cent=   200000004 NGrid=           0
         NMat0=    1 NMatS0=      1 NMatT0=    0 NMatD0=    1 NMtDS0=    0 NMtDT0=    0
 Petite list used in FoFCou.
 Requested convergence on RMS density matrix=1.00D-08 within 128 cycles.
 Requested convergence on MAX density matrix=1.00D-06.
 Requested convergence on             energy=1.00D-06.
 No special actions if energy rises.
 Integral accuracy reduced to 1.0D-05 until final iterations.
 Initial convergence to 1.0D-05 achieved.  Increase integral accuracy.
 SCF Done:  E(RwB97XD) =  -5801.58676153     A.U. after   15 cycles
            NFock= 15  Conv=0.33D-08     -V/T= 2.0081
 Hyperfine terms turned off by default for NAtoms > 100.

 **********************************************************************

            Population analysis using the SCF Density.

 **********************************************************************

 Orbital symmetries:
       Occupied  (A) (A) (A) (A) (A) (A) (A) (A) (A) (A) (A) (A)
                 (A) (A) (A) (A) (A) (A) (A) (A) (A) (A) (A) (A)
                 (A) (A) (A) (A) (A) (A) (A) (A) (A) (A) (A) (A)
                 (A) (A) (A) (A) (A) (A) (A) (A) (A) (A) (A) (A)
                 (A) (A) (A) (A) (A) (A) (A) (A) (A) (A) (A) (A)
                 (A) (A) (A) (A) (A) (A) (A) (A) (A) (A) (A) (A)
                 (A) (A) (A) (A) (A) (A) (A) (A) (A) (A) (A) (A)
                 (A) (A) (A) (A) (A) (A) (A) (A) (A) (A) (A) (A)
                 (A) (A) (A) (A) (A) (A) (A) (A) (A) (A) (A) (A)
                 (A) (A) (A) (A) (A) (A) (A) (A) (A) (A) (A) (A)
                 (A) (A) (A) (A) (A) (A) (A) (A) (A) (A) (A) (A)
                 (A) (A) (A) (A) (A) (A) (A) (A) (A) (A) (A) (A)
                 (A) (A) (A) (A) (A) (A) (A) (A) (A) (A) (A) (A)
                 (A) (A) (A) (A) (A) (A) (A) (A) (A) (A) (A) (A)
                 (A) (A) (A) (A) (A) (A) (A) (A) (A) (A) (A) (A)
                 (A) (A) (A) (A) (A) (A) (A) (A) (A) (A) (A) (A)
                 (A) (A) (A) (A) (A) (A) (A) (A) (A) (A) (A) (A)
                 (A) (A) (A) (A) (A) (A) (A) (A) (A) (A) (A) (A)
                 (A) (A) (A) (A) (A) (A) (A) (A) (A) (A) (A) (A)
                 (A) (A) (A) (A) (A) (A) (A) (A) (A) (A) (A) (A)
                 (A) (A) (A) (A) (A) (A) (A) (A) (A) (A) (A) (A)
                 (A) (A) (A) (A) (A) (A) (A) (A) (A) (A) (A) (A)
                 (A) (A) (A) (A) (A) (A) (A) (A) (A) (A) (A) (A)
                 (A) (A) (A) (A) (A) (A) (A) (A) (A) (A) (A) (A)
                 (A) (A) (A) (A) (A) (A) (A) (A) (A) (A) (A) (A)
                 (A) (A) (A) (A) (A) (A) (A) (A) (A) (A) (A) (A)
                 (A) (A) (A) (A) (A) (A) (A) (A) (A) (A) (A) (A)
                 (A) (A) (A) (A) (A) (A) (A) (A) (A) (A) (A) (A)
                 (A) (A) (A) (A) (A) (A) (A) (A) (A) (A) (A) (A)
                 (A) (A) (A) (A) (A) (A) (A) (A) (A) (A) (A) (A)
                 (A) (A) (A) (A) (A) (A) (A) (A) (A) (A) (A) (A)
                 (A) (A) (A) (A) (A) (A) (A) (A) (A) (A) (A) (A)
                 (A) (A) (A) (A) (A) (A) (A) (A) (A) (A) (A) (A)
                 (A) (A) (A) (A) (A) (A) (A) (A) (A) (A) (A) (A)
                 (A) (A) (A) (A) (A) (A) (A) (A) (A) (A) (A) (A)
                 (A) (A) (A) (A) (A) (A) (A) (A) (A) (A) (A) (A)
                 (A) (A) (A) (A) (A) (A) (A) (A) (A) (A) (A) (A)
                 (A) (A) (A) (A) (A) (A) (A) (A) (A) (A) (A) (A)
                 (A) (A) (A) (A) (A) (A) (A)
       Virtual   (A) (A) (A) (A) (A) (A) (A) (A) (A) (A) (A) (A)
                 (A) (A) (A) (A) (A) (A) (A) (A) (A) (A) (A) (A)
                 (A) (A) (A) (A) (A) (A) (A) (A) (A) (A) (A) (A)
                 (A) (A) (A) (A) (A) (A) (A) (A) (A) (A) (A) (A)
                 (A) (A) (A) (A) (A) (A) (A) (A) (A) (A) (A) (A)
                 (A) (A) (A) (A) (A) (A) (A) (A) (A) (A) (A) (A)
                 (A) (A) (A) (A) (A) (A) (A) (A) (A) (A) (A) (A)
                 (A) (A) (A) (A) (A) (A) (A) (A) (A) (A) (A) (A)
                 (A) (A) (A) (A) (A) (A) (A) (A) (A) (A) (A) (A)
                 (A) (A) (A) (A) (A) (A) (A) (A) (A) (A) (A) (A)
                 (A) (A) (A) (A) (A) (A) (A) (A) (A) (A) (A) (A)
                 (A) (A) (A) (A) (A) (A) (A) (A) (A) (A) (A) (A)
                 (A) (A) (A) (A) (A) (A) (A) (A) (A) (A) (A) (A)
                 (A) (A) (A) (A) (A) (A) (A) (A) (A) (A) (A) (A)
                 (A) (A) (A) (A) (A) (A) (A) (A) (A) (A) (A) (A)
                 (A) (A) (A) (A) (A) (A) (A) (A) (A) (A) (A) (A)
                 (A) (A) (A) (A) (A) (A) (A) (A) (A) (A) (A) (A)
                 (A) (A) (A) (A) (A) (A) (A) (A) (A) (A) (A) (A)
                 (A) (A) (A) (A) (A) (A) (A) (A) (A) (A) (A) (A)
                 (A) (A) (A) (A) (A) (A) (A) (A) (A) (A) (A) (A)
                 (A) (A) (A) (A) (A) (A) (A) (A) (A) (A) (A) (A)
                 (A) (A) (A) (A) (A) (A) (A) (A) (A) (A) (A) (A)
                 (A) (A) (A) (A) (A) (A) (A) (A) (A) (A) (A) (A)
                 (A) (A) (A) (A) (A) (A) (A) (A) (A) (A) (A) (A)
                 (A) (A) (A) (A) (A) (A) (A) (A) (A) (A) (A) (A)
                 (A) (A) (A) (A) (A) (A) (A) (A) (A) (A) (A) (A)
                 (A) (A) (A) (A) (A) (A) (A) (A) (A) (A) (A) (A)
                 (A) (A) (A) (A) (A) (A) (A) (A) (A) (A) (A) (A)
                 (A) (A) (A) (A) (A) (A) (A) (A) (A) (A) (A) (A)
                 (A) (A) (A) (A) (A) (A) (A) (A) (A) (A) (A) (A)
                 (A) (A) (A) (A) (A) (A) (A) (A) (A) (A) (A) (A)
                 (A) (A) (A) (A) (A) (A) (A) (A) (A) (A) (A) (A)
                 (A) (A) (A) (A) (A) (A) (A) (A) (A) (A) (A) (A)
                 (A) (A) (A) (A) (A) (A) (A) (A) (A) (A) (A) (A)
                 (A) (A) (A) (A) (A) (A) (A) (A) (A) (A) (A) (A)
                 (A) (A) (A) (A) (A) (A) (A) (A) (A) (A) (A) (A)
                 (A) (A) (A) (A) (A) (A) (A) (A) (A) (A) (A) (A)
                 (A) (A) (A) (A) (A) (A) (A) (A) (A) (A) (A) (A)
                 (A) (A) (A) (A) (A) (A) (A) (A) (A) (A) (A) (A)
                 (A) (A) (A) (A) (A) (A) (A) (A) (A) (A) (A) (A)
                 (A) (A) (A) (A) (A) (A) (A) (A) (A) (A) (A) (A)
                 (A) (A) (A) (A) (A) (A) (A) (A) (A) (A) (A) (A)
                 (A) (A) (A) (A) (A) (A) (A) (A) (A) (A) (A) (A)
                 (A) (A) (A) (A) (A) (A) (A) (A) (A) (A) (A) (A)
                 (A) (A) (A) (A) (A) (A) (A) (A) (A) (A) (A) (A)
                 (A) (A) (A) (A) (A) (A) (A) (A) (A) (A) (A) (A)
                 (A) (A) (A) (A) (A) (A) (A) (A) (A) (A) (A) (A)
                 (A) (A) (A) (A) (A) (A) (A) (A) (A) (A) (A) (A)
                 (A) (A) (A) (A) (A) (A) (A) (A) (A) (A) (A) (A)
                 (A) (A) (A) (A) (A) (A) (A) (A) (A) (A) (A) (A)
                 (A) (A) (A) (A) (A) (A) (A) (A) (A) (A) (A) (A)
                 (A) (A) (A) (A) (A) (A) (A) (A) (A) (A) (A) (A)
                 (A) (A) (A) (A) (A) (A) (A) (A) (A) (A) (A) (A)
                 (A) (A) (A) (A) (A) (A) (A) (A) (A) (A) (A) (A)
                 (A) (A) (A) (A) (A) (A) (A) (A) (A) (A) (A) (A)
                 (A) (A) (A) (A) (A) (A) (A) (A) (A) (A) (A) (A)
                 (A) (A) (A) (A) (A) (A) (A) (A) (A) (A) (A) (A)
                 (A) (A) (A) (A) (A) (A) (A) (A) (A) (A) (A) (A)
                 (A) (A) (A) (A) (A) (A) (A) (A) (A) (A) (A) (A)
                 (A) (A) (A) (A) (A) (A) (A) (A) (A) (A) (A) (A)
                 (A) (A) (A) (A) (A) (A) (A) (A) (A) (A) (A) (A)
                 (A) (A) (A) (A) (A) (A) (A) (A) (A) (A) (A) (A)
                 (A) (A) (A) (A) (A) (A) (A) (A) (A) (A) (A) (A)
                 (A) (A) (A) (A) (A) (A) (A) (A) (A) (A) (A) (A)
                 (A) (A) (A) (A) (A) (A) (A) (A) (A) (A) (A) (A)
                 (A) (A) (A) (A) (A) (A) (A) (A) (A) (A) (A) (A)
                 (A) (A) (A) (A) (A) (A) (A) (A) (A) (A) (A) (A)
                 (A) (A) (A) (A) (A) (A) (A) (A) (A) (A) (A) (A)
                 (A) (A) (A) (A) (A) (A) (A) (A) (A) (A) (A) (A)
                 (A) (A) (A) (A) (A) (A) (A) (A) (A) (A) (A) (A)
                 (A) (A) (A) (A) (A) (A) (A) (A) (A) (A) (A) (A)
                 (A) (A) (A) (A) (A) (A) (A) (A) (A) (A) (A) (A)
                 (A) (A) (A) (A) (A) (A) (A) (A) (A) (A) (A) (A)
                 (A) (A) (A) (A) (A) (A) (A) (A) (A) (A) (A) (A)
                 (A) (A) (A) (A) (A) (A) (A) (A) (A) (A) (A) (A)
                 (A) (A) (A) (A) (A) (A) (A) (A) (A) (A) (A) (A)
                 (A) (A) (A) (A) (A) (A) (A) (A) (A) (A) (A) (A)
                 (A) (A) (A) (A) (A) (A) (A) (A) (A) (A) (A) (A)
                 (A) (A) (A) (A) (A) (A) (A) (A) (A) (A) (A) (A)
                 (A) (A) (A) (A) (A) (A) (A) (A) (A) (A) (A) (A)
                 (A) (A) (A) (A) (A) (A) (A) (A) (A) (A) (A) (A)
                 (A) (A) (A) (A) (A) (A) (A) (A) (A) (A) (A) (A)
                 (A) (A) (A) (A) (A) (A) (A) (A) (A) (A) (A) (A)
                 (A) (A) (A) (A) (A) (A) (A) (A) (A) (A) (A) (A)
                 (A) (A) (A) (A) (A) (A) (A) (A) (A) (A) (A) (A)
                 (A) (A) (A) (A) (A) (A) (A) (A) (A) (A) (A) (A)
                 (A) (A) (A) (A) (A) (A) (A) (A) (A) (A) (A) (A)
                 (A) (A) (A) (A) (A) (A) (A) (A) (A) (A) (A) (A)
                 (A) (A) (A) (A) (A) (A) (A) (A) (A) (A) (A) (A)
                 (A) (A) (A) (A) (A) (A) (A) (A) (A) (A) (A) (A)
                 (A) (A) (A) (A) (A) (A) (A) (A) (A) (A) (A) (A)
                 (A) (A) (A) (A) (A) (A) (A) (A) (A) (A) (A) (A)
                 (A) (A) (A) (A) (A) (A) (A) (A) (A) (A) (A) (A)
                 (A) (A) (A) (A) (A) (A) (A) (A) (A) (A) (A) (A)
                 (A) (A) (A) (A) (A) (A) (A) (A) (A) (A) (A) (A)
                 (A) (A) (A) (A) (A) (A) (A) (A) (A) (A) (A) (A)
                 (A) (A) (A) (A) (A) (A) (A) (A) (A) (A) (A) (A)
                 (A) (A) (A) (A) (A) (A) (A) (A) (A) (A) (A) (A)
                 (A) (A) (A) (A) (A) (A) (A) (A) (A) (A) (A) (A)
                 (A) (A) (A) (A) (A) (A) (A) (A) (A) (A) (A) (A)
                 (A) (A) (A) (A) (A) (A) (A) (A) (A) (A) (A) (A)
                 (A) (A) (A) (A) (A) (A) (A) (A) (A) (A) (A) (A)
                 (A) (A) (A) (A) (A) (A) (A) (A) (A) (A) (A) (A)
                 (A) (A) (A) (A) (A) (A) (A) (A) (A) (A) (A) (A)
                 (A) (A) (A) (A) (A) (A) (A) (A) (A) (A) (A) (A)
                 (A) (A) (A) (A) (A) (A) (A) (A) (A) (A) (A) (A)
                 (A) (A) (A) (A) (A) (A) (A) (A) (A) (A) (A) (A)
                 (A) (A) (A) (A) (A) (A) (A) (A) (A) (A) (A) (A)
                 (A) (A) (A) (A) (A) (A) (A) (A) (A) (A) (A) (A)
                 (A) (A) (A) (A) (A) (A) (A) (A) (A) (A) (A) (A)
                 (A) (A) (A) (A) (A) (A) (A) (A) (A) (A) (A) (A)
                 (A) (A) (A) (A) (A) (A) (A) (A) (A) (A) (A) (A)
                 (A) (A) (A) (A) (A) (A) (A) (A) (A) (A) (A) (A)
                 (A) (A) (A) (A) (A) (A) (A) (A) (A) (A) (A) (A)
                 (A) (A) (A) (A) (A) (A) (A) (A) (A) (A) (A) (A)
                 (A) (A) (A) (A) (A) (A) (A) (A) (A) (A) (A) (A)
                 (A) (A) (A) (A) (A) (A) (A) (A) (A) (A) (A) (A)
                 (A) (A) (A) (A) (A) (A) (A) (A) (A) (A) (A) (A)
                 (A) (A) (A) (A) (A) (A) (A) (A) (A) (A) (A) (A)
                 (A) (A) (A) (A) (A) (A) (A) (A) (A) (A) (A) (A)
                 (A) (A) (A) (A) (A) (A) (A) (A) (A) (A) (A) (A)
                 (A) (A) (A) (A) (A) (A) (A) (A) (A) (A) (A) (A)
                 (A) (A) (A) (A) (A) (A) (A) (A) (A) (A) (A) (A)
                 (A) (A) (A) (A) (A) (A) (A) (A) (A) (A) (A) (A)
                 (A) (A) (A) (A) (A) (A) (A) (A) (A) (A) (A) (A)
                 (A) (A) (A) (A) (A) (A) (A) (A) (A) (A) (A) (A)
                 (A) (A) (A) (A) (A) (A) (A) (A) (A) (A) (A) (A)
                 (A) (A) (A) (A) (A) (A) (A) (A) (A) (A) (A) (A)
                 (A) (A) (A) (A) (A) (A) (A) (A) (A) (A) (A) (A)
                 (A) (A) (A) (A) (A) (A) (A) (A) (A) (A) (A) (A)
                 (A) (A) (A) (A) (A) (A) (A) (A) (A) (A) (A) (A)
                 (A) (A) (A) (A) (A) (A) (A) (A) (A) (A) (A) (A)
                 (A) (A) (A) (A) (A) (A) (A) (A) (A) (A) (A) (A)
                 (A) (A) (A) (A) (A) (A) (A) (A) (A) (A) (A) (A)
                 (A) (A) (A) (A) (A) (A) (A) (A) (A) (A) (A) (A)
                 (A) (A) (A) (A) (A) (A) (A) (A) (A) (A) (A) (A)
                 (A) (A) (A) (A)
 The electronic state is 1-A.
 Alpha  occ. eigenvalues --  -88.97327 -88.94998 -19.23239 -19.22758 -19.21927
 Alpha  occ. eigenvalues --  -19.21605 -19.21340 -19.21179 -19.19391 -19.19073
 Alpha  occ. eigenvalues --  -19.18536 -19.18447 -19.17926 -19.17674 -19.16661
 Alpha  occ. eigenvalues --  -19.12967 -19.12770 -14.43235 -14.39153 -10.35797
 Alpha  occ. eigenvalues --  -10.35679 -10.33295 -10.29641 -10.29234 -10.28798
 Alpha  occ. eigenvalues --  -10.28246 -10.27272 -10.26734 -10.26299 -10.26044
 Alpha  occ. eigenvalues --  -10.24803 -10.24488 -10.24349 -10.24275 -10.24256
 Alpha  occ. eigenvalues --  -10.24138 -10.24088 -10.24046 -10.24011 -10.23964
 Alpha  occ. eigenvalues --  -10.23546 -10.23543 -10.23518 -10.23478 -10.23457
 Alpha  occ. eigenvalues --  -10.23449 -10.23436 -10.23397 -10.23393 -10.23307
 Alpha  occ. eigenvalues --  -10.23302 -10.23285 -10.23274 -10.23185 -10.23167
 Alpha  occ. eigenvalues --  -10.23120 -10.23104 -10.23041 -10.23022 -10.22964
 Alpha  occ. eigenvalues --  -10.22934 -10.22920 -10.22887 -10.22883 -10.22825
 Alpha  occ. eigenvalues --  -10.22728 -10.22664 -10.22646 -10.22629 -10.22619
 Alpha  occ. eigenvalues --  -10.22583 -10.22560 -10.22560 -10.22494 -10.22466
 Alpha  occ. eigenvalues --  -10.22364 -10.22319 -10.22240 -10.22168 -10.22137
 Alpha  occ. eigenvalues --  -10.21991 -10.21990 -10.21977 -10.21899 -10.21899
 Alpha  occ. eigenvalues --  -10.21872 -10.21858 -10.21810 -10.21807 -10.21768
 Alpha  occ. eigenvalues --  -10.21665 -10.21638 -10.21548 -10.21542 -10.21507
 Alpha  occ. eigenvalues --  -10.21407 -10.21359 -10.21314 -10.21190 -10.21171
 Alpha  occ. eigenvalues --  -10.21117 -10.21004 -10.20901 -10.20866 -10.20798
 Alpha  occ. eigenvalues --  -10.20792 -10.20729 -10.20500 -10.20455 -10.20135
 Alpha  occ. eigenvalues --  -10.19981 -10.19981 -10.19822 -10.19702 -10.19662
 Alpha  occ. eigenvalues --   -7.99166  -7.96871  -5.94214  -5.93840  -5.93146
 Alpha  occ. eigenvalues --   -5.91916  -5.91527  -5.90866  -1.13312  -1.09679
 Alpha  occ. eigenvalues --   -1.09407  -1.08617  -1.07898  -1.07140  -1.05450
 Alpha  occ. eigenvalues --   -1.05088  -1.03950  -1.03537  -1.02452  -1.01895
 Alpha  occ. eigenvalues --   -1.00842  -0.99894  -0.99515  -0.97648  -0.95274
 Alpha  occ. eigenvalues --   -0.90691  -0.89818  -0.89576  -0.89240  -0.88669
 Alpha  occ. eigenvalues --   -0.86294  -0.86216  -0.85757  -0.84826  -0.84338
 Alpha  occ. eigenvalues --   -0.84097  -0.84076  -0.83948  -0.83879  -0.82964
 Alpha  occ. eigenvalues --   -0.82672  -0.82583  -0.82549  -0.82374  -0.82292
 Alpha  occ. eigenvalues --   -0.82074  -0.80460  -0.80337  -0.79822  -0.78466
 Alpha  occ. eigenvalues --   -0.78391  -0.78147  -0.78020  -0.77902  -0.77406
 Alpha  occ. eigenvalues --   -0.77375  -0.77130  -0.77090  -0.76311  -0.76016
 Alpha  occ. eigenvalues --   -0.75544  -0.75328  -0.75165  -0.75128  -0.73811
 Alpha  occ. eigenvalues --   -0.73127  -0.73014  -0.72560  -0.72074  -0.71871
 Alpha  occ. eigenvalues --   -0.71848  -0.71618  -0.71388  -0.71379  -0.71174
 Alpha  occ. eigenvalues --   -0.71127  -0.70691  -0.70531  -0.70482  -0.69992
 Alpha  occ. eigenvalues --   -0.69784  -0.68150  -0.67082  -0.67006  -0.66786
 Alpha  occ. eigenvalues --   -0.66378  -0.65832  -0.65695  -0.65335  -0.65008
 Alpha  occ. eigenvalues --   -0.64511  -0.64486  -0.64408  -0.64310  -0.63547
 Alpha  occ. eigenvalues --   -0.63435  -0.63412  -0.62901  -0.62725  -0.61603
 Alpha  occ. eigenvalues --   -0.61303  -0.60901  -0.60788  -0.60729  -0.60484
 Alpha  occ. eigenvalues --   -0.60318  -0.60231  -0.59186  -0.59068  -0.58862
 Alpha  occ. eigenvalues --   -0.58717  -0.58620  -0.58541  -0.58278  -0.57427
 Alpha  occ. eigenvalues --   -0.57021  -0.56749  -0.56717  -0.56266  -0.56001
 Alpha  occ. eigenvalues --   -0.54458  -0.54315  -0.54145  -0.53930  -0.53888
 Alpha  occ. eigenvalues --   -0.53398  -0.53353  -0.53140  -0.52591  -0.51971
 Alpha  occ. eigenvalues --   -0.51780  -0.51655  -0.51403  -0.51132  -0.50798
 Alpha  occ. eigenvalues --   -0.50582  -0.50432  -0.50238  -0.49932  -0.49865
 Alpha  occ. eigenvalues --   -0.49836  -0.49806  -0.49681  -0.49519  -0.49385
 Alpha  occ. eigenvalues --   -0.49283  -0.49251  -0.49083  -0.49027  -0.48854
 Alpha  occ. eigenvalues --   -0.48628  -0.48457  -0.48365  -0.48322  -0.48230
 Alpha  occ. eigenvalues --   -0.48057  -0.47703  -0.47545  -0.47481  -0.47395
 Alpha  occ. eigenvalues --   -0.47112  -0.47020  -0.46854  -0.46692  -0.46457
 Alpha  occ. eigenvalues --   -0.46315  -0.46209  -0.45985  -0.45925  -0.45833
 Alpha  occ. eigenvalues --   -0.45790  -0.45756  -0.45633  -0.45606  -0.45597
 Alpha  occ. eigenvalues --   -0.45555  -0.45492  -0.45438  -0.45395  -0.45281
 Alpha  occ. eigenvalues --   -0.45227  -0.45074  -0.44955  -0.44844  -0.44691
 Alpha  occ. eigenvalues --   -0.44598  -0.44361  -0.44296  -0.44249  -0.44174
 Alpha  occ. eigenvalues --   -0.44137  -0.44066  -0.43972  -0.43929  -0.43880
 Alpha  occ. eigenvalues --   -0.43812  -0.43687  -0.43567  -0.43506  -0.43328
 Alpha  occ. eigenvalues --   -0.43233  -0.43181  -0.42972  -0.42778  -0.42687
 Alpha  occ. eigenvalues --   -0.42547  -0.42469  -0.42442  -0.42403  -0.42348
 Alpha  occ. eigenvalues --   -0.42300  -0.42208  -0.42104  -0.42013  -0.41806
 Alpha  occ. eigenvalues --   -0.41733  -0.41518  -0.41317  -0.41273  -0.41174
 Alpha  occ. eigenvalues --   -0.41000  -0.40946  -0.40824  -0.40777  -0.40695
 Alpha  occ. eigenvalues --   -0.40671  -0.40655  -0.40432  -0.40333  -0.40305
 Alpha  occ. eigenvalues --   -0.40192  -0.40102  -0.40052  -0.39935  -0.39786
 Alpha  occ. eigenvalues --   -0.39670  -0.39636  -0.39576  -0.39496  -0.39256
 Alpha  occ. eigenvalues --   -0.39145  -0.39140  -0.39058  -0.38977  -0.38929
 Alpha  occ. eigenvalues --   -0.38800  -0.38590  -0.38320  -0.38272  -0.38212
 Alpha  occ. eigenvalues --   -0.38029  -0.37967  -0.37821  -0.37781  -0.37734
 Alpha  occ. eigenvalues --   -0.37716  -0.37605  -0.37557  -0.37472  -0.37353
 Alpha  occ. eigenvalues --   -0.37151  -0.37148  -0.37065  -0.37025  -0.36860
 Alpha  occ. eigenvalues --   -0.36796  -0.36666  -0.36607  -0.36518  -0.36444
 Alpha  occ. eigenvalues --   -0.36332  -0.36175  -0.36016  -0.35984  -0.35669
 Alpha  occ. eigenvalues --   -0.35579  -0.35553  -0.35494  -0.35280  -0.35233
 Alpha  occ. eigenvalues --   -0.35183  -0.35062  -0.35009  -0.34847  -0.34784
 Alpha  occ. eigenvalues --   -0.34743  -0.34736  -0.34693  -0.34619  -0.34555
 Alpha  occ. eigenvalues --   -0.34479  -0.34417  -0.34323  -0.34282  -0.34256
 Alpha  occ. eigenvalues --   -0.34170  -0.34117  -0.34057  -0.33960  -0.33936
 Alpha  occ. eigenvalues --   -0.33890  -0.33803  -0.33715  -0.33703  -0.33643
 Alpha  occ. eigenvalues --   -0.33573  -0.33487  -0.33384  -0.33134  -0.32909
 Alpha  occ. eigenvalues --   -0.32806  -0.32708  -0.32602  -0.32470  -0.32326
 Alpha  occ. eigenvalues --   -0.32312  -0.32217  -0.32103  -0.32041  -0.31812
 Alpha  occ. eigenvalues --   -0.31553  -0.30942  -0.30298  -0.30159  -0.29886
 Alpha  occ. eigenvalues --   -0.29727  -0.29156  -0.28996  -0.28813  -0.28599
 Alpha  occ. eigenvalues --   -0.28158  -0.27644  -0.27110  -0.26877  -0.26457
 Alpha  occ. eigenvalues --   -0.26206  -0.26131  -0.26092  -0.25049  -0.24407
 Alpha  occ. eigenvalues --   -0.23752  -0.23210  -0.23052  -0.22424  -0.21802
 Alpha  occ. eigenvalues --   -0.21719  -0.21203  -0.18837
 Alpha virt. eigenvalues --    0.07423   0.13348   0.13523   0.13560   0.13669
 Alpha virt. eigenvalues --    0.13706   0.14954   0.15023   0.15259   0.15466
 Alpha virt. eigenvalues --    0.16181   0.16925   0.17645   0.17725   0.18295
 Alpha virt. eigenvalues --    0.18766   0.18987   0.19438   0.19726   0.20006
 Alpha virt. eigenvalues --    0.20303   0.20422   0.20716   0.20877   0.21281
 Alpha virt. eigenvalues --    0.21534   0.21561   0.21855   0.22018   0.22240
 Alpha virt. eigenvalues --    0.22290   0.22466   0.22708   0.22873   0.23060
 Alpha virt. eigenvalues --    0.23323   0.23432   0.23737   0.23790   0.24028
 Alpha virt. eigenvalues --    0.24034   0.24099   0.24192   0.24394   0.24494
 Alpha virt. eigenvalues --    0.24683   0.24979   0.25020   0.25163   0.25267
 Alpha virt. eigenvalues --    0.25374   0.25425   0.25650   0.25854   0.25890
 Alpha virt. eigenvalues --    0.26060   0.26179   0.26349   0.26444   0.26541
 Alpha virt. eigenvalues --    0.26642   0.26844   0.26881   0.27024   0.27083
 Alpha virt. eigenvalues --    0.27215   0.27476   0.27627   0.27635   0.27723
 Alpha virt. eigenvalues --    0.27837   0.27918   0.28015   0.28171   0.28261
 Alpha virt. eigenvalues --    0.28400   0.28459   0.28661   0.28700   0.28873
 Alpha virt. eigenvalues --    0.28963   0.29015   0.29058   0.29312   0.29365
 Alpha virt. eigenvalues --    0.29445   0.29470   0.29546   0.29567   0.29688
 Alpha virt. eigenvalues --    0.29787   0.29970   0.30041   0.30123   0.30164
 Alpha virt. eigenvalues --    0.30299   0.30426   0.30469   0.30598   0.30680
 Alpha virt. eigenvalues --    0.30722   0.30852   0.30975   0.31053   0.31086
 Alpha virt. eigenvalues --    0.31116   0.31195   0.31261   0.31312   0.31381
 Alpha virt. eigenvalues --    0.31495   0.31567   0.31587   0.31627   0.31674
 Alpha virt. eigenvalues --    0.31801   0.31864   0.31866   0.32006   0.32109
 Alpha virt. eigenvalues --    0.32209   0.32228   0.32312   0.32396   0.32437
 Alpha virt. eigenvalues --    0.32582   0.32629   0.32700   0.32823   0.32940
 Alpha virt. eigenvalues --    0.32991   0.33080   0.33153   0.33195   0.33239
 Alpha virt. eigenvalues --    0.33259   0.33363   0.33508   0.33553   0.33611
 Alpha virt. eigenvalues --    0.33676   0.33839   0.33918   0.33955   0.33996
 Alpha virt. eigenvalues --    0.34082   0.34207   0.34342   0.34429   0.34468
 Alpha virt. eigenvalues --    0.34639   0.34644   0.34821   0.34939   0.34965
 Alpha virt. eigenvalues --    0.35027   0.35160   0.35171   0.35369   0.35407
 Alpha virt. eigenvalues --    0.35536   0.35542   0.35695   0.35770   0.35870
 Alpha virt. eigenvalues --    0.35921   0.36019   0.36152   0.36328   0.36421
 Alpha virt. eigenvalues --    0.36490   0.36578   0.36780   0.36789   0.36843
 Alpha virt. eigenvalues --    0.36898   0.37178   0.37223   0.37312   0.37373
 Alpha virt. eigenvalues --    0.37448   0.37578   0.37655   0.37683   0.37746
 Alpha virt. eigenvalues --    0.37884   0.37930   0.38149   0.38180   0.38265
 Alpha virt. eigenvalues --    0.38370   0.38447   0.38599   0.38743   0.38781
 Alpha virt. eigenvalues --    0.38807   0.38897   0.38958   0.39089   0.39192
 Alpha virt. eigenvalues --    0.39267   0.39357   0.39434   0.39586   0.39615
 Alpha virt. eigenvalues --    0.39772   0.39859   0.39919   0.39977   0.40044
 Alpha virt. eigenvalues --    0.40183   0.40243   0.40396   0.40544   0.40664
 Alpha virt. eigenvalues --    0.40683   0.40780   0.40938   0.41040   0.41161
 Alpha virt. eigenvalues --    0.41224   0.41237   0.41333   0.41527   0.41671
 Alpha virt. eigenvalues --    0.41689   0.41848   0.42034   0.42111   0.42322
 Alpha virt. eigenvalues --    0.42353   0.42654   0.42791   0.42833   0.43039
 Alpha virt. eigenvalues --    0.43154   0.43206   0.43526   0.43586   0.43686
 Alpha virt. eigenvalues --    0.43736   0.43925   0.44038   0.44164   0.44426
 Alpha virt. eigenvalues --    0.44679   0.44721   0.44836   0.44928   0.45086
 Alpha virt. eigenvalues --    0.45282   0.45459   0.45549   0.45607   0.45893
 Alpha virt. eigenvalues --    0.46036   0.46116   0.46325   0.46545   0.46806
 Alpha virt. eigenvalues --    0.47072   0.47139   0.47398   0.47597   0.48048
 Alpha virt. eigenvalues --    0.48246   0.48364   0.48545   0.48853   0.49180
 Alpha virt. eigenvalues --    0.49457   0.49748   0.50015   0.50249   0.50383
 Alpha virt. eigenvalues --    0.50728   0.50952   0.51239   0.51578   0.51820
 Alpha virt. eigenvalues --    0.51908   0.52051   0.52496   0.52983   0.53365
 Alpha virt. eigenvalues --    0.53838   0.53985   0.54399   0.54963   0.55267
 Alpha virt. eigenvalues --    0.56474   0.57038   0.57196   0.57522   0.58180
 Alpha virt. eigenvalues --    0.58206   0.59253   0.59338   0.59818   0.60661
 Alpha virt. eigenvalues --    0.61115   0.61185   0.61433   0.61974   0.62354
 Alpha virt. eigenvalues --    0.62608   0.63081   0.63182   0.63561   0.63729
 Alpha virt. eigenvalues --    0.64035   0.64152   0.64307   0.64383   0.64563
 Alpha virt. eigenvalues --    0.64812   0.64908   0.65082   0.65202   0.65285
 Alpha virt. eigenvalues --    0.65412   0.65522   0.65540   0.65770   0.65881
 Alpha virt. eigenvalues --    0.66037   0.66087   0.66214   0.66334   0.66390
 Alpha virt. eigenvalues --    0.66587   0.66715   0.66852   0.66966   0.67126
 Alpha virt. eigenvalues --    0.67220   0.67414   0.67463   0.67643   0.67711
 Alpha virt. eigenvalues --    0.67767   0.68011   0.68121   0.68235   0.68337
 Alpha virt. eigenvalues --    0.68545   0.68614   0.68702   0.68784   0.68828
 Alpha virt. eigenvalues --    0.68870   0.69004   0.69110   0.69257   0.69341
 Alpha virt. eigenvalues --    0.69584   0.69640   0.69911   0.69977   0.70104
 Alpha virt. eigenvalues --    0.70259   0.70383   0.70608   0.70641   0.70701
 Alpha virt. eigenvalues --    0.70854   0.70940   0.71106   0.71318   0.71387
 Alpha virt. eigenvalues --    0.71558   0.71701   0.71872   0.71908   0.72056
 Alpha virt. eigenvalues --    0.72076   0.72366   0.72404   0.72635   0.72832
 Alpha virt. eigenvalues --    0.72898   0.72944   0.73032   0.73097   0.73264
 Alpha virt. eigenvalues --    0.73339   0.73511   0.73610   0.73834   0.73957
 Alpha virt. eigenvalues --    0.74103   0.74204   0.74379   0.74459   0.74526
 Alpha virt. eigenvalues --    0.74662   0.74759   0.74921   0.75138   0.75263
 Alpha virt. eigenvalues --    0.75410   0.75559   0.75628   0.75863   0.75896
 Alpha virt. eigenvalues --    0.76023   0.76158   0.76318   0.76522   0.76600
 Alpha virt. eigenvalues --    0.76787   0.76918   0.76981   0.77107   0.77285
 Alpha virt. eigenvalues --    0.77401   0.77736   0.77782   0.77915   0.77949
 Alpha virt. eigenvalues --    0.78057   0.78170   0.78366   0.78508   0.78609
 Alpha virt. eigenvalues --    0.78859   0.78929   0.79085   0.79275   0.79463
 Alpha virt. eigenvalues --    0.79573   0.79695   0.79839   0.79926   0.80097
 Alpha virt. eigenvalues --    0.80240   0.80255   0.80432   0.80608   0.80697
 Alpha virt. eigenvalues --    0.80835   0.81023   0.81112   0.81180   0.81276
 Alpha virt. eigenvalues --    0.81328   0.81571   0.81763   0.81781   0.81956
 Alpha virt. eigenvalues --    0.82031   0.82136   0.82327   0.82358   0.82559
 Alpha virt. eigenvalues --    0.82640   0.82765   0.82833   0.82957   0.83060
 Alpha virt. eigenvalues --    0.83082   0.83341   0.83520   0.83596   0.83678
 Alpha virt. eigenvalues --    0.83892   0.83938   0.84153   0.84237   0.84329
 Alpha virt. eigenvalues --    0.84786   0.84861   0.85177   0.85351   0.85445
 Alpha virt. eigenvalues --    0.85621   0.85784   0.85933   0.86075   0.86365
 Alpha virt. eigenvalues --    0.86467   0.86592   0.86938   0.86982   0.87062
 Alpha virt. eigenvalues --    0.87288   0.87357   0.87542   0.87576   0.87754
 Alpha virt. eigenvalues --    0.87840   0.87906   0.88001   0.88130   0.88199
 Alpha virt. eigenvalues --    0.88336   0.88462   0.88508   0.88518   0.88878
 Alpha virt. eigenvalues --    0.89004   0.89115   0.89227   0.89337   0.89506
 Alpha virt. eigenvalues --    0.89686   0.89866   0.89954   0.89979   0.90287
 Alpha virt. eigenvalues --    0.90813   0.90905   0.90993   0.91056   0.91514
 Alpha virt. eigenvalues --    0.91599   0.91696   0.91783   0.92026   0.92108
 Alpha virt. eigenvalues --    0.92245   0.92549   0.92650   0.92698   0.92925
 Alpha virt. eigenvalues --    0.93056   0.93219   0.93271   0.93318   0.93502
 Alpha virt. eigenvalues --    0.93726   0.93844   0.94027   0.94103   0.94341
 Alpha virt. eigenvalues --    0.94558   0.94873   0.95114   0.95360   0.95425
 Alpha virt. eigenvalues --    0.95617   0.95873   0.96125   0.96163   0.96318
 Alpha virt. eigenvalues --    0.96521   0.96787   0.96800   0.97005   0.97116
 Alpha virt. eigenvalues --    0.97179   0.97334   0.97637   0.97699   0.97750
 Alpha virt. eigenvalues --    0.98017   0.98078   0.98235   0.98416   0.98493
 Alpha virt. eigenvalues --    0.98593   0.98741   0.98845   0.99070   0.99140
 Alpha virt. eigenvalues --    0.99218   0.99315   0.99423   0.99499   0.99723
 Alpha virt. eigenvalues --    0.99747   0.99995   1.00236   1.00433   1.00601
 Alpha virt. eigenvalues --    1.00637   1.00839   1.00910   1.00982   1.01218
 Alpha virt. eigenvalues --    1.01268   1.01308   1.01365   1.01494   1.01645
 Alpha virt. eigenvalues --    1.01883   1.02226   1.02355   1.02424   1.02556
 Alpha virt. eigenvalues --    1.02707   1.02753   1.02944   1.02977   1.03073
 Alpha virt. eigenvalues --    1.03297   1.03334   1.03442   1.03590   1.03617
 Alpha virt. eigenvalues --    1.03811   1.03891   1.04049   1.04253   1.04353
 Alpha virt. eigenvalues --    1.04388   1.04436   1.04555   1.04582   1.04702
 Alpha virt. eigenvalues --    1.04894   1.05095   1.05128   1.05245   1.05327
 Alpha virt. eigenvalues --    1.05393   1.05575   1.05601   1.05694   1.05797
 Alpha virt. eigenvalues --    1.05915   1.06027   1.06094   1.06122   1.06392
 Alpha virt. eigenvalues --    1.06438   1.06578   1.06648   1.06918   1.06960
 Alpha virt. eigenvalues --    1.07016   1.07100   1.07201   1.07264   1.07341
 Alpha virt. eigenvalues --    1.07407   1.07495   1.07677   1.07694   1.07825
 Alpha virt. eigenvalues --    1.07965   1.08017   1.08065   1.08186   1.08396
 Alpha virt. eigenvalues --    1.08426   1.08490   1.08609   1.08679   1.08728
 Alpha virt. eigenvalues --    1.08926   1.08959   1.09055   1.09174   1.09316
 Alpha virt. eigenvalues --    1.09389   1.09443   1.09545   1.09662   1.09975
 Alpha virt. eigenvalues --    1.09977   1.10013   1.10126   1.10182   1.10313
 Alpha virt. eigenvalues --    1.10446   1.10560   1.10639   1.10711   1.10881
 Alpha virt. eigenvalues --    1.11035   1.11051   1.11104   1.11363   1.11455
 Alpha virt. eigenvalues --    1.11659   1.11680   1.11835   1.11968   1.12001
 Alpha virt. eigenvalues --    1.12180   1.12251   1.12459   1.12521   1.12747
 Alpha virt. eigenvalues --    1.12838   1.13059   1.13158   1.13289   1.13350
 Alpha virt. eigenvalues --    1.13632   1.13748   1.13868   1.13932   1.14016
 Alpha virt. eigenvalues --    1.14078   1.14206   1.14425   1.14460   1.14681
 Alpha virt. eigenvalues --    1.14788   1.14877   1.15072   1.15318   1.15356
 Alpha virt. eigenvalues --    1.15395   1.15628   1.15750   1.15771   1.15848
 Alpha virt. eigenvalues --    1.16011   1.16086   1.16170   1.16356   1.16403
 Alpha virt. eigenvalues --    1.16515   1.16596   1.16792   1.16833   1.16921
 Alpha virt. eigenvalues --    1.17033   1.17242   1.17269   1.17524   1.17605
 Alpha virt. eigenvalues --    1.17773   1.17879   1.18060   1.18179   1.18296
 Alpha virt. eigenvalues --    1.18482   1.18510   1.18634   1.18746   1.18872
 Alpha virt. eigenvalues --    1.19211   1.19283   1.19349   1.19421   1.19822
 Alpha virt. eigenvalues --    1.19910   1.20157   1.20184   1.20341   1.20597
 Alpha virt. eigenvalues --    1.20835   1.20992   1.21105   1.21249   1.21353
 Alpha virt. eigenvalues --    1.21576   1.21755   1.21889   1.22048   1.22289
 Alpha virt. eigenvalues --    1.22384   1.22520   1.22565   1.22684   1.22917
 Alpha virt. eigenvalues --    1.23104   1.23199   1.23532   1.23738   1.23993
 Alpha virt. eigenvalues --    1.24132   1.24188   1.24422   1.24513   1.24658
 Alpha virt. eigenvalues --    1.24897   1.25084   1.25223   1.25466   1.25678
 Alpha virt. eigenvalues --    1.25772   1.26059   1.26221   1.26571   1.26664
 Alpha virt. eigenvalues --    1.26770   1.26965   1.27141   1.27630   1.27778
 Alpha virt. eigenvalues --    1.27900   1.28033   1.28249   1.28764   1.29044
 Alpha virt. eigenvalues --    1.29169   1.29440   1.29689   1.29754   1.30023
 Alpha virt. eigenvalues --    1.30223   1.30548   1.30854   1.31032   1.31263
 Alpha virt. eigenvalues --    1.31538   1.31690   1.31906   1.32139   1.32336
 Alpha virt. eigenvalues --    1.32608   1.32873   1.33018   1.33338   1.33740
 Alpha virt. eigenvalues --    1.33757   1.33951   1.34046   1.34409   1.34492
 Alpha virt. eigenvalues --    1.34704   1.34967   1.35157   1.35352   1.35604
 Alpha virt. eigenvalues --    1.35724   1.35925   1.36171   1.36275   1.36601
 Alpha virt. eigenvalues --    1.36958   1.37253   1.37498   1.37948   1.38083
 Alpha virt. eigenvalues --    1.38520   1.38701   1.38950   1.39056   1.39286
 Alpha virt. eigenvalues --    1.39363   1.39582   1.39884   1.40205   1.40353
 Alpha virt. eigenvalues --    1.40730   1.40933   1.41220   1.41340   1.41354
 Alpha virt. eigenvalues --    1.41480   1.41879   1.42103   1.42667   1.43152
 Alpha virt. eigenvalues --    1.43389   1.43921   1.44110   1.44400   1.44732
 Alpha virt. eigenvalues --    1.44939   1.45213   1.45705   1.45808   1.46308
 Alpha virt. eigenvalues --    1.46585   1.46978   1.47214   1.47381   1.47623
 Alpha virt. eigenvalues --    1.48082   1.48423   1.48984   1.49220   1.49464
 Alpha virt. eigenvalues --    1.50064   1.50474   1.50664   1.50820   1.51235
 Alpha virt. eigenvalues --    1.51614   1.51730   1.52153   1.52618   1.52693
 Alpha virt. eigenvalues --    1.52926   1.53235   1.53282   1.53805   1.54211
 Alpha virt. eigenvalues --    1.54330   1.54742   1.55431   1.55578   1.56258
 Alpha virt. eigenvalues --    1.56384   1.56545   1.56892   1.57044   1.57253
 Alpha virt. eigenvalues --    1.57317   1.57465   1.57598   1.57736   1.57805
 Alpha virt. eigenvalues --    1.57963   1.57989   1.58218   1.58474   1.58515
 Alpha virt. eigenvalues --    1.58868   1.58984   1.59304   1.59422   1.59563
 Alpha virt. eigenvalues --    1.59665   1.59802   1.59998   1.60109   1.60329
 Alpha virt. eigenvalues --    1.60547   1.60585   1.60867   1.60895   1.61071
 Alpha virt. eigenvalues --    1.61319   1.61362   1.61668   1.61797   1.62004
 Alpha virt. eigenvalues --    1.62321   1.62342   1.62530   1.62622   1.62738
 Alpha virt. eigenvalues --    1.62772   1.62915   1.63447   1.63605   1.63674
 Alpha virt. eigenvalues --    1.63746   1.63883   1.63954   1.64034   1.64233
 Alpha virt. eigenvalues --    1.64498   1.64813   1.65106   1.65193   1.65357
 Alpha virt. eigenvalues --    1.65661   1.65698   1.65935   1.66363   1.66436
 Alpha virt. eigenvalues --    1.66552   1.66603   1.66703   1.66796   1.67591
 Alpha virt. eigenvalues --    1.67701   1.67945   1.68109   1.68304   1.68602
 Alpha virt. eigenvalues --    1.68699   1.69224   1.69441   1.69792   1.70254
 Alpha virt. eigenvalues --    1.70372   1.70436   1.70499   1.70782   1.71751
 Alpha virt. eigenvalues --    1.72618   1.73035   1.73539   1.74164   1.74680
 Alpha virt. eigenvalues --    1.75171   1.75881   1.76154   1.76536   1.76846
 Alpha virt. eigenvalues --    1.76978   1.77475   1.78198   1.79057   1.79354
 Alpha virt. eigenvalues --    1.79834   1.80302   1.80461   1.80980   1.81099
 Alpha virt. eigenvalues --    1.81451   1.82327   1.82696   1.83160   1.83322
 Alpha virt. eigenvalues --    1.83818   1.83970   1.84533   1.84951   1.85269
 Alpha virt. eigenvalues --    1.85703   1.85917   1.86104   1.86219   1.86365
 Alpha virt. eigenvalues --    1.86480   1.86545   1.86722   1.86805   1.86852
 Alpha virt. eigenvalues --    1.87297   1.87368   1.87649   1.87850   1.88158
 Alpha virt. eigenvalues --    1.88214   1.88349   1.88516   1.88593   1.88701
 Alpha virt. eigenvalues --    1.88845   1.88986   1.88997   1.89084   1.89449
 Alpha virt. eigenvalues --    1.89541   1.89560   1.89749   1.89987   1.90163
 Alpha virt. eigenvalues --    1.90370   1.90404   1.90548   1.90840   1.90897
 Alpha virt. eigenvalues --    1.91245   1.91517   1.91637   1.92013   1.92031
 Alpha virt. eigenvalues --    1.92601   1.92877   1.92977   1.93186   1.93384
 Alpha virt. eigenvalues --    1.93610   1.93938   1.94307   1.94626   1.94784
 Alpha virt. eigenvalues --    1.95113   1.95242   1.95331   1.95620   1.95804
 Alpha virt. eigenvalues --    1.95953   1.96059   1.96257   1.96326   1.96457
 Alpha virt. eigenvalues --    1.96567   1.96757   1.96985   1.97179   1.97328
 Alpha virt. eigenvalues --    1.97410   1.97492   1.97746   1.97864   1.98010
 Alpha virt. eigenvalues --    1.98154   1.98456   1.98643   1.98723   1.98976
 Alpha virt. eigenvalues --    1.99201   1.99347   1.99711   1.99850   1.99953
 Alpha virt. eigenvalues --    2.00086   2.00686   2.00842   2.01201   2.01453
 Alpha virt. eigenvalues --    2.01655   2.01775   2.02028   2.02153   2.02237
[...]
  112 Atom       -0.288034      0.140754      0.147280
  113 Atom       -0.310946      0.145311      0.165635
  114 Atom       -0.279328      0.114753      0.164575
  115 Atom       -0.315292      0.148980      0.166313
  116 Atom       -0.234036      0.076601      0.157435
  117 Atom       -0.312669      0.145861      0.166807
  118 Atom       -0.303267      0.147817      0.155450
  119 Atom       -0.304653      0.149386      0.155267
  120 Atom       -0.015415     -0.002045      0.017460
  121 Atom       -0.305486      0.150246      0.155240
  122 Atom       -0.029505     -0.019078      0.048583
  123 Atom       -0.279444      0.138718      0.140726
  124 Atom       -0.025579      0.009955      0.015624
  125 Atom       -0.302105      0.147862      0.154243
  126 Atom       -0.305690      0.149592      0.156098
  127 Atom       -0.304868      0.149487      0.155381
  128 Atom       -0.017333      0.003282      0.014051
  129 Atom       -0.304928      0.150041      0.154887
  130 Atom       -0.303861      0.149819      0.154042
  131 Atom       -0.305455      0.150197      0.155258
  132 Atom       -0.306166      0.149983      0.156182
  133 Atom       -0.299727      0.146446      0.153281
  134 Atom       -0.040119      0.002602      0.037517
  135 Atom       -0.307319      0.150832      0.156487
  136 Atom       -0.079534      0.015916      0.063618
  137 Atom       -0.293872      0.141726      0.152147
  138 Atom       -0.288435      0.138935      0.149500
  139 Atom       -0.240378      0.090535      0.149843
  140 Atom       -0.294329      0.141295      0.153034
  141 Atom       -0.284907      0.139277      0.145631
  142 Atom       -2.271104     -0.554501      2.825605
  143 Atom       -0.207271      0.098575      0.108696
  144 Atom       -0.303997      0.147615      0.156382
  145 Atom       -0.303184      0.147659      0.155526
  146 Atom       -0.308599      0.148304      0.160295
  147 Atom       -0.304796      0.148585      0.156211
  148 Atom       -0.305413      0.150899      0.154513
  149 Atom       -0.016532      0.005138      0.011393
  150 Atom       -0.307561      0.151634      0.155927
  151 Atom       -0.032341      0.005667      0.026674
  152 Atom       -0.292535      0.143153      0.149383
  153 Atom       -0.294476      0.144749      0.149727
  154 Atom       -0.027502     -0.001378      0.028880
  155 Atom       -0.284215      0.140673      0.143542
  156 Atom       -0.018803      0.005331      0.013472
  157 Atom       -0.307261      0.151279      0.155982
  158 Atom       -0.305504      0.149892      0.155613
  159 Atom       -0.304518      0.150042      0.154476
  160 Atom       -0.047566      0.014061      0.033504
  161 Atom       -0.306831      0.150331      0.156501
  162 Atom       -0.298418      0.145286      0.153133
  163 Atom       -0.304492      0.148226      0.156266
  164 Atom       -0.304211      0.149787      0.154424
  165 Atom       -0.305760      0.150748      0.155012
  166 Atom       -0.006145     -0.002530      0.008676
  167 Atom       -0.304598      0.149670      0.154928
  168 Atom       -0.032657     -0.009360      0.042017
  169 Atom       -0.281489      0.140329      0.141159
  170 Atom       -0.039302     -0.019460      0.058762
  171 Atom       -0.288742      0.140497      0.148245
  172 Atom       -0.306115      0.149586      0.156529
  173 Atom       -0.305138      0.148479      0.156659
  174 Atom       -0.025263      0.002494      0.022769
  175 Atom       -0.304551      0.149840      0.154710
  176 Atom       -0.306120      0.150122      0.155998
  177 Atom       -0.299830      0.146896      0.152935
  178 Atom       -0.305927      0.150984      0.154943
  179 Atom       -0.300274      0.146628      0.153646
  180 Atom       -0.086701      0.023785      0.062915
  181 Atom       -0.302030      0.145686      0.156344
  182 Atom       -0.062053     -0.002578      0.064631
  183 Atom       -0.293166      0.141702      0.151464
  184 Atom       -0.293097      0.143726      0.149370
  185 Atom       -0.395316      0.036674      0.358642
  186 Atom       -0.736191     -0.713067      1.449258
  187 Atom       -1.269687      0.486743      0.782945
  188 Atom       -0.274330      0.122802      0.151528
  189 Atom       -0.306311      0.149104      0.157208
  190 Atom       -0.307337      0.150919      0.156419
  191 Atom       -0.037205     -0.000005      0.037210
  192 Atom       -0.305976      0.149513      0.156463
  193 Atom       -0.038277     -0.002570      0.040846
  194 Atom       -0.291845      0.143038      0.148807
  195 Atom       -0.293766      0.142530      0.151236
  196 Atom       -0.212119      0.067235      0.144884
  197 Atom       -0.297229      0.144091      0.153139
  198 Atom       -0.282829      0.136833      0.145996
  199 Atom       -2.265591     -0.491021      2.756612
  200 Atom       -0.248014      0.095201      0.152813
  201 Atom       -0.306449      0.147500      0.158948
  202 Atom       -0.304587      0.145952      0.158635
  203 Atom       -0.282070      0.133775      0.148295
  204 Atom       -0.300531      0.149389      0.151142
  205 Atom       -0.300436      0.148142      0.152294
  206 Atom       -0.038298     -0.007238      0.045536
  207 Atom       -0.304776      0.149655      0.155121
  208 Atom       -0.045731      0.017502      0.028229
  209 Atom       -0.302851      0.147797      0.155054
  210 Atom       -0.303354      0.148173      0.155182
  211 Atom       -0.308567      0.149232      0.159336
  212 Atom       -0.306396      0.149552      0.156844
  213 Atom       -0.304525      0.149438      0.155088
  214 Atom       -0.036001      0.012102      0.023899
  215 Atom       -0.305148      0.150223      0.154925
  216 Atom       -0.034944     -0.003011      0.037955
  217 Atom       -0.290636      0.143948      0.146688
  218 Atom       -0.292465      0.143183      0.149282
  219 Atom       -0.084044      0.016943      0.067100
  220 Atom       -0.120303     -0.089754      0.210057
  221 Atom       -0.324899      0.149336      0.175563
  222 Atom       -0.411014     -0.141044      0.552058
  223 Atom       -0.277970      0.113775      0.164194
  224 Atom       -0.150818     -0.077081      0.227898
  225 Atom       -0.201973      0.069628      0.132345
  226 Atom       -0.315823      0.148433      0.167390
  227 Atom       -0.216724      0.081904      0.134820
  228 Atom       -0.315172      0.146816      0.168355
  229 Atom       -0.197035      0.067585      0.129450
  230 Atom       -0.314172      0.145841      0.168331
  231 Atom       -0.224963      0.075842      0.149121
  232 Atom       -0.315284      0.148720      0.166564
  233 Atom       -0.191477      0.078070      0.113407
  234 Atom       -0.306064      0.149273      0.156791
  235 Atom       -0.571343      0.157856      0.413488
  236 Atom       -0.903465     -0.462185      1.365650
  237 Atom       -0.121666      0.016315      0.105352
  238 Atom       -0.584019      0.267284      0.316734
  239 Atom       -0.077682     -0.013343      0.091025
  240 Atom       -0.058459      0.002312      0.056147
  241 Atom       -0.046273     -0.002007      0.048280
  242 Atom       -0.099511     -0.002146      0.101657
  243 Atom       -0.038989     -0.019319      0.058308
  244 Atom       -0.011596      0.002806      0.008790
  245 Atom       -0.033563      0.003990      0.029573
  246 Atom       -0.020238     -0.000282      0.020520
  247 Atom       -0.034842     -0.003605      0.038447
  248 Atom       -0.024219     -0.018869      0.043089
  249 Atom       -0.035341     -0.000838      0.036179
  250 Atom       -0.066774      0.014497      0.052276
  251 Atom       -0.017752     -0.004136      0.021888
  252 Atom       -0.335570      0.139054      0.196516
  253 Atom       -0.034364      0.011592      0.022772
  254 Atom       -1.520176     -0.118652      1.638828
  255 Atom       -0.302732      0.136116      0.166616
  256 Atom       -0.243694      0.118880      0.124814
  257 Atom       -0.288609      0.140713      0.147896
  258 Atom       -0.294831      0.144132      0.150699
  259 Atom       -0.287432      0.141183      0.146249
  260 Atom       -0.288760      0.140001      0.148759
  261 Atom       -0.294527      0.139662      0.154865
  262 Atom       -0.236218      0.114704      0.121514
  263 Atom       -0.291868      0.142906      0.148961
  264 Atom       -0.290474      0.143349      0.147126
  265 Atom       -0.291309      0.144056      0.147253
  266 Atom       -0.279820      0.139804      0.140016
  267 Atom       -0.277343      0.135079      0.142263
  268 Atom       -0.290569      0.141956      0.148613
  269 Atom       -0.288325      0.142223      0.146102
  270 Atom       -0.289713      0.142730      0.146983
  271 Atom       -0.296773      0.144985      0.151788
  272 Atom       -0.298265      0.146707      0.151557
  273 Atom       -0.299350      0.146543      0.152808
  274 Atom       -0.299739      0.148999      0.150740
  275 Atom       -0.295315      0.146658      0.148657
  276 Atom       -0.272954      0.127979      0.144975
  277 Atom       -0.304795      0.146894      0.157900
  278 Atom       -0.296631      0.146275      0.150357
  279 Atom       -0.308942      0.150848      0.158094
  280 Atom       -0.409712      0.175512      0.234199
  281 Atom       -1.321813     -0.159109      1.480922
  282 Atom       -0.459621      0.207358      0.252263
  283 Atom       -0.281858      0.114199      0.167658
  284 Atom       -1.246000     -0.062817      1.308817
  285 Atom       -0.387367      0.172949      0.214417
  286 Atom       -0.377961      0.169176      0.208784
  287 Atom       -1.459132     -0.114284      1.573415
  288 Atom       -0.360042      0.151552      0.208490
  289 Atom       -0.483537      0.214376      0.269160
  290 Atom       -1.323496     -0.006132      1.329627
  291 Atom       -0.460527      0.207921      0.252606
  292 Atom       -0.312839      0.133046      0.179793
  293 Atom       -1.302157     -0.059254      1.361411
  294 Atom       -0.334872      0.144991      0.189881
  295 Atom       -0.443449      0.195155      0.248295
  296 Atom       -1.397452     -0.056163      1.453615
  297 Atom       -0.487852      0.220451      0.267402
  298 Atom       -0.302067      0.123488      0.178579
 -----------------------------------------------------
 Unable to Open any file for archive entry.
 1\1\GINC-EXP-4-31\SP\RwB97XD\6-31G(d)\C96H183N2O15S2(1-)\HKLEM\11-Jul-
 2024\0\\# wb97xd/6-31G(d) prop=efg\\19nt_mm_min_distance_cutoff4_xtb_c
 onf_1\\-1,1\H,0,47.0528,33.7868,30.8348\C,0,46.354,34.588,30.601\H,0,4
 5.7792,34.3044,29.7223\C,0,45.4203,34.8554,31.782\H,0,44.8743,33.94,32
 .0234\H,0,46.012,35.1392,32.6549\C,0,44.4511,35.9519,31.4404\C,0,43.33
 05,35.6789,30.6658\H,0,43.1381,34.6634,30.3487\C,0,42.4565,36.6794,30.
 2949\H,0,41.5911,36.4588,29.6898\C,0,42.6894,37.9911,30.7002\O,0,41.82
 08,38.9587,30.3054\H,0,42.0412,39.8023,30.775\C,0,43.8053,38.2739,31.4
 793\H,0,43.9873,39.2881,31.8027\C,0,44.675,37.2616,31.8385\H,0,45.5423
 ,37.4984,32.4394\H,0,46.9207,35.4848,30.3604\H,0,48.6363,38.3506,26.40
 94\C,0,48.063,39.251,26.62\H,0,47.3467,39.3993,25.8153\C,0,47.3311,39.
 1225,27.9567\H,0,48.0751,38.9408,28.7415\C,0,46.5849,40.4113,28.2921\H
 ,0,47.2668,41.2589,28.3134\H,0,45.8129,40.6054,27.5501\H,0,46.108,40.3
 294,29.266\C,0,46.3569,37.9467,27.9286\H,0,45.8556,37.8377,28.8883\H,0
 ,46.8779,37.0175,27.7066\H,0,45.5963,38.1044,27.1666\H,0,48.7446,40.09
 85,26.637\H,0,36.4389,46.7581,33.2776\C,0,37.163,46.712,32.465\H,0,37.
 3834,47.7266,32.1355\C,0,38.4417,46.0148,32.9238\H,0,38.207,45.0028,33
 .2593\H,0,38.8891,46.5743,33.7482\C,0,39.4508,45.936,31.7625\O,0,40.29
 9,46.8554,31.6697\O,0,39.3648,44.9733,30.9756\H,0,36.7195,46.1676,31.6
 33\H,0,40.6286,41.9079,22.6663\C,0,40.763,42.802,23.272\H,0,39.8867,42
 .9141,23.9065\C,0,42.0241,42.6841,24.1265\H,0,42.8855,42.5639,23.4662\
 H,0,42.1556,43.5966,24.7107\C,0,41.9254,41.5021,25.0501\C,0,42.2253,40
 .222,24.6008\H,0,42.5569,40.0774,23.5813\C,0,42.1159,39.1267,25.4337\H
 ,0,42.362,38.1346,25.0873\C,0,41.6835,39.2914,26.7471\O,0,41.5942,38.2
 022,27.5465\H,0,41.4557,38.4835,28.4693\C,0,41.3513,40.5651,27.1947\H,
 0,40.987,40.687,28.2047\C,0,41.4809,41.6556,26.3557\H,0,41.2363,42.642
 ,26.7214\H,0,40.8209,43.6645,22.6095\H,0,42.4076,46.7738,22.725\C,0,43
 .019,47.115,23.555\H,0,42.6163,46.7139,24.4863\H,0,43.0044,48.1986,23.
 6105\C,0,44.4631,46.6456,23.4182\O,0,45.3911,47.2831,23.8967\N,0,44.67
 11,45.4957,22.7421\H,0,43.8728,44.9869,22.395\C,0,45.983,44.912,22.455
 \H,0,46.7048,45.4496,23.0704\C,0,46.0132,43.4131,22.7306\H,0,45.2698,4
 2.9277,22.0906\H,0,46.9949,43.0366,22.4343\C,0,45.7441,43.02,24.1882\H
 ,0,44.7919,43.4575,24.5021\C,0,45.6439,41.4996,24.2896\H,0,45.3549,41.
 2041,25.2945\H,0,44.9014,41.1053,23.6002\H,0,46.6043,41.0446,24.0543\C
 ,0,46.8336,43.5297,25.1248\H,0,47.8127,43.1874,24.7961\H,0,46.8349,44.
 6144,25.1644\H,0,46.6632,43.1535,26.1305\H,0,46.2238,45.0941,21.4007\H
 ,0,51.3647,46.4647,23.6889\C,0,51.26,46.169,24.731\H,0,51.6448,46.9717
 ,25.3569\C,0,49.798,45.889,25.0723\H,0,49.4492,45.071,24.4309\C,0,49.6
 761,45.4591,26.5318\H,0,50.268,44.5652,26.7204\H,0,50.0328,46.2537,27.
 1843\H,0,48.6414,45.2442,26.7836\C,0,48.9323,47.1194,24.8121\H,0,49.13
 99,47.8811,25.5589\H,0,49.1299,47.5345,23.8262\H,0,47.8747,46.8763,24.
 8706\H,0,51.8694,45.2832,24.8996\H,0,49.4858,42.1376,37.7577\C,0,50.21
 3,42.685,37.162\H,0,51.1751,42.6533,37.6695\C,0,50.3201,42.0749,35.762
 7\H,0,51.0626,42.6299,35.1847\H,0,50.6616,41.0403,35.8491\C,0,48.9928,
 42.1124,35.0558\C,0,48.6731,43.1515,34.1925\H,0,49.4016,43.9309,34.011
 \C,0,47.4404,43.1974,33.5648\H,0,47.205,44.0107,32.8952\C,0,46.5063,42
 .2034,33.7963\H,0,45.5374,42.2436,33.3246\C,0,46.8135,41.1651,34.6577\
 H,0,46.0841,40.3907,34.8447\C,0,48.0469,41.1204,35.282\H,0,48.2835,40.
 3049,35.9524\H,0,49.887,43.7209,37.0969\H,0,51.0127,45.6615,32.1187\C,
 0,50.84,46.417,31.354\H,0,51.5162,46.2292,30.5233\C,0,49.3892,46.3736,
 30.8822\H,0,49.27,47.0995,30.0702\C,0,49.0458,44.9883,30.3412\H,0,49.1
 376,44.2374,31.1238\H,0,49.7138,44.7222,29.5257\H,0,48.0258,44.9682,29
 .9635\C,0,48.4515,46.7537,32.0244\H,0,48.5811,46.0765,32.8662\H,0,47.4
 138,46.7023,31.7019\H,0,48.6517,47.7661,32.3686\H,0,51.0825,47.3902,31
 .7763\H,0,52.8019,49.9487,26.9012\C,0,52.401,50.618,26.143\H,0,52.9473
 ,50.458,25.2166\C,0,50.9166,50.3492,25.9383\H,0,50.7831,49.3312,25.571
 9\H,0,50.5098,51.0278,25.1857\C,0,50.1216,50.5286,27.2211\H,0,50.3433,
 51.4933,27.6797\H,0,49.0519,50.4498,27.0297\S,0,50.55,49.2438,28.4582\
 C,0,49.9836,50.1,29.9534\H,0,50.5202,51.0396,30.0593\H,0,48.9133,50.27
 59,29.8901\H,0,50.204,49.4514,30.7939\H,0,52.5656,51.6445,26.4665\H,0,
 50.3425,51.3598,33.4882\C,0,49.755,50.767,34.187\H,0,49.7958,51.253,35
 .1583\C,0,48.3185,50.6358,33.6949\H,0,48.3322,50.2169,32.6855\H,0,47.8
 614,51.6257,33.6303\C,0,47.4482,49.7408,34.5846\H,0,47.9931,48.8081,34
 .7749\C,0,47.1454,50.4065,35.924\H,0,48.058,50.6468,36.4644\H,0,46.582
 2,51.3241,35.7671\H,0,46.5518,49.7411,36.5466\C,0,46.1454,49.404,33.86
 45\H,0,46.3439,48.8567,32.9466\H,0,45.6018,50.3124,33.6146\H,0,45.5027
 ,48.7923,34.4911\H,0,50.2178,49.7857,34.2757\H,0,47.0061,47.0655,36.78
 05\C,0,46.253,46.438,37.253\H,0,45.3729,47.0463,37.449\C,0,45.8912,45.
 2613,36.3479\H,0,46.7931,44.6641,36.1673\C,0,44.8508,44.3641,37.0118\H
 ,0,44.5919,43.5414,36.3492\H,0,45.2336,43.9547,37.9456\H,0,43.9473,44.
 9313,37.2304\C,0,45.3684,45.76,35.0047\H,0,45.0829,44.9149,34.384\H,0,
 46.1316,46.3327,34.4827\H,0,44.4989,46.3995,35.1483\H,0,46.647,46.0858
 ,38.2048\H,0,43.0176,42.0314,37.5542\C,0,42.317,41.201,37.522\H,0,41.3
 252,41.5981,37.3166\C,0,42.7276,40.2132,36.4347\H,0,43.7022,39.7839,36
 .6803\H,0,42.0005,39.4064,36.339\C,0,42.865,40.9066,35.0926\O,0,43.56,
 41.8725,34.8993\O,0,42.1408,40.3244,34.1549\H,0,42.2754,40.7507,33.254
 \H,0,42.3019,40.7115,38.4931\H,0,35.9059,38.2306,34.5609\C,0,36.5,39.0
 53,34.953\H,0,36.6074,38.9236,36.0281\C,0,37.8687,39.097,34.2813\H,0,3
 8.4187,38.1787,34.5066\H,0,37.743,39.1478,33.1978\C,0,38.704,40.2833,3
 4.7461\H,0,38.6575,40.38,35.8312\H,0,39.7445,40.174,34.4414\S,0,38.125
 7,41.8892,34.0885\C,0,38.9886,41.9186,32.4949\H,0,38.5613,41.1722,31.8
 306\H,0,40.0438,41.7222,32.6591\H,0,38.8648,42.911,32.0678\H,0,35.9709
 ,39.986,34.7709\H,0,38.9889,44.2574,35.7167\C,0,39.964,44.652,35.992\H
 ,0,40.218,44.2795,36.9839\C,0,41.0085,44.2218,34.9744\H,0,42.0021,44.5
 594,35.2641\H,0,40.773,44.6247,33.9922\H,0,41.0307,43.1377,34.9012\H,0
 ,39.8909,45.7363,36.0455\H,0,41.4631,49.8738,37.8836\C,0,42.518,50.112
 ,37.763\H,0,42.9932,50.0934,38.7424\C,0,43.1851,49.1043,36.8238\H,0,44
 .2497,49.3474,36.7533\H,0,43.0921,48.1022,37.251\C,0,42.5927,49.1002,3
 5.4501\C,0,41.8586,48.1009,34.8695\H,0,41.569,47.156,35.2883\N,0,41.50
 12,48.432,33.5975\H,0,40.9768,47.8447,32.9344\C,0,42.0129,49.6581,33.3
 168\C,0,41.9458,50.4102,32.1495\H,0,41.4164,50.0324,31.2878\C,0,42.573
 5,51.6357,32.1371\H,0,42.545,52.2458,31.245\C,0,43.2533,52.1131,33.262
 8\H,0,43.7316,53.0824,33.2119\C,0,43.3258,51.3757,34.4229\H,0,43.8593,
 51.7547,35.2837\C,0,42.7062,50.1261,34.4654\H,0,42.5941,51.1173,37.356
 4\C,0,42.8379,42.2487,31.1247\O,0,42.4802,41.1942,31.6838\C,0,43.0316,
 43.4741,31.8183\C,0,43.3183,44.6408,31.1837\C,0,43.6536,44.6848,29.727
 \C,0,44.0508,43.2978,29.2217\C,0,42.9977,42.2843,29.6342\C,0,43.1669,4
 5.927,31.8957\C,0,44.15,47.0164,31.4809\C,0,44.2581,47.1119,29.9617\C,
 0,44.7213,45.7516,29.4146\C,0,45.2593,48.1797,29.5435\C,0,45.4588,48.2
 615,28.0225\C,0,45.9941,46.9211,27.5343\C,0,45.0288,45.7961,27.912\C,0
 ,44.9952,49.6329,29.9427\C,0,45.9092,50.439,29.0009\C,0,46.4663,49.427
 6,27.9659\C,0,44.199,48.6321,27.2343\O,0,46.6939,49.9916,26.7013\H,0,4
 2.8399,43.4695,32.8825\H,0,42.7246,44.9854,29.2161\H,0,45.0219,43.016,
 29.6399\H,0,44.1296,43.2942,28.1353\H,0,42.0307,42.5913,29.2235\H,0,43
 .2302,41.2885,29.2514\H,0,43.1956,45.7779,32.9752\H,0,42.146,46.2729,3
 1.6534\H,0,45.1336,46.7908,31.902\H,0,43.8239,47.9695,31.8979\H,0,43.2
 715,47.3494,29.5579\H,0,45.6453,45.4764,29.9409\H,0,46.2309,47.8943,29
 .9688\H,0,46.9706,46.7331,27.9888\H,0,46.1235,46.9408,26.451\H,0,44.09
 88,45.9038,27.3537\H,0,45.4849,44.8526,27.6109\H,0,45.2232,49.8231,30.
 9895\H,0,43.9468,49.8831,29.7864\H,0,46.7168,50.9276,29.5475\H,0,45.35
 57,51.2208,28.4783\H,0,47.4465,49.0583,28.2879\H,0,43.8879,49.6557,27.
 4235\H,0,44.3966,48.517,26.17\H,0,43.3716,47.9777,27.484\H,0,45.8313,5
 0.2024,26.3122\O,0,40.8375,45.8358,28.973\H,0,40.9308,46.6991,29.3891\
 H,0,40.2712,45.3554,29.6446\O,0,45.5374,49.9609,23.2278\H,0,45.5233,49
 .0271,23.499\H,0,45.0961,50.4554,23.9405\O,0,41.505,45.6052,26.3116\H,
 0,41.3418,45.695,27.271\H,0,40.6428,45.4064,25.9417\O,0,47.0443,52.642
 ,25.5975\H,0,47.2259,52.246,26.4554\H,0,47.4789,52.0274,24.9553\O,0,47
 .9805,50.6068,24.1547\H,0,47.181,50.3999,23.6215\H,0,47.9325,49.9941,2
 4.8977\O,0,44.6232,51.5729,25.3027\H,0,43.9593,52.2061,25.0297\H,0,45.
 4733,52.0763,25.3803\\Version=ES64L-G16RevC.01\State=1-A\HF=-5801.5867
 615\RMSD=3.313e-09\Dipole=2.6142175,-1.6353934,-0.6447096\Quadrupole=-
 7.5624237,-12.7751776,20.3376014,-29.3034189,42.8866834,9.7521522\PG=C
 01 [X(C96H183N2O15S2)]\\@
 The archive entry for this job was punched.


 THERE IS AN OLD, OLD RECIPE IN MAINE FOR STEWING COOT. PLACE THE
 BIRD IN A KETTLE OF WATER WITH A RED BUILDING BRICK FREE OF MORTAR AND
 BLEMISHES. PARBOIL THE COOT AND BRICK TOGETHER FOR THREE HOURS.
 POUR OFF THE WATER, REFILL THE KETTLE, AND AGAIN PARBOIL FOR THREE HOURS.
 ONCE AGAIN POUR OFF THE WATER, FOR THE LAST TIME ADD FRESH WATER,
 AND LET THE COOT AND BRICK SIMMER TOGETHER OVERNIGHT. IN THE MORNING,
 THROW AWAY THE COOT AND EAT THE BRICK.
 Job cpu time:       0 days  4 hours  8 minutes 13.1 seconds.
 Elapsed time:       0 days  0 hours  8 minutes  4.4 seconds.
 File lengths (MBytes):  RWF=   2366 Int=      0 D2E=      0 Chk=    254 Scr=      1
 Normal termination of Gaussian 16 at Thu Jul 11 11:59:27 2024.
