 Entering Gaussian System, Link 0=g16
 Input=cutoff7_no_wat_ef.com
 Output=cutoff7_no_wat_ef.log
 Initial command:
 /usr/local/packages/license/gaussian/g16-c01/g16/l1.exe "/work/arkanil/gauss_scratch/Gau-914807.inp" -scrdir="/work/arkanil/gauss_scratch/"
 Entering Link 1 = /usr/local/packages/license/gaussian/g16-c01/g16/l1.exe PID=    914816.
  
 Copyright (c) 1988-2019, Gaussian, Inc.  All Rights Reserved.
  
 This is part of the Gaussian(R) 16 program.  It is based on
 the Gaussian(R) 09 system (copyright 2009, Gaussian, Inc.),
 the Gaussian(R) 03 system (copyright 2003, Gaussian, Inc.),
 the Gaussian(R) 98 system (copyright 1998, Gaussian, Inc.),
 the Gaussian(R) 94 system (copyright 1995, Gaussian, Inc.),
 the Gaussian 92(TM) system (copyright 1992, Gaussian, Inc.),
 the Gaussian 90(TM) system (copyright 1990, Gaussian, Inc.),
 the Gaussian 88(TM) system (copyright 1988, Gaussian, Inc.),
 the Gaussian 86(TM) system (copyright 1986, Carnegie Mellon
 University), and the Gaussian 82(TM) system (copyright 1983,
 Carnegie Mellon University). Gaussian is a federally registered
 trademark of Gaussian, Inc.
  
 This software contains proprietary and confidential information,
 including trade secrets, belonging to Gaussian, Inc.
  
 This software is provided under written license and may be
 used, copied, transmitted, or stored only in accord with that
 written license.
  
 The following legend is applicable only to US Government
 contracts under FAR:
  
                    RESTRICTED RIGHTS LEGEND
  
 Use, reproduction and disclosure by the US Government is
 subject to restrictions as set forth in subparagraphs (a)
 and (c) of the Commercial Computer Software - Restricted
 Rights clause in FAR 52.227-19.
  
 Gaussian, Inc.
 340 Quinnipiac St., Bldg. 40, Wallingford CT 06492
  
  
 ---------------------------------------------------------------
 Warning -- This program may not be used in any manner that
 competes with the business of Gaussian, Inc. or will provide
 assistance to any competitor of Gaussian, Inc.  The licensee
 of this program is prohibited from giving any competitor of
 Gaussian, Inc. access to this program.  By using this program,
 the user acknowledges that Gaussian, Inc. is engaged in the
 business of creating and licensing software in the field of
 computational chemistry and represents and warrants to the
 licensee that it is not a competitor of Gaussian, Inc. and that
 it will not use this program in any manner prohibited above.
 ---------------------------------------------------------------
  

 Cite this work as:
 Gaussian 16, Revision C.01,
 M. J. Frisch, G. W. Trucks, H. B. Schlegel, G. E. Scuseria, 
 M. A. Robb, J. R. Cheeseman, G. Scalmani, V. Barone, 
 G. A. Petersson, H. Nakatsuji, X. Li, M. Caricato, A. V. Marenich, 
 J. Bloino, B. G. Janesko, R. Gomperts, B. Mennucci, H. P. Hratchian, 
 J. V. Ortiz, A. F. Izmaylov, J. L. Sonnenberg, D. Williams-Young, 
 F. Ding, F. Lipparini, F. Egidi, J. Goings, B. Peng, A. Petrone, 
 T. Henderson, D. Ranasinghe, V. G. Zakrzewski, J. Gao, N. Rega, 
 G. Zheng, W. Liang, M. Hada, M. Ehara, K. Toyota, R. Fukuda, 
 J. Hasegawa, M. Ishida, T. Nakajima, Y. Honda, O. Kitao, H. Nakai, 
 T. Vreven, K. Throssell, J. A. Montgomery, Jr., J. E. Peralta, 
 F. Ogliaro, M. J. Bearpark, J. J. Heyd, E. N. Brothers, K. N. Kudin, 
 V. N. Staroverov, T. A. Keith, R. Kobayashi, J. Normand, 
 K. Raghavachari, A. P. Rendell, J. C. Burant, S. S. Iyengar, 
 J. Tomasi, M. Cossi, J. M. Millam, M. Klene, C. Adamo, R. Cammi, 
 J. W. Ochterski, R. L. Martin, K. Morokuma, O. Farkas, 
 J. B. Foresman, and D. J. Fox, Gaussian, Inc., Wallingford CT, 2019.
 
 ******************************************
 Gaussian 16:  ES64L-G16RevC.01  3-Jul-2019
                19-May-2026 
 ******************************************
 %chk=19NT_md_min_distance_cutoff6.chk
 %nprocshared=64
 Will use up to   64 processors via shared memory.
 %mem=200GB
 --------------------------
 # wb97xd/6-31g(d) prop=efg
 --------------------------
 1/38=1,172=1/1;
 2/12=2,17=6,18=5,40=1/2;
 3/5=1,6=6,7=1,11=2,25=1,30=1,74=-58/1,2,3;
 4//1;
 5/5=2,38=5/2;
 6/7=2,8=2,9=2,10=2,14=1,28=1/1,2;
 99/5=1,9=1/99;
 ----------------------------
 19NT_md_min_distance_cutoff6
 ----------------------------
 Symbolic Z-matrix:
 Charge = -1 Multiplicity = 1
 H                     46.81159   33.63767   30.89117 
 C                     46.354    34.588    30.601 
 H                     45.84272   34.42906   29.65115 
 C                     45.3515   35.0231   31.67438 
 H                     44.60209   34.2319   31.76927 
 H                     45.84146   35.11823   32.64649 
 C                     44.66802   36.30921   31.30126 
 C                     43.76564   36.33137   30.2435 
 H                     43.54071   35.41562   29.71625 
 C                     43.14407   37.50113   29.86092 
 H                     42.44438   37.51395   29.03954 
 C                     43.4173   38.68567   30.53821 
 O                     42.8115   39.82548   30.12316 
 H                     43.064    40.5868   30.72771 
 C                     44.30715   38.67431   31.60515 
 H                     44.51047   39.59059   32.13884 
 C                     44.9226   37.49391   31.97699 
 H                     45.60215   37.50223   32.81742 
 C                     47.51453   35.55149   30.29988 
 O                     48.02222   35.57454   29.19157 
 N                     47.96625   36.31644   31.31344 
 H                     47.47338   36.31134   32.1904 
 C                     49.06     37.273    31.205 
 H                     48.65137   38.28857   31.16547 
 C                     50.05503   37.15529   32.36309 
 H                     50.50254   36.15516   32.32286 
 C                     51.16524   38.18626   32.16581 
 H                     51.89397   38.11841   32.9698 
 H                     50.75627   39.19281   32.15479 
 H                     51.67884   38.01573   31.22224 
 C                     49.39191   37.29965   33.74275 
 H                     48.74713   36.43699   33.92772 
 H                     50.18079   37.26446   34.4977 
 C                     48.58116   38.57478   33.94519 
 H                     48.14132   38.56674   34.93923 
 H                     47.77141   38.65671   33.22512 
 H                     49.20442   39.45943   33.85711 
 H                     49.55674   37.06398   30.25504 
 H                     48.19603   38.17923   26.47054 
 C                     48.063    39.251    26.62 
 H                     47.31759   39.62903   25.92276 
 C                     47.61339   39.51883   28.06765 
 H                     48.47127   39.3445   28.72735 
 C                     47.15921   40.96705   28.22667 
 H                     47.9153   41.65162   27.85144 
 H                     46.24268   41.13146   27.6637 
 H                     46.96915   41.19422   29.2733 
 C                     46.49877   38.55698   28.46925 
 H                     46.19339   38.73859   29.4974 
 H                     46.83504   37.52665   28.39308 
 H                     45.62866   38.68606   27.8304 
 C                     49.38216   39.99016   26.34777 
 O                     49.41305   41.10039   25.84863 
 N                     50.51658   39.35845   26.74938 
 H                     50.45705   38.404    27.06932 
 C                     51.864    39.888    26.503 
 H                     51.78896   40.97571   26.59425 
 C                     52.91133   39.32814   27.45248 
 H                     52.68609   39.5798   28.48847 
 H                     52.99232   38.24706   27.337 
 C                     54.22371   39.99445   27.00539 
 O                     54.52892   41.09512   27.48629 
 O                     54.84941   39.40861   26.08496 
 H                     52.15457   39.64905   25.47062 
 H                     43.28509   34.41417   24.50544 
 C                     42.526    34.831    25.164 
 H                     42.72218   34.48215   26.1758 
 C                     42.54484   36.35589   25.1189 
 H                     42.37595   36.67504   24.0833 
 C                     41.42099   36.91454   25.98717 
 H                     41.54586   36.58506   27.01652 
 H                     40.45519   36.56011   25.63334 
 H                     41.40901   38.00078   25.96501 
 C                     43.91671   36.87214   25.56416 
 H                     44.02839   36.72441   26.64051 
 H                     44.69077   36.28016   25.06988 
 C                     44.13904   38.33981   25.22612 
 H                     45.15524   38.62976   25.47926 
 H                     43.99134   38.51074   24.16138 
 H                     43.44957   38.97667   25.77374 
 H                     41.55592   34.44837   24.85318 
 H                     37.85889   32.96647   28.07047 
 C                     36.813    32.932    28.368 
 H                     36.77039   32.77117   29.44273 
 C                     36.1162   34.24231   28.00209 
 H                     36.1594   34.38914   26.92083 
 H                     35.06696   34.19199   28.29968 
 C                     36.8018   35.37448   28.7089 
 C                     37.85562   36.05117   28.11351 
 H                     38.14378   35.80744   27.10018 
 C                     38.54662   37.03206   28.7973 
 H                     39.36551   37.55085   28.32186 
 C                     38.19333   37.35481   30.10237 
 O                     38.85779   38.30393   30.80846 
 H                     39.42824   38.80408   30.20129 
 C                     37.13647   36.68054   30.70617 
 H                     36.85616   36.93642   31.71504 
 C                     36.454    35.70372   30.01219 
 H                     35.63325   35.18871   30.49052 
 H                     36.33791   32.08781   27.87138 
 H                     33.33597   40.9658   31.25155 
 C                     34.276    41.437    31.542 
 H                     34.68831   40.91929   32.40709 
 C                     35.26116   41.40353   30.36774 
 H                     34.78155   41.88918   29.51099 
 C                     36.52432   42.18539   30.72111 
 H                     37.28372   42.06307   29.95004 
 H                     36.29839   43.24493   30.80845 
 H                     36.92478   41.84669   31.67368 
 C                     35.60287   39.9632   29.9937 
 H                     34.70456   39.39834   29.75321 
 H                     36.26409   39.93765   29.12909 
 H                     36.10655   39.4648   30.81859 
 C                     33.97799   42.90252   31.90762 
 O                     33.45292   43.66517   31.11205 
 N                     34.3684   43.27833   33.13964 
 H                     34.78125   42.59479   33.76518 
 C                     34.188    44.613    33.699 
 H                     33.5148   45.15596   33.02633 
 C                     33.6163   44.5447   35.1152 
 H                     34.29366   43.95888   35.73917 
 H                     33.57885   45.55775   35.52288 
 C                     32.2346   43.91477   35.1632 
 H                     32.24717   42.93456   34.68067 
 H                     31.4874   44.53547   34.66833 
 C                     31.74299   43.65256   36.64239 
 O                     32.64657   43.50862   37.48294 
 O                     30.52618   43.59774   36.79299 
 C                     35.57695   45.29696   33.71781 
 O                     36.3542   45.12198   34.64747 
 N                     35.88074   46.04445   32.64419 
 H                     35.21563   46.14479   31.89071 
 C                     37.164    46.712    32.465 
 H                     37.66225   46.67403   33.43434 
 C                     38.0299   45.99892   31.41906 
 H                     37.59321   46.10862   30.42504 
 H                     38.10167   44.93384   31.65532 
 C                     39.46382   46.57845   31.42095 
 O                     39.80112   47.23592   32.41702 
 O                     40.19753   46.32198   30.44332 
 C                     36.97772   48.1527   31.97745 
 O                     36.44345   48.36961   30.89856 
 N                     37.50994   49.13981   32.71471 
 C                     37.40553   50.51349   32.24775 
 H                     38.22423   50.71572   31.54642 
 H                     36.45735   50.64967   31.72438 
 C                     37.53334   51.35669   33.51012 
 H                     37.94261   52.34589   33.31084 
 H                     36.5571   51.45489   33.98382 
 C                     38.44608   50.50234   34.38474 
 H                     38.38438   50.7515   35.44278 
 H                     39.48226   50.6076   34.0653 
 C                     37.95     49.082    34.098 
 H                     38.73068   48.33543   34.24594 
 C                     36.71095   48.79338   34.99043 
 O                     35.61547   49.24229   34.70254 
 N                     36.94483   48.07339   36.09698 
 H                     37.86866   47.68973   36.26165 
 C                     35.909    47.832    37.091 
 H                     34.95614   47.73551   36.56343 
 C                     36.18171   46.58972   37.93655 
 H                     37.21048   46.62124   38.30704 
 H                     36.06035   45.69939   37.32055 
 C                     35.22126   46.58131   39.09365 
 C                     34.12052   45.73778   39.11833 
 H                     33.95331   45.02873   38.3225 
 C                     33.20699   45.80482   40.15657 
 H                     32.34944   45.15069   40.14556 
 C                     33.37975   46.71537   41.18365 
 H                     32.66136   46.77394   41.99039 
 C                     34.47702   47.56231   41.1672 
 H                     34.61471   48.28706   41.96028 
 C                     35.38943   47.49341   40.13013 
 H                     36.24303   48.15744   40.12286 
 H                     35.83661   48.71286   37.7442 
 H                     36.95498   43.99853   22.13413 
 C                     37.317    44.529    23.018 
 H                     37.07825   45.58607   22.91417 
 C                     36.65701   43.96556   24.28963 
 H                     36.66346   42.87309   24.26704 
 H                     35.61518   44.29044   24.31143 
 C                     37.37721   44.44931   25.52216 
 C                     37.21163   45.75382   25.97028 
 H                     36.51889   46.40647   25.45703 
 C                     37.9046   46.21064   27.07741 
 H                     37.75235   47.21953   27.43073 
 C                     38.78054   45.37307   27.74996 
 H                     39.31883   45.72672   28.61819 
 C                     38.941    44.06932   27.31348 
 H                     39.60605   43.39835   27.83838 
 C                     38.24359   43.61098   26.20979 
 H                     38.36696   42.58399   25.89487 
 C                     38.84502   44.40127   23.08679 
 O                     39.56987   45.38902   23.00764 
 N                     39.34071   43.15648   23.1963 
 H                     38.69191   42.39961   23.34379 
 C                     40.763    42.802    23.272 
 H                     41.22436   43.37183   24.08511 
 C                     40.94373   41.30296   23.499 
 H                     40.24508   40.75281   22.8648 
 H                     41.95649   41.03593   23.18921 
 C                     40.76371   40.92044   24.94348 
 C                     39.58352   40.36942   25.42417 
 H                     38.75834   40.1862   24.74889 
 C                     39.44607   40.02102   26.75536 
 H                     38.52405   39.59851   27.12273 
 C                     40.51199   40.19853   27.63363 
 O                     40.38212   39.80507   28.92217 
 H                     41.24828   39.88245   29.38393 
 C                     41.69634   40.75598   27.16079 
 H                     42.52699   40.8784   27.8394 
 C                     41.8091   41.12367   25.83586 
 H                     42.73214   41.55897   25.48108 
 H                     41.23262   43.10826   22.32963 
 H                     40.48442   46.26962   20.31457 
 C                     40.928    47.267    20.313 
 H                     41.21337   47.52546   19.29589 
 C                     39.94637   48.27826   20.9184 
 H                     40.04737   49.24085   20.41706 
 H                     40.2007   48.43661   21.96819 
 C                     38.48802   47.8104   20.84334 
 H                     38.04676   48.05907   19.87904 
 H                     38.44144   46.73015   20.98819 
 C                     37.68032   48.47438   21.95157 
 O                     36.88547   49.3683   21.76456 
 N                     37.96146   47.97152   23.17202 
 H                     38.59202   47.19034   23.29192 
 H                     37.50619   48.35608   23.98312 
 C                     42.22448   47.18899   21.15735 
 O                     43.32623   47.39124   20.66895 
 N                     42.07259   46.84739   22.46202 
 H                     41.15162   46.53454   22.75115 
 C                     43.019    47.115    23.555 
 H                     42.61419   46.64581   24.45332 
 H                     43.092    48.19328   23.73096 
 C                     44.46706   46.61706   23.39448 
 O                     45.37096   47.20025   23.95992 
 N                     44.664    45.48574   22.68675 
 H                     43.87976   45.05546   22.22122 
 C                     45.983    44.912    22.455 
 H                     46.67297   45.41787   23.13378 
 C                     45.9881   43.40368   22.70124 
 H                     45.3584   42.92296   21.94642 
 H                     47.0094   43.04802   22.55863 
 C                     45.49536   43.00062   24.09542 
 H                     44.4611   43.34748   24.21363 
 C                     45.52379   41.47899   24.20964 
 H                     45.13062   41.16224   25.17197 
 H                     44.92976   41.01256   23.42632 
 H                     46.54797   41.12393   24.12386 
 C                     46.34603   43.61307   25.20336 
 H                     47.38532   43.31518   25.08915 
 H                     46.27555   44.6976   25.19967 
 H                     46.00143   43.25736   26.17147 
 C                     46.48959   45.17183   21.00863 
 O                     47.62434   44.83634   20.69524 
 N                     45.62267   45.70357   20.12619 
 H                     44.81889   46.23752   20.45102 
 C                     45.882    45.789    18.692 
 H                     46.41915   44.88457   18.39021 
 H                     44.92666   45.85608   18.17588 
 C                     46.73505   47.01104   18.23516 
 O                     46.34419   47.74113   17.34891 
 N                     47.9297   47.16052   18.84901 
 H                     48.19601   46.46882   19.54041 
 C                     48.878    48.229    18.53 
 H                     49.08014   48.82594   19.41956 
 H                     48.41816   48.85025   17.76462 
 H                     49.8081   47.80388   18.15103 
 H                     52.39578   47.09702   20.8972 
 C                     53.245    47.177    21.576 
 H                     53.84677   46.27196   21.47591 
 C                     54.07207   48.42432   21.26024 
 H                     54.19452   48.51465   20.18074 
 H                     53.50522   49.29351   21.59965 
 C                     55.44735   48.40169   21.94459 
 H                     56.17265   47.94152   21.27298 
 H                     55.37997   47.75711   22.82089 
 C                     55.94743   49.79209   22.37809 
 H                     55.16616   50.53931   22.23446 
 H                     56.79819   50.09548   21.76927 
 C                     56.36414   49.81787   23.84563 
 H                     56.88085   50.75131   24.07612 
 H                     57.04412   48.9868   24.04846 
 N                     55.17159   49.7179   24.71133 
 H                     55.3981   49.33083   25.62656 
 H                     54.4531   49.08794   24.27758 
 H                     54.72037   50.73219   24.90838 
 C                     52.71539   47.23556   23.02792 
 O                     53.22308   47.99894   23.8523 
 N                     51.67393   46.45482   23.3432 
 H                     51.35303   45.77142   22.67088 
 C                     51.26     46.169    24.731 
 H                     51.50778   47.05017   25.32944 
 C                     49.77094   45.84324   24.83952 
 H                     49.55239   44.98005   24.20196 
 C                     49.43779   45.49379   26.28853 
 H                     49.91543   44.56414   26.58678 
 H                     49.76264   46.28703   26.95864 
 H                     48.36493   45.37366   26.40108 
 C                     48.94956   47.04341   24.37304 
 H                     49.16356   47.91014   24.99432 
 H                     49.1749   47.29459   23.33918 
 H                     47.88519   46.8389   24.44843 
 C                     52.19126   45.00562   25.1677 
 O                     52.51301   44.13456   24.35901 
 N                     52.7024   45.0851   26.39286 
 H                     52.41103   45.84377   27.00449 
 C                     53.485    44.06     27.077 
 H                     53.44986   43.133    26.50835 
 C                     54.92999   44.50495   27.35202 
 H                     55.52342   43.60105   27.49109 
 H                     54.96134   45.05936   28.29241 
 C                     55.53406   45.40247   26.27023 
 H                     56.52805   45.70594   26.60836 
 H                     54.91928   46.29828   26.16491 
 C                     55.64783   44.73693   24.89266 
 H                     54.66297   44.59822   24.45523 
 H                     56.22479   45.38564   24.22273 
 N                     56.31856   43.45887   24.9616 
 H                     57.23556   43.48995   25.38349 
 C                     55.74122   42.24091   24.92395 
 N                     54.50273   42.07258   24.46803 
 H                     53.82033   42.82465   24.36766 
 H                     54.13989   41.13393   24.52795 
 N                     56.45672   41.16715   25.20277 
 H                     57.36742   41.29225   25.61276 
 H                     55.87132   40.2962   25.54811 
 C                     52.76667   43.88652   28.44758 
 O                     52.18197   44.85474   28.92732 
 N                     52.84333   42.69074   29.00809 
 H                     53.41148   41.97509   28.53408 
 C                     52.152    42.334    30.246 
 H                     52.00278   43.23544   30.84275 
 C                     50.80927   41.67828   29.94074 
 H                     50.29857   41.44101   30.86872 
 H                     50.93963   40.76259   29.36931 
 H                     50.18551   42.35391   29.36032 
 H                     52.79539   41.64844   30.79996 
 H                     45.40193   38.45536   40.51164 
 C                     46.435    38.561    40.187 
 H                     47.08514   38.25881   41.00361 
 C                     46.70246   37.70228   38.95464 
 H                     46.53851   36.65026   39.19722 
 H                     47.74405   37.81162   38.64547 
 C                     45.79575   38.08315   37.79403 
 H                     45.98532   39.10806   37.46821 
 H                     44.74776   37.97514   38.07523 
 S                     46.08301   36.96995   36.36603 
 C                     44.44252   37.02073   35.59037 
 H                     43.68318   36.78957   36.33091 
 H                     44.26938   37.99548   35.14294 
 H                     44.42872   36.25701   34.82031 
 H                     46.6222   39.61071   39.96966 
 H                     49.25115   43.08468   37.49702 
 C                     50.213    42.685    37.162 
 H                     50.67299   42.1768   38.01113 
 C                     50.00327   41.69774   36.00643 
 H                     50.94265   41.5651   35.46345 
 H                     49.73658   40.72896   36.44046 
 C                     48.90921   42.07991   35.0415 
 C                     49.15965   42.15158   33.67497 
 H                     50.16662   42.00738   33.30668 
 C                     48.13432   42.42082   32.78269 
 H                     48.34033   42.45421   31.72301 
 C                     46.8502   42.64529   33.24604 
 H                     46.04968   42.86144   32.55412 
 C                     46.59288   42.59477   34.60634 
 H                     45.59485   42.78072   34.97074 
 C                     47.61192   42.30138   35.49397 
 H                     47.4001   42.2676   36.55145 
 C                     51.10024   43.87644   36.84075 
 O                     51.93805   44.28472   37.62528 
 N                     50.84878   44.43476   35.63935 
 H                     50.14297   43.98431   35.0729 
 C                     51.54     45.542    34.998 
 H                     51.11393   46.49662   35.33483 
 C                     53.05423   45.51854   35.24815 
 H                     53.21272   45.33049   36.30958 
 H                     53.45871   44.67777   34.67809 
 C                     53.72529   46.8276   34.81964 
 H                     53.14377   47.31103   34.03191 
 H                     53.76948   47.51507   35.6658 
 C                     55.12722   46.60461   34.26585 
 H                     55.58378   47.56615   34.01991 
 H                     55.06718   46.00658   33.34658 
 N                     55.98265   45.94315   35.23196 
 H                     55.49526   45.37617   35.90885 
 C                     57.2404   45.55077   34.9168 
 N                     57.84125   45.98845   33.86929 
 H                     57.4471   47.04263   32.80271 
 H                     58.78717   45.64401   33.76469 
 N                     57.80235   44.65409   35.79961 
 H                     57.37361   44.53943   36.70285 
 H                     58.80356   44.55505   35.7846 
 C                     51.33758   45.32602   33.48555 
 O                     51.63525   44.26426   32.97075 
 N                     50.80603   46.35051   32.80008 
 H                     50.68353   47.25072   33.24475 
 C                     50.84     46.417    31.354 
 H                     51.30443   45.50522   30.97352 
 C                     49.44813   46.59515   30.71462 
 H                     49.6145   46.92536   29.68343 
 C                     48.71177   45.26198   30.69409 
 H                     48.57735   44.89013   31.707 
 H                     49.2782   44.53113   30.12373 
 H                     47.73504   45.38023   30.2321 
 C                     48.63421   47.65746   31.44621 
 H                     48.34369   47.30548   32.43304 
 H                     47.73133   47.88795   30.88609 
 H                     49.211    48.57158   31.55277 
 C                     51.7224   47.63917   31.00105 
 O                     51.7906   48.59733   31.7612 
 N                     52.39092   47.58154   29.83806 
 H                     52.34829   46.72146   29.29669 
 C                     53.236    48.657    29.347 
 H                     53.0286   49.53266   29.96865 
 C                     54.72675   48.29092   29.43155 
 H                     55.29809   48.91551   28.74054 
 H                     54.85006   47.24916   29.12837 
 C                     55.26231   48.45408   30.84813 
 H                     54.45546   48.28384   31.5662 
 H                     55.65476   49.45408   31.03083 
 C                     56.33192   47.43082   31.21013 
 O                     56.48227   46.38856   30.61838 
 O                     57.01707   47.82063   32.25728 
 C                     52.9112   48.94974   27.86674 
 O                     52.77203   48.03642   27.07289 
 N                     52.93157   50.2555   27.46979 
 H                     52.86386   50.96585   28.1831 
 C                     52.401    50.618    26.143 
 H                     52.79615   49.83573   25.47909 
 C                     50.86642   50.42482   26.08874 
 H                     50.68819   49.34724   26.08631 
 H                     50.49699   50.80967   25.13669 
 C                     50.05399   51.01417   27.23695 
 H                     50.42519   51.98174   27.56612 
 H                     49.01064   51.11447   26.93781 
 S                     50.08868   49.89152   28.69706 
 C                     50.4929   51.07639   30.0104 
 H                     51.3355   51.68876   29.70187 
 H                     49.62871   51.70092   30.21891 
 H                     50.76319   50.49511   30.88694 
 C                     52.91522   51.9466   25.58719 
 O                     54.12737   52.02248   25.2293 
 N                     52.01835   52.92339   25.37623 
 H                     51.06283   52.77291   25.69668 
 C                     52.113    54.245    24.763 
 H                     53.06781   54.71369   25.01646 
 C                     51.92891   54.18023   23.22866 
 H                     50.91646   53.81011   23.03475 
 C                     52.07382   55.56967   22.61321 
 H                     53.05302   55.98817   22.83926 
 H                     51.97476   55.50517   21.53251 
 H                     51.3054   56.24455   22.98015 
 C                     52.93191   53.21661   22.5982 
 H                     53.94666   53.48395   22.88329 
 H                     52.74127   52.19672   22.92058 
 H                     52.84952   53.25375   21.51451 
 C                     50.894    54.98499   25.38485 
 O                     49.91919   54.3308   25.70666 
 N                     50.94767   56.32116   25.50918 
 H                     51.80873   56.80817   25.31665 
 C                     49.863    57.09     26.119 
 H                     49.00536   56.41986   26.17188 
 C                     50.2352   57.57957   27.52342 
 H                     50.75927   56.76652   28.03195 
 H                     50.90965   58.43641   27.46064 
 C                     49.01611   57.94413   28.30363 
 C                     48.65738   59.17379   28.7718 
 H                     49.16895   60.11276   28.67342 
 N                     47.47405   59.09164   29.45373 
 H                     47.00943   59.8573   29.91017 
 C                     47.04426   57.79581   29.44346 
 C                     45.91792   57.21406   30.01289 
 H                     45.20577   57.80661   30.56848 
 C                     45.74408   55.85827   29.83987 
 H                     44.88366   55.36877   30.27053 
 C                     46.65992   55.09933   29.10538 
 H                     46.48026   54.04471   28.97239 
 C                     47.77637   55.66845   28.53809 
 H                     48.45512   55.06624   27.95225 
 C                     47.98968   57.03655   28.71471 
 H                     49.61949   57.93392   25.46915 
 H                     54.17284   55.06657   29.0214 
 C                     53.834    54.416    29.825 
 H                     54.39577   54.65326   30.72585 
 C                     52.35228   54.60557   30.07231 
 H                     51.98758   53.93504   30.84986 
 H                     52.12434   55.63644   30.34265 
 S                     51.45318   54.21613   28.5195 
 H                     50.22359   54.36442   29.00786 
 H                     54.04876   53.38675   29.54457 
 H                     50.72324   50.68218   33.69752 
 C                     49.755    50.767    34.187 
 H                     49.85668   51.44399   35.03185 
 C                     48.70059   51.25714   33.20203 
 H                     48.76966   50.65482   32.2954 
 H                     48.90714   52.29517   32.92641 
 C                     47.26387   51.14846   33.7204 
 H                     47.10541   50.12578   34.07622 
 C                     46.99549   52.10783   34.87533 
 H                     47.66995   51.92181   35.70756 
 H                     47.11713   53.13866   34.54986 
 H                     45.97535   51.97864   35.22669 
 C                     46.28562   51.41444   32.57873 
 H                     46.45613   50.71692   31.76215 
 H                     46.41062   52.42768   32.19937 
 H                     45.25908   51.30134   32.91705 
 H                     49.48172   49.78508   34.56751 
 H                     47.2683   46.77767   37.46054 
 C                     46.253    46.438    37.253 
 H                     45.53599   47.17203   37.62035 
 C                     46.07641   46.21815   35.74299 
 H                     46.75411   45.41085   35.44049 
 C                     44.64449   45.80802   35.41067 
 H                     44.52661   45.71027   34.33379 
 H                     44.38829   44.85428   35.8635 
 H                     43.94155   46.55848   35.76549 
 C                     46.44932   47.48652   34.97894 
 H                     46.36028   47.31914   33.90773 
 H                     47.47284   47.78564   35.20082 
 H                     45.78087   48.30071   35.25 
 C                     46.05921   45.10014   37.98331 
 O                     46.91781   44.23109   37.94971 
 N                     44.89193   44.92688   38.64361 
 H                     44.20716   45.67476   38.67119 
 C                     44.549    43.701    39.371 
 H                     45.39813   43.02292   39.23449 
 C                     44.32924   43.97845   40.86813 
 H                     43.52061   44.71099   40.95152 
 C                     43.90237   42.68958   41.56755 
 H                     43.73824   42.86723   42.62648 
 H                     42.97381   42.31435   41.14466 
 H                     44.67035   41.92457   41.46079 
 C                     45.59721   44.56997   41.491 
 H                     46.00213   45.32507   40.81475 
 H                     46.34873   43.78371   41.59444 
 C                     45.34151   45.21909   42.84576 
 H                     44.59165   46.00147   42.75335 
 H                     46.2576   45.66441   43.22772 
 H                     44.99045   44.49174   43.57342 
 C                     43.26825   43.1176   38.75068 
 O                     42.19263   43.67012   38.90063 
 N                     43.42024   41.97031   38.07404 
 H                     44.34749   41.59326   37.95235 
 C                     42.317    41.201    37.522 
 H                     41.46491   41.87076   37.37346 
 C                     42.68966   40.49249   36.23351 
 H                     43.6028   39.90487   36.37423 
 H                     41.88947   39.80964   35.9485 
 C                     42.93794   41.42987   35.06657 
 O                     43.31123   42.56986   35.16602 
 O                     42.73946   40.80432   33.92313 
 H                     42.94531   41.38009   33.1294 
 H                     42.01421   40.44792   38.26231 
 H                     38.54657   37.0666   38.14561 
 C                     38.331    36.071    37.764 
 H                     37.45344   36.1299   37.12376 
 C                     39.52437   35.51909   36.98901 
 H                     39.29577   34.51506   36.62562 
 H                     40.3898   35.44045   37.65061 
 C                     39.88472   36.40041   35.80273 
 H                     40.17842   37.39875   36.13099 
 H                     39.04833   36.47993   35.10756 
 S                     41.29388   35.68274   34.87803 
 C                     41.37768   36.85288   33.49346 
 H                     41.6389   37.84151   33.86075 
 H                     42.15448   36.49691   32.82441 
 H                     40.42412   36.87085   32.97286 
 H                     38.09803   35.42488   38.60591 
 H                     35.55037   38.62712   34.62995 
 C                     36.5      39.053    34.953 
 H                     36.86764   38.50039   35.82049 
 C                     37.5137   38.96997   33.80755 
 H                     37.66513   37.91738   33.55162 
 H                     37.10441   39.46748   32.92677 
 C                     38.87169   39.58206   34.13431 
 H                     39.12568   39.4391   35.18478 
 H                     39.64446   39.13551   33.5126 
 S                     38.97489   41.38124   33.82672 
 C                     39.72982   41.34086   32.17179 
 H                     39.11125   40.7487   31.50616 
 H                     40.73008   40.92275   32.24538 
 H                     39.77892   42.3669   31.82109 
 C                     36.24612   40.52109   35.32432 
 O                     35.41184   41.16756   34.71651 
 N                     36.98393   41.0217   36.32804 
 H                     37.68927   40.45722   36.77882 
 C                     36.95     42.397    36.82 
 H                     36.3086   42.97559   36.15245 
 C                     36.43594   42.42569   38.2599 
 H                     37.15277   41.9132   38.9061 
 H                     36.35905   43.46323   38.58886 
 C                     35.0723   41.74554   38.3654 
 H                     34.35729   42.22897   37.70228 
 H                     35.16365   40.69427   38.08216 
 C                     34.55488   41.8004   39.79561 
 O                     35.15638   41.30156   40.73316 
 N                     33.37482   42.41879   39.90949 
 H                     32.93486   42.85552   39.0935 
 H                     32.97495   42.54164   40.82482 
 C                     38.41098   42.9039   36.76122 
 O                     39.29997   42.22412   37.25782 
 N                     38.62563   44.0816   36.15863 
 H                     37.86659   44.54764   35.66682 
 C                     39.963    44.652    35.992 
 H                     40.66197   43.92324   36.41571 
 C                     40.29129   44.91343   34.53269 
 H                     41.36103   45.07982   34.42594 
 H                     39.76336   45.78852   34.1643 
 H                     40.00973   44.04894   33.93745 
 C                     40.02244   45.95228   36.82688 
 O                     39.55608   47.01124   36.42497 
 N                     40.59069   45.84697   38.03653 
 H                     41.04028   44.981    38.31819 
 C                     40.667    46.954    38.984 
 H                     39.74101   47.53543   38.89888 
 C                     40.84033   46.40867   40.40448 
 H                     41.25533   47.1975   41.03576 
 H                     41.55012   45.58232   40.36568 
 C                     39.52004   45.94668   40.95433 
 C                     39.03484   44.66884   40.69486 
 H                     39.63223   43.97753   40.11956 
 C                     37.79643   44.27488   41.16156 
 H                     37.40586   43.28801   40.97447 
 C                     37.01017   45.16187   41.89156 
 O                     35.79621   44.74422   42.32703 
 H                     35.27016   45.50065   42.61613 
 C                     37.49756   46.43301   42.17194 
 H                     36.90078   47.12087   42.75549 
 C                     38.73819   46.81715   41.70022 
 H                     39.10346   47.81214   41.91776 
 C                     41.86078   47.87575   38.60344 
 O                     43.01464   47.53671   38.82502 
 N                     41.54451   49.07004   38.06243 
 H                     40.60569   49.26023   37.73262 
 C                     42.518    50.112    37.763 
 H                     43.14195   50.2394   38.66004 
 C                     43.44759   49.73041   36.58542 
 H                     44.27601   50.44223   36.54117 
 H                     43.85776   48.7465   36.81992 
 C                     42.736    49.6898   35.27492 
 C                     42.00948   48.63698   34.78254 
 H                     41.81029   47.68709   35.23883 
 N                     41.49801   48.93257   33.56394 
 H                     40.88564   48.30469   33.0198 
 C                     41.85784   50.19851   33.2381 
 C                     41.56471   50.9478   32.10332 
 H                     40.954    50.53029   31.31695 
 C                     42.06517   52.22843   32.02864 
 H                     41.85205   52.83934   31.16314 
 C                     42.84749   52.75808   33.05971 
 H                     43.22469   53.76756   32.96664 
 C                     43.14635   52.02242   34.1846 
 H                     43.75589   52.45301   34.96651 
 C                     42.6515   50.72293   34.29647 
 C                     41.78699   51.43063   37.45303 
 O                     40.59185   51.48893   37.27468 
 N                     42.60692   52.5127   37.41111 
 H                     43.59144   52.36796   37.56705 
 C                     42.195    53.859    37.015 
 H                     41.36934   53.76167   36.3071 
 C                     41.72541   54.6743   38.22602 
 H                     40.85664   54.17904   38.67608 
 H                     41.43435   55.67472   37.90073 
 O                     42.74708   54.85874   39.17974 
 H                     42.97697   53.99545   39.54146 
 H                     43.04102   54.35113   36.5352 
 H                     48.66604   54.98149   36.06761 
 C                     49.23     55.22     35.169 
 H                     49.36009   54.30419   34.59895 
 C                     48.5005   56.28103   34.35385 
 H                     48.36773   57.16699   34.97928 
 H                     47.50645   55.91802   34.08341 
 C                     49.24642   56.68618   33.07723 
 H                     50.30323   56.83958   33.32805 
 C                     49.15069   55.60439   32.00404 
 H                     48.1098   55.40686   31.75659 
 H                     49.65107   55.93207   31.09468 
 H                     49.61176   54.67815   32.33861 
 C                     48.68437   57.99789   32.5336 
 H                     47.63058   57.87835   32.29294 
 H                     48.78558   58.7947   33.26752 
 H                     49.21152   58.29282   31.6285 
 H                     50.21292   55.57951   35.46798 
 C                     43.52473   42.94505   31.00758 
 O                     43.37098   41.86458   31.62416 
 C                     43.30238   44.20817   31.58548 
 C                     43.4324   45.3787   30.89047 
 C                     44.03709   45.40513   29.51383 
 C                     44.79016   44.10708   29.22164 
 C                     43.91173   42.91275   29.55306 
 C                     42.86195   46.61472   31.40554 
 C                     43.59247   47.90211   31.0426 
 C                     44.07515   47.90531   29.59451 
 C                     44.9279   46.65109   29.34694 
 C                     44.92581   49.13725   29.32086 
 C                     45.53905   49.17079   27.91264 
 C                     46.43321   47.9483   27.74082 
 C                     45.62762   46.67031   27.98127 
 C                     44.28294   50.51702   29.45266 
 C                     45.29342   51.4421   28.75175 
 C                     46.28547   50.51946   27.99552 
 C                     44.49821   49.22146   26.78728 
 O                     46.74721   51.04618   26.77686 
 H                     42.92594   44.22454   32.59868 
 H                     43.20149   45.48785   28.80477 
 H                     45.70019   44.0665   29.82622 
 H                     45.07706   44.06243   28.17118 
 H                     42.98972   42.96018   28.96416 
 H                     44.41913   41.97281   29.32429 
 H                     42.6866   46.56132   32.48002 
 H                     41.82398   46.63081   30.9417 
 H                     44.45532   48.02094   31.70672 
 H                     42.93401   48.75168   31.21243 
 H                     43.20102   47.88969   28.93851 
 H                     45.70379   46.61839   30.12225 
 H                     45.76789   49.10224   30.02546 
 H                     47.26261   47.99818   28.45046 
 H                     46.85582   47.92533   26.73513 
 H                     44.88677   46.55702   27.18851 
 H                     46.31554   45.82591   27.91622 
 H                     44.12554   50.8048   30.49002 
 H                     43.31513   50.53112   28.95301 
 H                     45.82539   52.04979   29.4818 
 H                     44.80771   52.11944   28.04758 
 H                     47.19266   50.38483   28.59397 
 H                     44.02867   50.20027   26.72025 
 H                     44.97006   48.98423   25.83452 
 H                     43.71123   48.49363   26.9544 
 H                     46.01349   51.03931   26.15163 
 
 Stoichiometry    C246H397N38O46S5(1-)
 Framework group  C1[X(C246H397N38O46S5)]
 Deg. of freedom  2190
 Full point group                 C1      NOp   1
 Largest Abelian subgroup         C1      NOp   1
 Largest concise Abelian subgroup C1      NOp   1
                         Standard orientation:                         
 ---------------------------------------------------------------------
 Center     Atomic      Atomic             Coordinates (Angstroms)
 Number     Number       Type             X           Y           Z
 ---------------------------------------------------------------------
      1          1           0        2.458812   -9.888408   -6.077185
      2          6           0        2.337502   -9.239945   -5.204544
      3          1           0        2.306065   -9.880033   -4.322402
      4          6           0        3.523190   -8.274274   -5.114707
      5          1           0        4.435258   -8.873885   -5.042561
      6          1           0        3.605010   -7.675297   -6.025008
      7          6           0        3.419422   -7.384936   -3.906921
      8          6           0        3.576159   -7.924659   -2.635011
      9          1           0        3.800889   -8.975830   -2.526654
     10          6           0        3.459529   -7.139238   -1.507813
     11          1           0        3.581961   -7.562058   -0.522614
     12          6           0        3.180314   -5.781789   -1.633846
     13          8           0        3.045077   -5.039417   -0.507340
     14          1           0        2.892241   -4.076444   -0.748509
     15          6           0        3.034354   -5.227789   -2.899589
     16          1           0        2.829701   -4.172298   -2.998593
     17          6           0        3.153984   -6.027866   -4.020278
     18          1           0        3.049763   -5.576602   -4.996846
     19          6           0        0.937117   -8.614861   -5.322876
     20          8           0       -0.038144   -9.206110   -4.891670
     21          7           0        0.836808   -7.430308   -5.957918
     22          1           0        1.675396   -6.949842   -6.237088
     23          6           0       -0.409855   -6.705268   -6.165753
     24          1           0       -0.463587   -5.866822   -5.462862
     25          6           0       -0.554432   -6.192929   -7.601626
     26          1           0       -0.577526   -7.062391   -8.269193
     27          6           0       -1.885548   -5.453931   -7.729628
     28          1           0       -2.020509   -5.087275   -8.744222
     29          1           0       -1.921236   -4.607578   -7.049228
     30          1           0       -2.713392   -6.118381   -7.492227
     31          6           0        0.623707   -5.311075   -8.046980
     32          1           0        1.524889   -5.923629   -8.129378
     33          1           0        0.405028   -4.944672   -9.052685
     34          6           0        0.919113   -4.116269   -7.147307
     35          1           0        1.777257   -3.575637   -7.538407
     36          1           0        1.155796   -4.424119   -6.132363
     37          1           0        0.076901   -3.432264   -7.106797
     38          1           0       -1.214349   -7.405216   -5.929685
     39          1           0       -2.479250   -8.499336   -2.105988
     40          6           0       -2.671638   -7.515961   -1.676228
     41          1           0       -2.576868   -7.563939   -0.592989
     42          6           0       -1.669028   -6.497289   -2.247772
     43          1           0       -1.942254   -6.300633   -3.290947
     44          6           0       -1.735846   -5.186990   -1.468304
     45          1           0       -2.759946   -4.829211   -1.402721
     46          1           0       -1.363503   -5.338430   -0.457149
     47          1           0       -1.128519   -4.424723   -1.951285
     48          6           0       -0.253616   -7.067258   -2.224002
     49          1           0        0.450520   -6.351249   -2.642153
     50          1           0       -0.197416   -7.979629   -2.811268
     51          1           0        0.055662   -7.290368   -1.205946
     52          6           0       -4.103413   -7.066346   -2.005623
     53          8           0       -4.770790   -6.405665   -1.230506
     54          7           0       -4.566645   -7.398699   -3.239409
     55          1           0       -4.023113   -8.025352   -3.812769
     56          6           0       -5.934276   -7.111538   -3.690847
     57          1           0       -6.207581   -6.147400   -3.251733
     58          6           0       -6.072922   -7.084608   -5.204756
     59          1           0       -5.452011   -6.306937   -5.648645
     60          1           0       -5.819043   -8.056438   -5.628688
     61          6           0       -7.563788   -6.790965   -5.444095
     62          8           0       -7.939705   -5.611116   -5.494399
     63          8           0       -8.322947   -7.793537   -5.464650
     64          1           0       -6.608990   -7.877730   -3.284585
     65          1           0        1.674550  -12.640952    0.677454
     66          6           0        2.462730  -11.920092    0.884358
     67          1           0        2.950001  -11.667184   -0.055067
     68          6           0        1.893463  -10.664560    1.537993
     69          1           0        1.382919  -10.955809    2.463942
     70          6           0        3.025939   -9.704361    1.890890
     71          1           0        3.571398   -9.424397    0.992101
     72          1           0        3.725088  -10.177030    2.577443
     73          1           0        2.645463   -8.804131    2.365639
     74          6           0        0.866455  -10.013525    0.606224
     75          1           0        1.383051   -9.555213   -0.239888
     76          1           0        0.211922  -10.792530    0.207882
     77          6           0        0.007128   -8.968643    1.304474
     78          1           0       -0.760776   -8.605655    0.626700
     79          1           0       -0.483351   -9.400535    2.174876
     80          1           0        0.607084   -8.124496    1.633586
     81          1           0        3.197150  -12.393016    1.533229
     82          1           0        8.264645  -11.825636    1.071050
     83          6           0        9.249581  -11.674651    1.507734
     84          1           0        9.890906  -11.225506    0.752945
     85          6           0        9.151528  -10.760837    2.729074
     86          1           0        8.511264  -11.225295    3.481997
     87          1           0       10.144648  -10.623075    3.161199
     88          6           0        8.582354   -9.438604    2.305813
     89          6           0        7.214474   -9.212194    2.329727
     90          1           0        6.553091   -9.972015    2.722839
     91          6           0        6.681954   -8.029564    1.855384
     92          1           0        5.614913   -7.866483    1.879531
     93          6           0        7.516684   -7.043874    1.341731
     94          8           0        7.027504   -5.875343    0.855794
     95          1           0        6.094124   -5.795055    1.113819
     96          6           0        8.890423   -7.263630    1.315121
     97          1           0        9.539126   -6.496163    0.925173
     98          6           0        9.409602   -8.448522    1.792644
     99          1           0       10.478277   -8.606828    1.769302
    100          1           0        9.661265  -12.644702    1.780721
    101          1           0       10.657526   -3.302607    5.095641
    102          6           0        9.905349   -2.765841    4.515849
    103          1           0       10.206641   -2.738161    3.469491
    104          6           0        8.541505   -3.448751    4.671155
    105          1           0        8.308445   -3.497640    5.740352
    106          6           0        7.460010   -2.622674    3.978540
    107          1           0        6.511197   -3.157335    3.968928
    108          1           0        7.312841   -1.681659    4.502110
    109          1           0        7.753141   -2.396993    2.955985
    110          6           0        8.583350   -4.867166    4.107627
    111          1           0        9.361104   -5.456192    4.589317
    112          1           0        7.629775   -5.369631    4.261395
    113          1           0        8.785621   -4.846706    3.039358
    114          6           0        9.816136   -1.331612    5.068354
    115          8           0        9.553612   -1.113910    6.240510
    116          7           0       10.011685   -0.354120    4.164032
    117          1           0       10.247324   -0.595722    3.207439
    118          6           0        9.975318    1.073350    4.460315
    119          1           0        9.968616    1.175917    5.551152
    120          6           0       11.174637    1.794878    3.845363
    121          1           0       11.168003    1.629809    2.766449
    122          1           0       11.060355    2.867437    4.019765
    123          6           0       12.502251    1.316338    4.408073
    124          1           0       12.586165    0.231159    4.312526
    125          1           0       12.617786    1.582005    5.459043
    126          6           0       13.738682    1.907834    3.620783
    127          8           0       13.511897    2.227376    2.441730
    128          8           0       14.789287    1.964982    4.252652
    129          6           0        8.657497    1.633389    3.871218
    130          8           0        8.586349    1.977469    2.698373
    131          7           0        7.607518    1.672823    4.707690
    132          1           0        7.707208    1.359745    5.662787
    133          6           0        6.276619    2.113460    4.308895
    134          1           0        6.396890    2.599035    3.339836
    135          6           0        5.308988    0.931687    4.169734
    136          1           0        5.102774    0.491861    5.146897
    137          1           0        5.745148    0.164404    3.524441
    138          6           0        3.983609    1.394063    3.520471
    139          8           0        4.001496    2.480896    2.923260
    140          8           0        2.995611    0.635087    3.608164
    141          6           0        5.670341    3.061729    5.348723
    142          8           0        5.459706    2.667566    6.487476
    143          7           0        5.287626    4.281405    4.939927
    144          6           0        4.651072    5.183137    5.887361
    145          1           0        3.578476    4.957797    5.929842
    146          1           0        5.078400    5.030049    6.880064
    147          6           0        4.905263    6.574160    5.320509
    148          1           0        4.137322    7.289340    5.611220
    149          1           0        5.879816    6.930955    5.652189
    150          6           0        4.936329    6.315553    3.817127
    151          1           0        5.441197    7.100219    3.256101
    152          1           0        3.923092    6.212280    3.430519
    153          6           0        5.673001    4.976059    3.723610
    154          1           0        5.396920    4.415783    2.829969
    155          6           0        7.203443    5.240002    3.778880
    156          8           0        7.758225    5.479921    4.836774
    157          7           0        7.839121    5.232064    2.598469
    158          1           0        7.332933    4.983064    1.756130
    159          6           0        9.245920    5.587241    2.479853
    160          1           0        9.755832    5.236601    3.381303
    161          6           0        9.899120    4.998397    1.231179
    162          1           0        9.271655    5.207889    0.359951
    163          1           0        9.988206    3.918579    1.344857
    164          6           0       11.249366    5.636397    1.054503
    165          6           0       12.419119    4.960910    1.369436
    166          1           0       12.388643    3.936483    1.706589
    167          6           0       13.645246    5.596905    1.274084
    168          1           0       14.539976    5.056793    1.540794
    169          6           0       13.719899    6.915965    0.863765
    170          1           0       14.677089    7.415734    0.797674
    171          6           0       12.555910    7.598839    0.546940
    172          1           0       12.602649    8.635480    0.236462
    173          6           0       11.331900    6.961937    0.641435
    174          1           0       10.427438    7.500512    0.393444
    175          1           0        9.331172    6.682713    2.457694
    176          1           0        2.081150   -5.769466   10.173287
    177          6           0        2.066294   -4.850611    9.582374
    178          1           0        1.831874   -4.015224   10.239903
    179          6           0        3.433133   -4.621749    8.911955
    180          1           0        3.797138   -5.551410    8.467779
    181          1           0        4.148094   -4.318792    9.679082
    182          6           0        3.332724   -3.559162    7.847699
    183          6           0        3.238129   -2.217663    8.196138
    184          1           0        3.290388   -1.936107    9.238865
    185          6           0        3.104058   -1.245270    7.220890
    186          1           0        3.053335   -0.203690    7.500897
    187          6           0        3.054367   -1.598845    5.881624
    188          1           0        2.954875   -0.840046    5.118095
    189          6           0        3.158696   -2.933286    5.528932
    190          1           0        3.140514   -3.223422    4.488016
    191          6           0        3.298538   -3.905013    6.504020
    192          1           0        3.397931   -4.940440    6.208871
    193          6           0        0.947908   -4.947408    8.535605
    194          8           0       -0.005309   -4.173790    8.550127
    195          7           0        1.049171   -5.941856    7.636703
    196          1           0        1.897396   -6.485868    7.625784
    197          6           0        0.096254   -6.223432    6.556441
    198          1           0       -0.046551   -5.311696    5.967329
    199          6           0        0.593426   -7.362024    5.668899
    200          1           0        1.007314   -8.155945    6.294504
    201          1           0       -0.266775   -7.772245    5.135288
    202          6           0        1.609607   -6.895883    4.661266
    203          6           0        2.973900   -7.076809    4.844320
    204          1           0        3.338063   -7.582703    5.728594
    205          6           0        3.886645   -6.644261    3.899780
    206          1           0        4.945514   -6.783351    4.051544
    207          6           0        3.439916   -6.037193    2.728898
    208          8           0        4.340519   -5.665769    1.789225
    209          1           0        3.871454   -5.365369    0.977331
    210          6           0        2.074155   -5.846674    2.540725
    211          1           0        1.728599   -5.390121    1.625512
    212          6           0        1.177271   -6.259198    3.504459
    213          1           0        0.119604   -6.102550    3.349032
    214          1           0       -0.862623   -6.486131    7.018984
    215          1           0       -2.412179   -4.912478   10.139393
    216          6           0       -3.108354   -4.083708   10.280847
    217          1           0       -3.944469   -4.423878   10.887435
    218          6           0       -2.380087   -2.888684   10.908792
    219          1           0       -3.052128   -2.354397   11.580372
    220          1           0       -2.095634   -2.190313   10.119374
    221          6           0       -1.112027   -3.296592   11.668357
    222          1           0       -1.347816   -3.603520   12.686500
    223          1           0       -0.624716   -4.124153   11.150902
    224          6           0       -0.140943   -2.123257   11.709562
    225          8           0        0.074835   -1.460226   12.699343
    226          7           0        0.440514   -1.887885   10.514605
    227          1           0        0.279808   -2.489803    9.718308
    228          1           0        1.080018   -1.116660   10.418232
    229          6           0       -3.664256   -3.713659    8.883021
    230          8           0       -4.849469   -3.828374    8.608433
    231          7           0       -2.756176   -3.289550    7.967899
    232          1           0       -1.776515   -3.379054    8.216693
    233          6           0       -3.030322   -2.488168    6.766005
    234          1           0       -2.088118   -2.387320    6.224643
    235          1           0       -3.372928   -1.488572    7.053061
    236          6           0       -4.074766   -3.018883    5.766968
    237          8           0       -4.696423   -2.238175    5.073506
    238          7           0       -4.198416   -4.356450    5.643749
    239          1           0       -3.672558   -4.956645    6.260306
    240          6           0       -5.151811   -4.987212    4.740524
    241          1           0       -5.520578   -4.206122    4.072229
    242          6           0       -4.503807   -6.120067    3.945267
    243          1           0       -4.230114   -6.922376    4.637197
    244          1           0       -5.253974   -6.514083    3.258342
    245          6           0       -3.261069   -5.692961    3.156493
    246          1           0       -2.510204   -5.319351    3.864014
    247          6           0       -2.694515   -6.909065    2.428959
    248          1           0       -1.781688   -6.645681    1.901348
    249          1           0       -2.468406   -7.715480    3.123644
    250          1           0       -3.417972   -7.271786    1.702712
    251          6           0       -3.572618   -4.592234    2.147720
    252          1           0       -4.342440   -4.922654    1.454822
    253          1           0       -3.897131   -3.682394    2.645769
    254          1           0       -2.681329   -4.359283    1.569925
    255          6           0       -6.382301   -5.563154    5.495715
    256          8           0       -7.316156   -6.034951    4.860307
    257          7           0       -6.340899   -5.580469    6.841449
    258          1           0       -5.729861   -4.941658    7.346647
    259          6           0       -7.310477   -6.291879    7.669262
    260          1           0       -7.571514   -7.224559    7.159782
    261          1           0       -6.849734   -6.498928    8.632798
    262          6           0       -8.639802   -5.528836    7.952871
    263          8           0       -9.042781   -5.390058    9.088471
    264          7           0       -9.313475   -5.091113    6.866180
    265          1           0       -8.926262   -5.301238    5.953311
    266          6           0      -10.593211   -4.383853    6.935124
    267          1           0      -10.502934   -3.403287    6.467308
    268          1           0      -10.842116   -4.269634    7.987843
    269          1           0      -11.369034   -4.962899    6.432897
    270          1           0      -11.741748   -4.111155    2.708274
    271          6           0      -12.086982   -3.690451    1.763727
    272          1           0      -12.294910   -4.515285    1.079872
    273          6           0      -13.332298   -2.829137    1.980231
    274          1           0      -14.014113   -3.341468    2.659290
    275          1           0      -13.016371   -1.905099    2.468458
    276          6           0      -14.051445   -2.500833    0.662933
    277          1           0      -14.804721   -3.264568    0.467599
    278          1           0      -13.324034   -2.565141   -0.146187
    279          6           0      -14.705457   -1.106876    0.643964
    280          1           0      -14.426931   -0.543698    1.535374
    281          1           0      -15.790936   -1.197619    0.647228
    282          6           0      -14.287643   -0.295881   -0.579026
    283          1           0      -14.899712    0.603891   -0.663791
    284          1           0      -14.427120   -0.895535   -1.481881
    285          7           0      -12.873114    0.111129   -0.456228
    286          1           0      -12.445905    0.278995   -1.366222
    287          1           0      -12.312929   -0.640626    0.015225
    288          1           0      -12.771521    1.077673    0.115328
    289          6           0      -10.946533   -2.843756    1.151778
    290          8           0      -11.187321   -1.764204    0.607089
    291          7           0       -9.695921   -3.309812    1.262982
    292          1           0       -9.551391   -4.242951    1.624087
    293          6           0       -8.559112   -2.789118    0.478408
    294          1           0       -8.753157   -1.728747    0.294164
    295          6           0       -7.222217   -2.977518    1.194231
    296          1           0       -7.077445   -4.044537    1.393835
    297          6           0       -6.095150   -2.478446    0.292356
    298          1           0       -5.992613   -3.105501   -0.589470
    299          1           0       -6.282176   -1.454346   -0.023961
    300          1           0       -5.154203   -2.499319    0.833009
    301          6           0       -7.235841   -2.208585    2.513795
    302          1           0       -7.386636   -1.147342    2.329311
    303          1           0       -8.030947   -2.562904    3.165717
    304          1           0       -6.291228   -2.320638    3.038719
    305          6           0       -8.659755   -3.545258   -0.874194
    306          8           0       -9.023810   -4.721303   -0.899303
    307          7           0       -8.459158   -2.822424   -1.972314
    308          1           0       -8.180954   -1.848256   -1.881926
    309          6           0       -8.364352   -3.325511   -3.339520
    310          1           0       -8.305794   -4.411933   -3.326072
    311          6           0       -9.511271   -2.828052   -4.233227
    312          1           0       -9.590255   -3.521946   -5.070368
    313          1           0       -9.246157   -1.852594   -4.646608
    314          6           0      -10.853195   -2.672367   -3.515086
    315          1           0      -11.564756   -2.251493   -4.229917
    316          1           0      -10.737328   -1.966561   -2.690493
    317          6           0      -11.417880   -3.981008   -2.947500
    318          1           0      -10.821881   -4.317607   -2.103685
    319          1           0      -12.440350   -3.810170   -2.589903
    320          7           0      -11.463115   -5.028499   -3.941882
    321          1           0      -11.976388   -4.789517   -4.778118
    322          6           0      -10.605333   -6.061414   -4.066208
    323          7           0       -9.809613   -6.428455   -3.065126
    324          1           0       -9.588098   -5.839466   -2.261771
    325          1           0       -9.167256   -7.177660   -3.270957
    326          7           0      -10.649088   -6.824214   -5.142708
    327          1           0      -11.196288   -6.512642   -5.927960
    328          1           0       -9.709229   -7.357712   -5.371962
    329          6           0       -7.036829   -2.714482   -3.877027
    330          8           0       -6.669353   -1.630803   -3.429729
    331          7           0       -6.392463   -3.415571   -4.795298
    332          1           0       -6.832022   -4.283782   -5.130901
    333          6           0       -5.090387   -3.030913   -5.337742
    334          1           0       -4.981049   -1.947448   -5.266155
    335          6           0       -3.965745   -3.723556   -4.575189
    336          1           0       -3.006075   -3.410019   -4.973940
    337          1           0       -4.042323   -4.804906   -4.657844
    338          1           0       -4.010073   -3.460387   -3.521049
    339          1           0       -5.071572   -3.317132   -6.390615
    340          1           0        6.825602   -0.595870   -9.588665
    341          6           0        5.811999   -0.701588   -9.969731
    342          1           0        5.826807   -0.523453  -11.041602
    343          6           0        5.268665   -2.096314   -9.674468
    344          1           0        5.888363   -2.845048  -10.172306
    345          1           0        4.255033   -2.190682  -10.069560
    346          6           0        5.251004   -2.390617   -8.182068
    347          1           0        4.577914   -1.710282   -7.656098
    348          1           0        6.254823   -2.310201   -7.763860
    349         16           0        4.680353   -4.105570   -7.875111
    350          6           0        5.550773   -4.455133   -6.320890
    351          1           0        6.607026   -4.233841   -6.438299
    352          1           0        5.117143   -3.876547   -5.510018
    353          1           0        5.432283   -5.514180   -6.118793
    354          1           0        5.187835    0.058505   -9.504049
    355          1           0        0.646148    1.586785   -8.044176
    356          6           0       -0.140862    1.052393   -8.584709
    357          1           0        0.111537    1.078557   -9.646073
    358          6           0       -0.225778   -0.400176   -8.098029
    359          1           0       -1.195007   -0.822844   -8.375166
    360          1           0        0.543787   -0.973281   -8.624680
    361          6           0        0.003489   -0.583860   -6.618910
    362          6           0       -0.919569   -1.269929   -5.836278
    363          1           0       -1.848072   -1.608662   -6.276245
    364          6           0       -0.667544   -1.510211   -4.495117
    365          1           0       -1.384867   -2.061066   -3.904792
    366          6           0        0.499126   -1.047594   -3.912967
    367          1           0        0.696250   -1.227642   -2.866527
    368          6           0        1.417018   -0.347027   -4.678374
    369          1           0        2.321964    0.024496   -4.223973
    370          6           0        1.175949   -0.129444   -6.022602
    371          1           0        1.896837    0.419999   -6.608030
    372          6           0       -1.416707    1.862757   -8.425161
    373          8           0       -1.813094    2.616702   -9.296102
    374          7           0       -2.030979    1.683763   -7.238170
    375          1           0       -1.611423    1.010471   -6.611598
    376          6           0       -3.288146    2.253108   -6.779394
    377          1           0       -3.113700    3.244994   -6.341193
    378          6           0       -4.338920    2.342547   -7.894686
    379          1           0       -3.852645    2.758089   -8.776724
    380          1           0       -4.655863    1.320026   -8.117077
    381          6           0       -5.541312    3.197250   -7.480761
    382          1           0       -5.658244    3.185754   -6.395133
    383          1           0       -5.381002    4.233047   -7.784044
    384          6           0       -6.847318    2.684706   -8.075275
    385          1           0       -7.666664    3.350502   -7.794416
    386          1           0       -7.063899    1.684593   -7.676311
    387          7           0       -6.791548    2.638730   -9.523528
    388          1           0       -5.864217    2.538710   -9.907258
    389          6           0       -7.802942    2.116043  -10.257769
    390          7           0       -8.964501    1.904302   -9.752000
    391          1           0       -9.570427    2.217359   -8.359490
    392          1           0       -9.639948    1.541667  -10.412759
    393          7           0       -7.477842    1.832518  -11.566622
    394          1           0       -6.637881    2.234135  -11.948689
    395          1           0       -8.236144    1.723588  -12.218969
    396          6           0       -3.830798    1.254272   -5.738731
    397          8           0       -3.958605    0.078068   -6.023658
    398          7           0       -4.122931    1.751703   -4.526626
    399          1           0       -4.112211    2.751102   -4.371061
    400          6           0       -4.915295    1.021906   -3.559008
    401          1           0       -5.157158    0.041625   -3.974149
    402          6           0       -4.214236    0.848886   -2.196500
    403          1           0       -4.989264    0.563424   -1.476846
    404          6           0       -3.182820   -0.268671   -2.281559
    405          1           0       -2.427720   -0.028650   -3.026233
    406          1           0       -3.665209   -1.201915   -2.558408
    407          1           0       -2.695339   -0.402985   -1.319414
    408          6           0       -3.570475    2.152331   -1.735177
    409          1           0       -2.713286    2.397623   -2.357410
    410          1           0       -3.230397    2.057675   -0.706857
    411          1           0       -4.286570    2.967543   -1.782905
    412          6           0       -6.214331    1.840946   -3.362594
    413          8           0       -6.211338    3.056910   -3.510828
    414          7           0       -7.315668    1.149441   -3.028429
    415          1           0       -7.260547    0.134146   -3.000580
    416          6           0       -8.605242    1.770980   -2.778210
    417          1           0       -8.428508    2.847338   -2.697817
    418          6           0       -9.603255    1.483263   -3.911647
    419          1           0      -10.623747    1.622507   -3.546604
    420          1           0       -9.492644    0.441814   -4.220719
    421          6           0       -9.352672    2.379843   -5.117253
    422          1           0       -8.291925    2.640922   -5.164885
    423          1           0       -9.915044    3.311748   -5.065450
    424          6           0       -9.648987    1.698365   -6.447648
    425          8           0       -9.707587    0.499367   -6.581935
    426          8           0       -9.784382    2.582069   -7.406114
    427          6           0       -9.212651    1.218913   -1.471064
    428          8           0       -9.192931    0.023548   -1.237729
    429          7           0       -9.887439    2.099420   -0.675853
    430          1           0       -9.715579    3.084280   -0.811907
    431          6           0      -10.278999    1.692859    0.686007
    432          1           0      -10.657199    0.668663    0.556155
    433          6           0       -9.036189    1.528211    1.593486
    434          1           0       -8.522204    0.625258    1.256671
    435          1           0       -9.369465    1.341010    2.615675
    436          6           0       -8.014861    2.660676    1.579957
    437          1           0       -8.474056    3.645248    1.534097
    438          1           0       -7.385266    2.600869    2.467736
    439         16           0       -6.901130    2.510099    0.120376
    440          6           0       -6.956570    4.210807   -0.509456
    441          1           0       -7.989103    4.542653   -0.571946
    442          1           0       -6.389448    4.863588    0.148256
    443          1           0       -6.515881    4.193831   -1.501808
    444          6           0      -11.430576    2.497612    1.289963
    445          8           0      -12.591312    2.345707    0.807509
    446          7           0      -11.175961    3.219021    2.393477
    447          1           0      -10.209696    3.283457    2.710536
    448          6           0      -12.025578    3.994129    3.292938
    449          1           0      -12.807465    4.508447    2.727518
    450          6           0      -12.646525    3.110044    4.399780
    451          1           0      -11.823217    2.711835    5.002459
    452          6           0      -13.560326    3.940010    5.297804
    453          1           0      -14.357934    4.396874    4.714549
    454          1           0      -14.015111    3.300915    6.050553
    455          1           0      -13.004496    4.719382    5.811809
    456          6           0      -13.421017    1.941052    3.795084
    457          1           0      -14.163510    2.302411    3.087560
    458          1           0      -12.750611    1.263076    3.274162
    459          1           0      -13.925820    1.385383    4.581828
    460          6           0      -11.008213    4.974485    3.944163
    461          8           0       -9.850602    4.617065    4.062413
    462          7           0      -11.452033    6.162929    4.384974
    463          1           0      -12.395800    6.452175    4.181713
    464          6           0      -10.556225    7.158623    4.972891
    465          1           0       -9.623038    6.639756    5.190529
    466          6           0      -10.297517    8.325542    4.012697
    467          1           0      -10.164045    7.909721    3.010909
    468          1           0      -11.157186    8.999022    3.993056
    469          6           0       -9.067941    9.076652    4.402318
    470          6           0       -8.974696   10.369582    4.826061
    471          1           0       -9.753542   11.095566    4.965344
    472          7           0       -7.667989   10.691635    5.072691
    473          1           0       -7.336049   11.590472    5.376587
    474          6           0       -6.884712    9.605598    4.806195
    475          6           0       -5.506377    9.446091    4.884076
    476          1           0       -4.869106   10.257767    5.203507
    477          6           0       -4.986488    8.216858    4.541994
    478          1           0       -3.920070    8.054793    4.585565
    479          6           0       -5.817367    7.164777    4.145771
    480          1           0       -5.377303    6.210243    3.906182
    481          6           0       -7.182447    7.315012    4.067348
    482          1           0       -7.805694    6.479401    3.784716
    483          6           0       -7.735727    8.555841    4.387687
    484          1           0      -10.993027    7.518717    5.907421
    485          1           0      -11.740431    6.959429   -0.472375
    486          6           0      -10.835391    6.855400   -1.067281
    487          1           0      -10.895995    7.533769   -1.915548
    488          6           0       -9.612540    7.174907   -0.233527
    489          1           0       -8.693651    7.040436   -0.803398
    490          1           0       -9.654180    8.191233    0.157732
    491         16           0       -9.569163    6.020777    1.193837
    492          1           0       -8.405870    6.432043    1.693811
    493          1           0      -10.789164    5.835191   -1.442979
    494          1           0       -5.106509    5.877375   -3.266835
    495          6           0       -4.125462    6.231357   -2.956174
[...]
 923953208\N,0,54.5027318289,42.0725759041,24.4680346603\H,0,53.8203349
 362,42.8246491897,24.3676586495\H,0,54.1398863854,41.1339331162,24.527
 9471828\N,0,56.4567193322,41.1671521579,25.2027675583\H,0,57.367424665
 3,41.2922455373,25.6127590384\H,0,55.8713157911,40.2962039915,25.54811
 32063\C,0,52.766667658,43.8865218107,28.4475806861\O,0,52.1819697285,4
 4.8547428877,28.927322155\N,0,52.8433297477,42.6907365204,29.008093979
 \H,0,53.4114753748,41.9750860222,28.5340834414\C,0,52.1520000031,42.33
 399999,30.2459999937\H,0,52.0027837143,43.2354446511,30.8427481216\C,0
 ,50.80927487,41.6782842537,29.9407360856\H,0,50.298565395,41.441010670
 2,30.8687194658\H,0,50.9396304194,40.7625893943,29.3693129875\H,0,50.1
 85513916,42.3539098126,29.3603170342\H,0,52.79538732,41.6484385051,30.
 799963545\H,0,45.4019323833,38.4553576975,40.5116361861\C,0,46.4349999
 634,38.5609999782,40.1869999851\H,0,47.085139677,38.2588061381,41.0036
 123829\C,0,46.7024602791,37.7022826755,38.9546355473\H,0,46.5385074925
 ,36.6502643611,39.1972204017\H,0,47.7440515019,37.8116208724,38.645466
 3205\C,0,45.7957461823,38.0831472098,37.7940339453\H,0,45.9853199897,3
 9.108060167,37.4682057026\H,0,44.7477561172,37.9751445632,38.075228451
 2\S,0,46.0830105249,36.9699466147,36.3660304735\C,0,44.4425206388,37.0
 207273907,35.5903740931\H,0,43.6831806688,36.789571321,36.3309109488\H
 ,0,44.269384338,37.995477787,35.1429411024\H,0,44.4287166709,36.257006
 1924,34.8203068102\H,0,46.6222012566,39.6107138222,39.9696560071\H,0,4
 9.2511536235,43.0846849331,37.4970220996\C,0,50.2129999998,42.68499999
 4,37.1620000037\H,0,50.6729871291,42.1767982511,38.0111321508\C,0,50.0
 032673416,41.6977394016,36.0064256102\H,0,50.9426502368,41.5651009836,
 35.4634480984\H,0,49.7365754831,40.7289604372,36.4404571657\C,0,48.909
 2120849,42.0799109058,35.0414976275\C,0,49.1596458701,42.1515828977,33
 .674974851\H,0,50.1666203217,42.0073842034,33.3066825855\C,0,48.134318
 1063,42.4208208702,32.7826866896\H,0,48.3403307374,42.4542113172,31.72
 30068357\C,0,46.85020461,42.6452912178,33.2460411302\H,0,46.0496843891
 ,42.8614371163,32.5541167217\C,0,46.592882097,42.594768936,34.60633564
 76\H,0,45.5948490522,42.7807217176,34.9707394921\C,0,47.6119208174,42.
 3013766575,35.4939654236\H,0,47.4000996279,42.2675990101,36.551454259\
 C,0,51.1002368579,43.8764431737,36.8407511305\O,0,51.9380466603,44.284
 7166689,37.6252782633\N,0,50.8487805704,44.4347586124,35.6393481043\H,
 0,50.1429655364,43.9843141211,35.0728968089\C,0,51.5400000296,45.54200
 00168,34.9979999773\H,0,51.1139277834,46.496617404,35.3348336563\C,0,5
 3.0542258345,45.5185351964,35.2481454968\H,0,53.2127249082,45.33049404
 86,36.3095826933\H,0,53.4587102561,44.6777664606,34.6780933534\C,0,53.
 7252911348,46.8276004937,34.8196401958\H,0,53.1437666034,47.3110255715
 ,34.031907606\H,0,53.7694773329,47.5150683429,35.6658035858\C,0,55.127
 2151455,46.6046082503,34.2658498724\H,0,55.5837773838,47.5661492653,34
 .0199143294\H,0,55.0671755134,46.0065753243,33.3465795985\N,0,55.98265
 12602,45.9431494869,35.2319567251\H,0,55.4952632406,45.3761654404,35.9
 088454444\C,0,57.2404030872,45.5507668509,34.9167965977\N,0,57.8412500
 11,45.9884488457,33.8692884189\H,0,57.4471026742,47.042629471,32.80271
 22086\H,0,58.7871666559,45.6440110342,33.7646900603\N,0,57.8023512538,
 44.6540900164,35.7996086731\H,0,57.3736137713,44.53943407,36.702849095
 3\H,0,58.8035557787,44.5550473928,35.7846021883\C,0,51.3375818699,45.3
 260240405,33.4855501709\O,0,51.6352493305,44.2642585266,32.9707471611\
 N,0,50.8060301295,46.3505063427,32.8000820232\H,0,50.6835330944,47.250
 7183964,33.2447462278\C,0,50.8399999877,46.4169999828,31.3540000065\H,
 0,51.3044295485,45.5052248581,30.9735227861\C,0,49.4481295826,46.59514
 61967,30.7146176336\H,0,49.6144981304,46.9253618257,29.6834343374\C,0,
 48.7117661132,45.2619789913,30.694087088\H,0,48.5773451157,44.89012777
 63,31.7069952663\H,0,49.2781971214,44.5311270479,30.1237339263\H,0,47.
 7350427847,45.3802293497,30.2321040527\C,0,48.6342111785,47.6574647812
 ,31.4462127322\H,0,48.3436920655,47.3054831035,32.4330374768\H,0,47.73
 13282685,47.8879468319,30.8860920727\H,0,49.2110019014,48.5715750965,3
 1.5527687045\C,0,51.7224010581,47.6391683779,31.0010537571\O,0,51.7905
 999827,48.5973285315,31.7612044365\N,0,52.3909171498,47.5815388952,29.
 8380603756\H,0,52.3482903164,46.7214588958,29.2966879412\C,0,53.236000
 0058,48.6570000116,29.346999999\H,0,53.0285960187,49.5326630504,29.968
 6464427\C,0,54.7267464558,48.2909177272,29.431551924\H,0,55.2980889382
 ,48.9155103375,28.7405372326\H,0,54.85006056,47.2491630386,29.12837497
 56\C,0,55.2623101269,48.4540809966,30.8481264093\H,0,54.4554622303,48.
 2838376021,31.5662002028\H,0,55.6547628356,49.4540778278,31.0308251648
 \C,0,56.3319163729,47.4308186008,31.2101250412\O,0,56.4822731375,46.38
 85649441,30.6183777317\O,0,57.0170738755,47.8206334398,32.257275496\C,
 0,52.9111956122,48.9497422095,27.866744612\O,0,52.7720349706,48.036420
 949,27.0728858096\N,0,52.931566016,50.2554998523,27.4697886708\H,0,52.
 863858516,50.9658514609,28.1830989188\C,0,52.4009999983,50.6179999897,
 26.1429999957\H,0,52.7961472322,49.8357262133,25.4790868326\C,0,50.866
 4187056,50.4248171972,26.0887359034\H,0,50.6881937831,49.3472372701,26
 .086310493\H,0,50.496987585,50.8096657125,25.1366854\C,0,50.0539895587
 ,51.0141652296,27.2369509212\H,0,50.4251887524,51.9817400357,27.566123
 2245\H,0,49.0106424448,51.1144713852,26.9378094835\S,0,50.088679034,49
 .8915218995,28.697059573\C,0,50.4929041507,51.0763903392,30.0103995556
 \H,0,51.3354991983,51.6887596489,29.7018730274\H,0,49.628714746,51.700
 9187713,30.2189077234\H,0,50.7631923528,50.4951127208,30.886937369\C,0
 ,52.9152208886,51.9465969345,25.5871879295\O,0,54.127369763,52.0224825
 74,25.2293031616\N,0,52.0183463971,52.9233851581,25.3762264346\H,0,51.
 0628300794,52.7729061095,25.6966796441\C,0,52.1129999982,54.2450000037
 ,24.7630000197\H,0,53.0678062938,54.713694463,25.0164571274\C,0,51.928
 9059463,54.1802267079,23.2286621139\H,0,50.9164628112,53.8101138034,23
 .0347459373\C,0,52.073816163,55.5696686693,22.6132128179\H,0,53.053024
 8341,55.9881694482,22.8392589615\H,0,51.9747566876,55.5051655151,21.53
 25058112\H,0,51.3053952229,56.2445455796,22.9801453175\C,0,52.93190784
 61,53.2166147844,22.5982044742\H,0,53.946662756,53.4839457098,22.88328
 80162\H,0,52.7412652725,52.1967202943,22.9205808936\H,0,52.8495151048,
 53.2537515357,21.5145108494\C,0,50.8940049087,54.9849865797,25.3848465
 435\O,0,49.9191898737,54.3307952828,25.7066614005\N,0,50.9476738137,56
 .3211568284,25.5091750915\H,0,51.8087334158,56.8081749556,25.316653233
 1\C,0,49.8630000456,57.0899999814,26.1190000955\H,0,49.0053610844,56.4
 19861172,26.1718822955\C,0,50.2352023888,57.5795700528,27.5234174985\H
 ,0,50.7592739597,56.7665239149,28.0319518281\H,0,50.9096517122,58.4364
 076834,27.4606435209\C,0,49.0161095948,57.9441328146,28.3036312787\C,0
 ,48.6573813467,59.1737862707,28.7718046087\H,0,49.1689450846,60.112762
 4295,28.6734228934\N,0,47.4740544721,59.0916430986,29.4537278737\H,0,4
 7.0094288115,59.8572969336,29.9101740108\C,0,47.0442647567,57.79580556
 96,29.4434630935\C,0,45.9179231717,57.2140602425,30.0128860524\H,0,45.
 205765861,57.8066130836,30.5684773649\C,0,45.7440783108,55.858271977,2
 9.8398660717\H,0,44.8836596223,55.3687675035,30.2705330857\C,0,46.6599
 222494,55.0993315158,29.1053816551\H,0,46.4802618404,54.044708966,28.9
 723865644\C,0,47.7763693578,55.66844796,28.5380923045\H,0,48.45512309,
 55.0662443082,27.9522541955\C,0,47.9896801698,57.0365472929,28.7147099
 288\H,0,49.6194909365,57.9339249196,25.4691511308\H,0,54.172844456,55.
 0665703972,29.0213987041\C,0,53.8339999831,54.4160000052,29.8249999905
 \H,0,54.3957673699,54.6532632623,30.7258543661\C,0,52.3522802234,54.60
 55672389,30.0723125862\H,0,51.9875826211,53.9350414611,30.8498625138\H
 ,0,52.1243418325,55.6364392369,30.3426508585\S,0,51.453179421,54.21612
 55096,28.5195023671\H,0,50.223592508,54.3644175245,29.0078558803\H,0,5
 4.0487576112,53.3867524576,29.5445683152\H,0,50.7232355121,50.68218261
 88,33.697520349\C,0,49.7549999981,50.767000135,34.1870000031\H,0,49.85
 66766625,51.4439876114,35.0318493056\C,0,48.7005903405,51.2571418765,3
 3.2020300085\H,0,48.7696643733,50.6548232763,32.2953987351\H,0,48.9071
 438509,52.2951656903,32.9264079054\C,0,47.2638673151,51.1484646552,33.
 7204003841\H,0,47.1054062141,50.1257843436,34.0762229742\C,0,46.995490
 9692,52.1078291292,34.8753273407\H,0,47.6699462015,51.921805133,35.707
 559237\H,0,47.1171261554,53.138662396,34.5498581317\H,0,45.9753520648,
 51.978635125,35.2266906783\C,0,46.285615044,51.4144418033,32.578729577
 9\H,0,46.4561316115,50.7169199672,31.7621505646\H,0,46.41062408,52.427
 680739,32.1993667431\H,0,45.2590838001,51.3013370587,32.9170457657\H,0
 ,49.4817185446,49.7850846607,34.567513632\H,0,47.2682972695,46.7776731
 759,37.4605423767\C,0,46.2530000017,46.4380000029,37.2529999974\H,0,45
 .5359929675,47.1720260212,37.6203461117\C,0,46.0764119615,46.218146074
 8,35.7429949099\H,0,46.7541081835,45.4108514784,35.4404852245\C,0,44.6
 444949451,45.8080210274,35.410671612\H,0,44.5266134852,45.7102664083,3
 4.3337926246\H,0,44.3882948578,44.8542751498,35.8635038213\H,0,43.9415
 479763,46.5584789109,35.7654946518\C,0,46.4493199925,47.4865230859,34.
 9789446839\H,0,46.3602751868,47.3191397949,33.9077276094\H,0,47.472842
 6351,47.7856351635,35.200816956\H,0,45.7808716144,48.3007140491,35.249
 998893\C,0,46.0592092066,45.1001421573,37.9833085385\O,0,46.9178098088
 ,44.2310928089,37.9497147269\N,0,44.8919318299,44.9268793161,38.643608
 3897\H,0,44.2071554106,45.6747591351,38.6711938231\C,0,44.5489999964,4
 3.7009999993,39.3710000025\H,0,45.3981325377,43.0229217757,39.23448976
 6\C,0,44.3292410379,43.9784452244,40.8681257041\H,0,43.5206128942,44.7
 109898431,40.951519307\C,0,43.9023674885,42.689583042,41.5675494706\H,
 0,43.7382382139,42.8672284499,42.6264783863\H,0,42.9738080474,42.31434
 92108,41.1446553188\H,0,44.6703483904,41.9245695066,41.4607938309\C,0,
 45.5972113924,44.5699678322,41.491003701\H,0,46.0021257086,45.32507418
 8,40.8147487461\H,0,46.3487255228,43.7837143919,41.5944379469\C,0,45.3
 415055811,45.219093059,42.8457581482\H,0,44.5916515831,46.0014691381,4
 2.7533478374\H,0,46.2576016583,45.6644059046,43.2277170248\H,0,44.9904
 543464,44.4917441657,43.5734187068\C,0,43.2682491027,43.1176020231,38.
 7506764173\O,0,42.1926337466,43.6701187432,38.9006280011\N,0,43.420242
 3719,41.9703089001,38.0740399848\H,0,44.3474887413,41.5932562298,37.95
 23469975\C,0,42.3170000149,41.2009999993,37.5220000035\H,0,41.46490643
 68,41.8707563648,37.3734581054\C,0,42.6896644833,40.4924872746,36.2335
 096781\H,0,43.6028014512,39.9048698094,36.3742346988\H,0,41.8894675289
 ,39.8096427774,35.9484981787\C,0,42.937940968,41.4298687913,35.0665713
 005\O,0,43.3112277265,42.5698550021,35.1660196127\O,0,42.7394582733,40
 .804324761,33.923131368\H,0,42.9453087538,41.3800857218,33.1293961328\
 H,0,42.0142075139,40.4479150569,38.2623054887\H,0,38.5465735664,37.066
 6022345,38.1456071274\C,0,38.3310000002,36.0709999965,37.7640000028\H,
 0,37.4534369014,36.1298976927,37.1237575917\C,0,39.5243690904,35.51909
 12724,36.9890092385\H,0,39.2957654291,34.5150634342,36.6256161798\H,0,
 40.3898010944,35.4404543225,37.6506081149\C,0,39.8847219682,36.4004073
 351,35.8027331557\H,0,40.1784211006,37.3987496395,36.1309922225\H,0,39
 .048330831,36.479931756,35.1075559225\S,0,41.2938803099,35.6827420914,
 34.8780268438\C,0,41.3776755383,36.8528799645,33.4934552082\H,0,41.638
 9030821,37.8415063237,33.8607466893\H,0,42.1544786244,36.4969080901,32
 .8244054238\H,0,40.4241225017,36.8708492273,32.9728552823\H,0,38.09802
 85726,35.4248776426,38.60591317\H,0,35.550372059,38.6271161693,34.6299
 452098\C,0,36.5000000086,39.0529999986,34.9529999959\H,0,36.8676435397
 ,38.5003923203,35.8204913772\C,0,37.5136962849,38.9699736775,33.807550
 496\H,0,37.6651336774,37.9173844213,33.5516213216\H,0,37.1044125404,39
 .4674846383,32.9267656084\C,0,38.8716927441,39.5820614587,34.134308400
 2\H,0,39.1256842948,39.4391019785,35.1847823898\H,0,39.6444611877,39.1
 35507724,33.5125982084\S,0,38.9748935636,41.381237324,33.8267154258\C,
 0,39.7298226529,41.3408633241,32.1717903357\H,0,39.1112505981,40.74870
 08694,31.5061568097\H,0,40.7300821135,40.9227466492,32.245376146\H,0,3
 9.7789168617,42.3669024363,31.8210895205\C,0,36.2461191569,40.52108775
 7,35.32431696\O,0,35.4118390154,41.1675570152,34.7165113182\N,0,36.983
 9271941,41.021704124,36.3280384099\H,0,37.6892732555,40.4572207253,36.
 7788206667\C,0,36.9499999956,42.3970000024,36.8200000043\H,0,36.308602
 7574,42.9755873518,36.1524500659\C,0,36.4359377927,42.4256863654,38.25
 99012097\H,0,37.1527657303,41.9131987773,38.9060994298\H,0,36.35904717
 88,43.4632347153,38.5888605169\C,0,35.0722972129,41.7455407664,38.3653
 974256\H,0,34.3572939154,42.2289696602,37.7022792355\H,0,35.1636466049
 ,40.6942664705,38.0821636355\C,0,34.5548831029,41.8003979811,39.795611
 7755\O,0,35.156379207,41.3015555613,40.7331608357\N,0,33.3748244046,42
 .4187882173,39.9094876196\H,0,32.93486407,42.8555232367,39.0935045446\
 H,0,32.9749490286,42.5416438591,40.8248186494\C,0,38.4109763827,42.903
 9007805,36.7612157274\O,0,39.2999713258,42.2241215191,37.2578157854\N,
 0,38.6256319615,44.0815951379,36.158631566\H,0,37.8665851376,44.547638
 6303,35.6668226244\C,0,39.9629999994,44.6520000035,35.992000008\H,0,40
 .6619704294,43.9232383316,36.4157133442\C,0,40.2912943041,44.913430663
 6,34.5326888777\H,0,41.3610317091,45.0798198955,34.4259391973\H,0,39.7
 633646213,45.7885244575,34.1642986573\H,0,40.0097276372,44.0489376426,
 33.9374450652\C,0,40.0224372208,45.9522812656,36.8268814677\O,0,39.556
 0830331,47.0112434413,36.4249743934\N,0,40.5906919212,45.846967293,38.
 0365287975\H,0,41.0402798184,44.9809975872,38.3181888586\C,0,40.666999
 9955,46.9539999935,38.9840000005\H,0,39.7410073888,47.5354288944,38.89
 88834035\C,0,40.8403299232,46.4086695062,40.4044766954\H,0,41.25532681
 59,47.1974970028,41.0357649699\H,0,41.5501188729,45.582318695,40.36567
 88417\C,0,39.5200395294,45.9466760723,40.9543262823\C,0,39.0348396207,
 44.6688399431,40.6948633773\H,0,39.6322291362,43.9775311097,40.1195607
 57\C,0,37.796427426,44.2748782522,41.1615649374\H,0,37.4058598301,43.2
 880103173,40.974468344\C,0,37.0101652811,45.1618659163,41.8915589286\O
 ,0,35.7962133199,44.7442233247,42.3270307995\H,0,35.2701595104,45.5006
 470427,42.6161337425\C,0,37.4975599276,46.4330146433,42.1719445821\H,0
 ,36.900776726,47.1208744065,42.7554877283\C,0,38.7381941819,46.8171521
 522,41.700215888\H,0,39.1034627653,47.8121420118,41.9177590103\C,0,41.
 8607778693,47.8757507349,38.6034393409\O,0,43.0146412704,47.5367140998
 ,38.8250238363\N,0,41.5445094199,49.0700367237,38.0624331318\H,0,40.60
 56861974,49.2602302551,37.732623605\C,0,42.5180000083,50.1119999855,37
 .7629999977\H,0,43.1419465603,50.2394003845,38.6600408083\C,0,43.44759
 39315,49.7304051682,36.5854240875\H,0,44.276011134,50.4422313201,36.54
 11721275\H,0,43.8577624172,48.7464959658,36.8199190982\C,0,42.73599814
 7,49.6897984835,35.2749199106\C,0,42.0094846386,48.6369801949,34.78253
 79166\H,0,41.8102901536,47.6870855616,35.2388302466\N,0,41.4980095378,
 48.9325749236,33.5639357864\H,0,40.885635676,48.304694817,33.019795597
 4\C,0,41.8578392759,50.1985118143,33.2380953046\C,0,41.5647062944,50.9
 478034517,32.1033175673\H,0,40.9539987001,50.5302913256,31.3169546999\
 C,0,42.0651735494,52.2284255066,32.0286382134\H,0,41.852048759,52.8393
 355818,31.1631351191\C,0,42.8474894568,52.7580844203,33.0597147215\H,0
 ,43.22469055,53.7675646222,32.9666431555\C,0,43.1463463584,52.02241510
 99,34.1845989155\H,0,43.7558928461,52.4530136008,34.9665119604\C,0,42.
 6515039948,50.7229330052,34.2964745545\C,0,41.786992807,51.4306271413,
 37.4530318993\O,0,40.5918492879,51.4889304643,37.2746818551\N,0,42.606
 9210692,52.5126953929,37.4111137924\H,0,43.5914442936,52.3679564343,37
 .5670517868\C,0,42.1950000889,53.8590006654,37.0150002191\H,0,41.36934
 33824,53.7616714129,36.3071010796\C,0,41.7254079262,54.6742968246,38.2
 260170561\H,0,40.8566436895,54.1790418123,38.676075548\H,0,41.43434611
 17,55.674717592,37.9007331063\O,0,42.7470817423,54.8587353889,39.17973
 60585\H,0,42.9769745057,53.9954534397,39.5414563822\H,0,43.0410192336,
 54.3511305419,36.53520058\H,0,48.6660408885,54.9814861914,36.067608892
 1\C,0,49.2299999813,55.2199997747,35.168999952\H,0,49.3600862569,54.30
 41866823,34.5989490748\C,0,48.5004996689,56.2810274935,34.3538495399\H
 ,0,48.3677340887,57.1669933267,34.9792811585\H,0,47.5064457958,55.9180
 243755,34.0834050862\C,0,49.2464161441,56.686179578,33.0772319944\H,0,
 50.303225044,56.8395840146,33.3280479341\C,0,49.1506944171,55.60438735
 2,32.0040354376\H,0,48.1098040186,55.4068594358,31.7565891749\H,0,49.6
 510659047,55.9320713132,31.0946778088\H,0,49.611763786,54.6781515681,3
 2.3386113805\C,0,48.6843731861,57.9978906015,32.5335989692\H,0,47.6305
 817424,57.8783504641,32.2929439502\H,0,48.7855813451,58.7946971154,33.
 2675218285\H,0,49.2115177062,58.2928231846,31.6285041325\H,0,50.212918
 2111,55.5795084511,35.4679765823\C,0,43.5247326592,42.9450543194,31.00
 75795647\O,0,43.3709791367,41.8645757152,31.6241588629\C,0,43.30237550
 47,44.2081717164,31.5854836864\C,0,43.432401343,45.3787011474,30.89046
 72977\C,0,44.0370889076,45.4051303479,29.5138338395\C,0,44.7901552254,
 44.107079501,29.2216368408\C,0,43.9117313263,42.9127494993,29.55305522
 16\C,0,42.8619453426,46.6147190297,31.405536502\C,0,43.592470314,47.90
 21091936,31.0426042681\C,0,44.0751496989,47.9053071044,29.5945077772\C
 ,0,44.9279027798,46.6510945173,29.3469422062\C,0,44.9258118804,49.1372
 519479,29.3208647662\C,0,45.5390472276,49.1707885452,27.9126350652\C,0
 ,46.4332106444,47.9483018317,27.7408189309\C,0,45.6276243087,46.670314
 618,27.9812699565\C,0,44.2829440176,50.5170233172,29.452660066\C,0,45.
 2934200503,51.4420967255,28.7517548848\C,0,46.2854732689,50.5194635725
 ,27.9955174039\C,0,44.498214082,49.2214644847,26.7872790444\O,0,46.747
 2146993,51.0461779918,26.7768570038\H,0,42.9259401047,44.2245352729,32
 .5986789312\H,0,43.2014864851,45.4878542545,28.8047687704\H,0,45.70018
 513,44.0665038018,29.8262193723\H,0,45.077056469,44.0624273558,28.1711
 76005\H,0,42.9897194062,42.9601839327,28.9641604996\H,0,44.4191340383,
 41.9728130479,29.3242865447\H,0,42.6866035062,46.5613181047,32.4800230
 326\H,0,41.8239767138,46.6308145565,30.9417043465\H,0,44.4553170765,48
 .0209439863,31.7067173341\H,0,42.9340124586,48.7516829416,31.212434520
 3\H,0,43.2010155779,47.8896936909,28.9385091804\H,0,45.7037939953,46.6
 183948724,30.1222532798\H,0,45.7678910504,49.1022373892,30.0254603472\
 H,0,47.2626139956,47.9981833373,28.4504589677\H,0,46.8558169889,47.925
 3273901,26.7351261364\H,0,44.8867699103,46.5570175951,27.1885130563\H,
 0,46.3155415498,45.8259059118,27.9162183169\H,0,44.1255350297,50.80480
 49269,30.4900161536\H,0,43.3151253386,50.5311189017,28.9530141245\H,0,
 45.8253905976,52.0497861631,29.4818025206\H,0,44.8077125217,52.1194397
 789,28.0475802937\H,0,47.1926575696,50.3848341384,28.5939739785\H,0,44
 .0286694592,50.2002726398,26.7202460546\H,0,44.9700563789,48.984230682
 8,25.8345168186\H,0,43.7112335979,48.4936316539,26.9543983505\H,0,46.0
 134851813,51.0393085586,26.1516269584\\Version=ES64L-G16RevC.01\State=
 1-A\HF=-17141.8503307\RMSD=1.016e-09\Dipole=38.9482463,9.499875,-17.25
 83807\Quadrupole=-239.3355185,246.9830199,-7.6475014,138.6943805,131.8
 53016,-13.8679326\PG=C01 [X(C246H397N38O46S5)]\\@
 The archive entry for this job was punched.


 THERE ARE TWO THINGS THAT EVERYBODY THINKS THEY CAN DO BETTER THAN
 ANYONE ELSE - PUNCH THE FIRE, AND EDIT A DAILY PAPER.
 -- UNCLE ESEK, "CENTURY MAGAZINE", 1885
 Job cpu time:       1 days 20 hours 46 minutes 39.7 seconds.
 Elapsed time:       0 days  0 hours 43 minutes  8.6 seconds.
 File lengths (MBytes):  RWF=  18253 Int=      0 D2E=      0 Chk=   1955 Scr=      1
 Normal termination of Gaussian 16 at Tue May 19 08:51:10 2026.
