 Entering Gaussian System, Link 0=g16
 Initial command:
 /cm/shared/apps/spack/cpu/opt/spack/linux-centos8-zen/gcc-8.3.1/gaussian-16.C.01-po5bqktfeugvmjyga3v7eigbecnokxng/g16/l1.exe "/scratch/hklem/job_32857448/Gau-578435.inp" -scrdir="/scratch/hklem/job_32857448/"
 Entering Link 1 = /cm/shared/apps/spack/cpu/opt/spack/linux-centos8-zen/gcc-8.3.1/gaussian-16.C.01-po5bqktfeugvmjyga3v7eigbecnokxng/g16/l1.exe PID=    578436.
  
 Copyright (c) 1988-2019, Gaussian, Inc.  All Rights Reserved.
  
 This is part of the Gaussian(R) 16 program.  It is based on
 the Gaussian(R) 09 system (copyright 2009, Gaussian, Inc.),
 the Gaussian(R) 03 system (copyright 2003, Gaussian, Inc.),
 the Gaussian(R) 98 system (copyright 1998, Gaussian, Inc.),
 the Gaussian(R) 94 system (copyright 1995, Gaussian, Inc.),
 the Gaussian 92(TM) system (copyright 1992, Gaussian, Inc.),
 the Gaussian 90(TM) system (copyright 1990, Gaussian, Inc.),
 the Gaussian 88(TM) system (copyright 1988, Gaussian, Inc.),
 the Gaussian 86(TM) system (copyright 1986, Carnegie Mellon
 University), and the Gaussian 82(TM) system (copyright 1983,
 Carnegie Mellon University). Gaussian is a federally registered
 trademark of Gaussian, Inc.
  
 This software contains proprietary and confidential information,
 including trade secrets, belonging to Gaussian, Inc.
  
 This software is provided under written license and may be
 used, copied, transmitted, or stored only in accord with that
 written license.
  
 The following legend is applicable only to US Government
 contracts under FAR:
  
                    RESTRICTED RIGHTS LEGEND
  
 Use, reproduction and disclosure by the US Government is
 subject to restrictions as set forth in subparagraphs (a)
 and (c) of the Commercial Computer Software - Restricted
 Rights clause in FAR 52.227-19.
  
 Gaussian, Inc.
 340 Quinnipiac St., Bldg. 40, Wallingford CT 06492
  
  
 ---------------------------------------------------------------
 Warning -- This program may not be used in any manner that
 competes with the business of Gaussian, Inc. or will provide
 assistance to any competitor of Gaussian, Inc.  The licensee
 of this program is prohibited from giving any competitor of
 Gaussian, Inc. access to this program.  By using this program,
 the user acknowledges that Gaussian, Inc. is engaged in the
 business of creating and licensing software in the field of
 computational chemistry and represents and warrants to the
 licensee that it is not a competitor of Gaussian, Inc. and that
 it will not use this program in any manner prohibited above.
 ---------------------------------------------------------------
  

 Cite this work as:
 Gaussian 16, Revision C.01,
 M. J. Frisch, G. W. Trucks, H. B. Schlegel, G. E. Scuseria, 
 M. A. Robb, J. R. Cheeseman, G. Scalmani, V. Barone, 
 G. A. Petersson, H. Nakatsuji, X. Li, M. Caricato, A. V. Marenich, 
 J. Bloino, B. G. Janesko, R. Gomperts, B. Mennucci, H. P. Hratchian, 
 J. V. Ortiz, A. F. Izmaylov, J. L. Sonnenberg, D. Williams-Young, 
 F. Ding, F. Lipparini, F. Egidi, J. Goings, B. Peng, A. Petrone, 
 T. Henderson, D. Ranasinghe, V. G. Zakrzewski, J. Gao, N. Rega, 
 G. Zheng, W. Liang, M. Hada, M. Ehara, K. Toyota, R. Fukuda, 
 J. Hasegawa, M. Ishida, T. Nakajima, Y. Honda, O. Kitao, H. Nakai, 
 T. Vreven, K. Throssell, J. A. Montgomery, Jr., J. E. Peralta, 
 F. Ogliaro, M. J. Bearpark, J. J. Heyd, E. N. Brothers, K. N. Kudin, 
 V. N. Staroverov, T. A. Keith, R. Kobayashi, J. Normand, 
 K. Raghavachari, A. P. Rendell, J. C. Burant, S. S. Iyengar, 
 J. Tomasi, M. Cossi, J. M. Millam, M. Klene, C. Adamo, R. Cammi, 
 J. W. Ochterski, R. L. Martin, K. Morokuma, O. Farkas, 
 J. B. Foresman, and D. J. Fox, Gaussian, Inc., Wallingford CT, 2019.
 
 ******************************************
 Gaussian 16:  ES64L-G16RevC.01  3-Jul-2019
                 8-Aug-2024 
 ******************************************
 %nprocshared=24
 Will use up to   24 processors via shared memory.
 %mem=48GB
 --------------------------
 # wb97xd 6-31G(d) prop=efg
 --------------------------
 1/38=1,172=1/1;
 2/12=2,17=6,18=5,40=1/2;
 3/5=1,6=6,7=1,11=2,25=1,30=1,74=-58/1,2,3;
 4//1;
 5/5=2,38=5/2;
 6/7=2,8=2,9=2,10=2,14=1,28=1/1,2;
 99/5=1,9=1/99;
 ------------------------------------------------
 19nt_mm_min_distance_cutoff4_nowat_ligand_conf_1
 ------------------------------------------------
 Symbolic Z-matrix:
 Charge =  0 Multiplicity = 1
 C                     2.9441    0.1417   -0.1007 
 O                     4.1412   -0.0095    0.2302 
 C                     2.07     -0.9667   -0.3399 
 C                     0.822    -0.796    -0.8547 
 C                     0.1988    0.5741   -1.022 
 C                     0.924     1.6304   -0.1853 
 C                     2.4342    1.5394   -0.3304 
 C                     0.067    -1.9577   -1.4 
 C                    -1.444    -1.907    -1.1681 
 C                    -2.021    -0.5449   -1.556 
 C                    -1.3173    0.5477   -0.7203 
 C                    -3.5292   -0.4515   -1.3484 
 C                    -4.1106    0.943    -1.6612 
 C                    -3.4627    1.9627   -0.728 
 C                    -1.9372    1.9489   -0.8668 
 C                    -4.4581   -1.4028   -2.1135 
 C                    -5.8511   -0.7301   -1.9926 
 C                    -5.5997    0.6648   -1.3813 
 C                    -3.9268    1.3686   -3.1286 
 O                    -6.5188    1.6065   -1.9086 
 H                     2.4853   -1.9624   -0.2137 
 H                     0.316     0.8175   -2.0924 
 H                     0.6498    1.4919    0.87 
 H                     0.5981    2.6357   -0.4678 
 H                     2.7395    1.8296   -1.3466 
 H                     2.9466    2.2144    0.3631 
 H                     0.493    -2.8935   -1.0307 
 H                     0.2869   -1.9317   -2.4879 
 H                    -1.6642   -2.1091   -0.1096 
 H                    -1.9151   -2.7054   -1.7496 
 H                    -1.7932   -0.3834   -2.6201 
 H                    -1.4327    0.2541    0.3376 
 H                    -3.7095   -0.6213   -0.2719 
 H                    -3.7342    1.7218    0.3105 
 H                    -3.8294    2.9774   -0.9306 
 H                    -1.6531    2.3816   -1.8359 
 H                    -1.5202    2.6128   -0.1022 
 H                    -4.4461   -2.4168   -1.7118 
 H                    -4.1408   -1.4844   -3.1581 
 H                    -6.5328   -1.3178   -1.3698 
 H                    -6.334    -0.6046   -2.9666 
 H                    -5.727     0.6134   -0.2858 
 H                    -4.507     0.7427   -3.8123 
 H                    -4.2491    2.4057   -3.2675 
 H                    -2.88      1.3116   -3.4394 
 H                    -6.2016    2.4857   -1.6637 
 
                          Input orientation:                          
 ---------------------------------------------------------------------
 Center     Atomic      Atomic             Coordinates (Angstroms)
 Number     Number       Type             X           Y           Z
 ---------------------------------------------------------------------
      1          6           0        2.944100    0.141700   -0.100700
      2          8           0        4.141200   -0.009500    0.230200
      3          6           0        2.070000   -0.966700   -0.339900
      4          6           0        0.822000   -0.796000   -0.854700
      5          6           0        0.198800    0.574100   -1.022000
      6          6           0        0.924000    1.630400   -0.185300
      7          6           0        2.434200    1.539400   -0.330400
      8          6           0        0.067000   -1.957700   -1.400000
      9          6           0       -1.444000   -1.907000   -1.168100
     10          6           0       -2.021000   -0.544900   -1.556000
     11          6           0       -1.317300    0.547700   -0.720300
     12          6           0       -3.529200   -0.451500   -1.348400
     13          6           0       -4.110600    0.943000   -1.661200
     14          6           0       -3.462700    1.962700   -0.728000
     15          6           0       -1.937200    1.948900   -0.866800
     16          6           0       -4.458100   -1.402800   -2.113500
     17          6           0       -5.851100   -0.730100   -1.992600
     18          6           0       -5.599700    0.664800   -1.381300
     19          6           0       -3.926800    1.368600   -3.128600
     20          8           0       -6.518800    1.606500   -1.908600
     21          1           0        2.485300   -1.962400   -0.213700
     22          1           0        0.316000    0.817500   -2.092400
     23          1           0        0.649800    1.491900    0.870000
     24          1           0        0.598100    2.635700   -0.467800
     25          1           0        2.739500    1.829600   -1.346600
     26          1           0        2.946600    2.214400    0.363100
     27          1           0        0.493000   -2.893500   -1.030700
     28          1           0        0.286900   -1.931700   -2.487900
     29          1           0       -1.664200   -2.109100   -0.109600
     30          1           0       -1.915100   -2.705400   -1.749600
     31          1           0       -1.793200   -0.383400   -2.620100
     32          1           0       -1.432700    0.254100    0.337600
     33          1           0       -3.709500   -0.621300   -0.271900
     34          1           0       -3.734200    1.721800    0.310500
     35          1           0       -3.829400    2.977400   -0.930600
     36          1           0       -1.653100    2.381600   -1.835900
     37          1           0       -1.520200    2.612800   -0.102200
     38          1           0       -4.446100   -2.416800   -1.711800
     39          1           0       -4.140800   -1.484400   -3.158100
     40          1           0       -6.532800   -1.317800   -1.369800
     41          1           0       -6.334000   -0.604600   -2.966600
     42          1           0       -5.727000    0.613400   -0.285800
     43          1           0       -4.507000    0.742700   -3.812300
     44          1           0       -4.249100    2.405700   -3.267500
     45          1           0       -2.880000    1.311600   -3.439400
     46          1           0       -6.201600    2.485700   -1.663700
 ---------------------------------------------------------------------
                    Distance matrix (angstroms):
                    1          2          3          4          5
     1  C    0.000000
     2  O    1.251161   0.000000
     3  C    1.431719   2.351832   0.000000
     4  C    2.439489   3.579480   1.360758   0.000000
     5  C    2.927872   4.177453   2.518078   1.514444   0.000000
     6  C    2.510814   3.634871   2.842911   2.519110   1.530278
     7  C    1.505432   2.372175   2.532443   2.885857   2.531230
     8  C    3.791222   4.801265   2.473439   1.488934   2.563253
     9  C    4.959026   6.062195   3.730720   2.543088   2.979261
    10  C    5.219342   6.438158   4.288717   2.938966   2.542603
    11  C    4.325306   5.568585   3.729868   2.529861   1.546053
    12  C    6.619083   7.843620   5.712578   4.392649   3.880255
    13  C    7.269528   8.519205   6.602470   5.291985   4.372138
    14  C    6.690040   7.913723   6.272382   5.097561   3.926987
    15  C    5.261176   6.479636   4.983573   3.892018   2.544928
    16  C    7.824922   9.021207   6.778785   5.461890   5.175541
    17  C    9.038521  10.261879   8.095136   6.769743   6.264526
    18  C    8.655061   9.896300   7.910158   6.606775   5.810329
    19  C    7.608070   8.847221   7.013707   5.692734   4.699954
    20  O    9.744774  10.991884   9.102179   7.795515   6.854054
    21  H    2.156503   2.598629   1.086195   2.130243   3.509311
    22  H    3.366078   4.550885   3.054692   2.095548   1.103964
    23  H    2.833569   3.854013   3.086347   2.870319   2.150679
    24  H    3.443619   4.476365   3.893602   3.460692   2.171813
    25  H    2.107874   2.798812   3.046468   3.288244   2.852508
    26  H    2.123959   2.527936   3.373727   3.880653   3.487046
    27  H    4.010640   4.818370   2.583930   2.130428   3.480069
    28  H    4.130184   5.092990   2.953739   2.059973   2.904420
    29  H    5.128607   6.182755   3.911824   2.908710   3.391579
    30  H    5.868277   6.918544   4.570706   3.455195   3.969017
    31  H    5.391207   6.594021   4.523700   3.182161   2.727415
    32  H    4.400127   5.581163   3.770712   2.758253   2.147721
    33  H    6.699393   7.890494   5.790211   4.572162   4.155291
    34  H    6.874990   8.063856   6.429603   5.334413   4.308278
    35  H    7.389874   8.590663   7.120939   5.989977   4.691546
    36  H    5.400215   6.600003   5.225955   4.145602   2.712752
    37  H    5.102579   6.248071   5.075318   4.203817   2.820867
    38  H    7.984774   9.127331   6.815017   5.578036   5.567441
    39  H    7.885918   9.069037   6.839905   5.514429   5.256660
    40  H    9.672248  10.872255   8.671340   7.391257   7.001049
    41  H    9.739275  10.968295   8.812371   7.463584   6.917245
    42  H    8.685893   9.901294   7.955680   6.723054   5.971486
    43  H    8.346021   9.575958   7.631287   6.285955   5.473459
    44  H    8.179025   9.405543   7.737890   6.464406   5.308563
    45  H    6.814376   8.031720   6.268975   4.982716   3.983307
    46  H    9.569803  10.806775   9.060402   7.794549   6.710523
                    6          7          8          9         10
     6  C    0.000000
     7  C    1.519881   0.000000
     8  C    3.883865   4.356304   0.000000
     9  C    4.368812   5.255459   1.529532   0.000000
    10  C    3.909447   5.069044   2.525883   1.529285   0.000000
    11  C    2.545956   3.899903   2.941990   2.498425   1.545109
    12  C    5.051544   6.368842   3.899225   2.549323   1.525283
    13  C    5.291313   6.705306   5.092605   3.934006   2.567361
    14  C    4.432616   5.925428   5.317885   4.386732   3.008678
    15  C    2.958437   4.423184   4.422968   3.898973   2.588640
    16  C    6.471882   7.703232   4.614491   3.198874   2.643152
    17  C    7.398667   8.749842   6.073062   4.635453   3.859350
    18  C    6.702347   8.149409   6.244145   4.891774   3.781665
    19  C    5.679948   6.951361   5.477478   4.553835   3.125160
    20  O    7.639739   9.091283   7.505662   6.216640   4.998305
    21  H    3.917483   3.504117   2.693604   4.043927   4.910989
    22  H    2.160440   2.848255   2.871089   3.372659   2.757794
    23  H    1.099102   2.151116   4.170407   4.482228   4.143332
    24  H    1.093913   2.142899   4.717032   5.029584   4.261465
    25  H    2.164333   1.100039   4.635596   5.612104   5.323951
    26  H    2.175479   1.095044   5.367219   6.213524   5.997811
    27  H    4.622351   4.889712   1.092511   2.178079   3.480238
    28  H    4.289105   4.616735   1.110206   2.176809   2.849220
    29  H    4.548447   5.491556   2.164511   1.099888   2.160116
    30  H    5.413565   6.240903   2.147090   1.094313   2.171740
    31  H    4.167351   5.177914   2.725327   2.133448   1.100129
    32  H    2.778788   4.129302   3.187540   2.633935   2.137807
    33  H    5.152376   6.512841   4.161794   2.754758   2.122683
    34  H    4.685403   6.204287   5.560005   4.538663   3.399530
    35  H    4.996468   6.454515   6.305353   5.440947   4.008495
    36  H    3.151226   4.436423   4.688100   4.345316   2.962785
    37  H    2.635551   4.103845   5.009287   4.644410   3.512179
    38  H    6.895506   8.055949   4.547094   3.093236   3.067473
    39  H    6.647685   7.769806   4.584813   3.378079   2.818322
    40  H    8.105479   9.468423   6.630818   5.126766   4.581308
    41  H    8.087609   9.403596   6.727400   5.370563   4.538207
    42  H    6.729056   8.213687   6.436026   5.047272   4.085279
    43  H    6.590819   7.806319   5.833766   4.836804   3.595692
    44  H    6.071409   7.351431   6.415258   5.556568   4.074273
    45  H    5.016096   6.161047   4.851009   4.192885   2.780588
    46  H    7.327440   8.789210   7.688217   6.494320   5.164644
                   11         12         13         14         15
    11  C    0.000000
    12  C    2.507072   0.000000
    13  C    2.973900   1.542887   0.000000
    14  C    2.570024   2.493528   1.526573   0.000000
    15  C    1.539188   2.920329   2.523207   1.531864   0.000000
    16  C    3.950960   1.534016   2.414148   3.773198   4.375282
    17  C    4.879228   2.425661   2.436889   3.815081   4.874739
    18  C    4.334695   2.352483   1.540506   2.584205   3.915039
    19  C    3.644623   2.576812   1.538889   2.516192   3.067735
    20  O    5.439551   3.672451   2.510153   3.295518   4.711013
    21  H    4.584432   6.304330   7.351361   7.144902   5.939976
    22  H    2.150144   4.116972   4.449323   4.177516   2.803404
    23  H    2.700009   5.114894   5.419379   4.437106   3.149269
    24  H    2.844689   5.228849   5.144054   4.124407   2.656810
    25  H    4.300366   6.670834   6.914398   6.234394   4.702761
    26  H    4.704518   7.209178   7.451062   6.506380   5.043277
    27  H    3.900691   4.716184   6.025728   6.270715   5.420477
    28  H    3.441699   4.248773   5.318396   5.685341   4.757483
    29  H    2.748068   2.785765   4.208046   4.494060   4.137058
    30  H    3.464027   2.801133   4.258974   5.022936   4.737334
    31  H    2.168564   2.153034   2.837106   3.445498   2.921373
    32  H    1.103934   2.781327   3.411881   2.859321   2.139497
    33  H    2.700045   1.104623   2.130275   2.635525   3.178188
    34  H    2.877927   2.741753   2.153092   1.100103   2.160282
    35  H    3.501188   3.467280   2.179824   1.097785   2.154601
    36  H    2.172674   3.432763   2.852963   2.162769   1.098680
    37  H    2.165145   3.870275   3.453822   2.141859   1.095110
    38  H    4.422750   2.198902   3.376889   4.595102   5.105677
    39  H    4.247876   2.171624   2.851998   4.271733   4.679045
    40  H    5.577041   3.126107   3.326136   4.538623   5.660731
    41  H    5.616132   3.241746   3.007099   4.454966   5.501034
    42  H    4.431542   2.663354   2.147815   2.672678   4.060013
    43  H    4.446648   2.907406   2.196471   3.477336   4.090814
    44  H    4.305327   3.516361   2.176895   2.695132   3.364061
    45  H    3.227860   2.811096   2.193681   2.848712   2.813058
    46  H    5.338748   3.983501   2.598502   2.941196   4.371305
                   16         17         18         19         20
    16  C    0.000000
    17  C    1.551641   0.000000
    18  C    2.472719   1.543579   0.000000
    19  C    2.998894   3.065611   2.519323   0.000000
    20  O    3.652993   2.431579   1.417600   2.874624   0.000000
    21  H    7.220332   8.612701   8.580950   7.791484   9.832779
    22  H    5.265188   6.359100   5.960242   4.402133   6.882644
    23  H    6.585682   7.442679   6.693930   6.078591   7.689121
    24  H    6.677048   7.432752   6.567469   5.400011   7.333855
    25  H    7.927294   8.987090   8.420227   6.915750   9.278024
    26  H    8.605072   9.571778   8.859088   7.755706   9.753151
    27  H    5.282805   6.771496   7.064376   6.488552   8.377711
    28  H    4.789043   6.274090   6.528280   5.390524   7.692334
    29  H    3.510036   4.793481   4.979950   5.131093   6.372537
    30  H    2.880285   4.410550   5.007012   4.748269   6.309661
    31  H    2.897846   4.120741   4.137969   2.807192   5.176604
    32  H    4.231578   5.091242   4.526277   4.413297   5.722134
    33  H    2.136032   2.749381   2.541196   3.488217   3.941325
    34  H    4.020315   3.974588   2.731213   3.462550   3.562541
    35  H    4.580466   4.354385   2.947068   2.725606   3.173125
    36  H    4.718768   5.227852   4.327784   2.804809   4.927586
    37  H    5.366715   5.788375   4.698204   4.061878   5.409411
    38  H    1.090735   2.213104   3.307005   4.075076   4.530095
    39  H    1.094773   2.202836   3.147136   2.861167   4.095094
    40  H    2.205605   1.094525   2.191235   4.135379   2.973555
    41  H    2.209956   1.094358   2.159571   3.116789   2.458145
    42  H    3.002608   2.175674   1.104069   3.448559   2.060746
    43  H    2.737057   2.699454   2.666425   1.093539   2.901304
    44  H    3.984980   3.744999   2.900449   1.094873   2.763488
    45  H    3.408281   3.884483   3.471440   1.093451   3.958684
    46  H    4.285154   3.251522   1.938481   2.927210   0.966222
                   21         22         23         24         25
    21  H    0.000000
    22  H    3.995400   0.000000
    23  H    4.059021   3.056477   0.000000
    24  H    4.976808   2.454538   1.760869   0.000000
    25  H    3.965772   2.730186   3.064996   2.451057   0.000000
    26  H    4.241598   3.860164   2.460537   2.526527   1.764663
    27  H    2.345996   3.863943   4.782152   5.558773   5.239678
    28  H    3.163209   2.777655   4.809181   5.003878   4.633054
    29  H    4.153397   4.051873   4.391061   5.268722   6.036232
    30  H    4.719593   4.184034   5.573001   6.040408   6.511063
    31  H    5.156507   2.483818   4.654653   4.411992   5.202359
    32  H    4.535144   3.046354   2.480404   3.231847   4.767178
    33  H    6.338571   4.646398   4.977253   5.403873   6.982227
    34  H    7.247779   4.795394   4.425534   4.495530   6.683292
    35  H    8.049286   4.816564   5.050951   4.464717   6.681388
    36  H    6.215161   2.527757   3.662896   2.646538   4.454105
    37  H    6.081851   3.248943   2.628781   2.149740   4.506326
    38  H    7.105990   5.769155   6.921837   7.247016   8.354528
    39  H    7.266579   5.128111   6.930642   6.831553   7.848736
    40  H    9.114725   7.210251   8.031243   8.203262   9.791946
    41  H    9.338208   6.856318   8.239434   8.049693   9.533002
    42  H    8.607079   6.310571   6.539970   6.643020   8.618936
    43  H    8.316234   5.121033   7.005556   6.389928   7.731286
    44  H    8.588256   4.974272   6.477126   5.602372   7.270645
    45  H    7.064748   3.503278   5.573412   4.762439   6.018880
    46  H    9.866627   6.741349   7.372174   6.905693   8.970746
                   26         27         28         29         30
    26  H    0.000000
    27  H    5.835535   0.000000
    28  H    5.691428   1.758115   0.000000
    29  H    6.338420   2.473302   3.081326   0.000000
    30  H    7.232155   2.520148   2.447959   1.762987   0.000000
    31  H    6.173634   3.748800   2.596445   3.049146   2.482804
    32  H    4.798093   3.935473   3.964618   2.416256   3.653458
    33  H    7.262788   4.837321   4.753842   2.534392   3.122009
    34  H    6.699142   6.400706   6.111330   4.374606   5.210877
    35  H    6.940461   7.291134   6.593055   5.588794   6.052233
    36  H    5.101058   5.751589   4.774229   4.811094   5.094474
    37  H    4.508606   5.935859   5.441475   4.724101   5.581498
    38  H    8.966897   5.008578   4.820679   3.225010   2.547681
    39  H    8.735629   5.289943   4.500419   3.977078   2.903180
    40  H   10.263450   7.208307   6.937963   5.090926   4.836614
    41  H   10.254911   7.456185   6.769539   5.677411   5.041937
    42  H    8.843959   7.179250   6.891573   4.893812   5.261913
    43  H    8.669257   6.779325   5.646940   5.470307   4.781430
    44  H    8.062007   7.454684   6.324248   6.085841   5.820216
    45  H    7.015933   5.904391   4.631803   4.926147   4.463490
    46  H    9.373958   8.611280   7.892614   6.641943   6.732680
                   31         32         33         34         35
    31  H    0.000000
    32  H    3.047024   0.000000
    33  H    3.040205   2.514286   0.000000
    34  H    4.097287   2.729795   2.414522   0.000000
    35  H    4.277324   3.843028   3.660451   1.768028   0.000000
    36  H    2.877468   3.049415   3.961349   3.061592   2.431219
    37  H    3.923208   2.400947   3.909122   2.421982   2.480239
    38  H    3.463756   4.518222   2.416550   4.660956   5.485252
    39  H    2.648183   4.751432   3.043207   4.740910   4.996637
    40  H    4.990006   5.603312   3.108298   4.460352   5.094115
    41  H    4.559370   5.973093   3.761607   4.786489   4.821726
    42  H    4.681597   4.354163   2.365372   2.356985   3.099217
    43  H    3.170828   5.187651   3.876975   4.307358   3.709073
    44  H    3.772221   5.055516   4.292728   3.678984   2.442149
    45  H    2.173801   4.180755   3.802266   3.867773   3.157583
    46  H    5.346066   5.632730   4.219137   3.251011   2.531114
                   36         37         38         39         40
    36  H    0.000000
    37  H    1.754090   0.000000
    38  H    5.553458   6.037266   0.000000
    39  H    4.783599   5.743964   1.747673   0.000000
    40  H    6.141195   6.494812   2.383082   2.991227   0.000000
    41  H    5.666277   6.459808   2.902199   2.370832   1.760098
    42  H    4.703828   4.661381   3.585567   3.894471   2.356672
    43  H    3.838866   5.116941   3.794503   2.349905   3.783561
    44  H    2.964671   4.184365   5.071047   3.893145   4.762458
    45  H    2.285037   3.831329   4.397526   3.079994   4.953780
    46  H    4.552949   4.936592   5.207552   4.716124   3.829188
                   41         42         43         44         45
    41  H    0.000000
    42  H    3.006437   0.000000
    43  H    2.422469   3.733808   0.000000
    44  H    3.674133   3.779823   1.768866   0.000000
    45  H    3.978125   4.305588   1.763471   1.760977   0.000000
    46  H    3.356342   2.372627   3.244411   2.528009   3.945206
                   46
    46  H    0.000000
 Stoichiometry    C18H26O2
 Framework group  C1[X(C18H26O2)]
 Deg. of freedom   132
 Full point group                 C1      NOp   1
 Largest Abelian subgroup         C1      NOp   1
 Largest concise Abelian subgroup C1      NOp   1
                         Standard orientation:                         
 ---------------------------------------------------------------------
 Center     Atomic      Atomic             Coordinates (Angstroms)
 Number     Number       Type             X           Y           Z
 ---------------------------------------------------------------------
      1          6           0        4.689193   -0.162297   -0.069811
      2          8           0        5.935139   -0.088934   -0.157221
      3          6           0        3.845102    0.989266   -0.175782
      4          6           0        2.510449    0.924576    0.081469
      5          6           0        1.793786   -0.391613    0.299601
      6          6           0        2.618429   -1.575137   -0.211268
      7          6           0        4.068880   -1.499353    0.236489
      8          6           0        1.722433    2.170627    0.289585
      9          6           0        0.291259    2.122087   -0.247866
     10          6           0       -0.425340    0.844841    0.192406
     11          6           0        0.376149   -0.373937   -0.317062
     12          6           0       -1.861074    0.757539   -0.315073
     13          6           0       -2.568215   -0.562581    0.056052
     14          6           0       -1.797234   -1.722143   -0.569592
     15          6           0       -0.334663   -1.723991   -0.114084
     16          6           0       -2.875585    1.831555    0.097799
     17          6           0       -4.247627    1.181209   -0.221796
     18          6           0       -3.950502   -0.293316   -0.568395
     19          6           0       -2.714075   -0.774229    1.573323
     20          8           0       -5.007618   -1.126458   -0.123456
     21          1           0        4.330141    1.945995   -0.346738
     22          1           0        1.674487   -0.479283    1.393593
     23          1           0        2.575609   -1.585348   -1.309488
     24          1           0        2.187983   -2.520701    0.131179
     25          1           0        4.142039   -1.645603    1.324305
     26          1           0        4.676464   -2.279918   -0.233279
     27          1           0        2.264868    3.032473   -0.106100
     28          1           0        1.711492    2.298126    1.392392
     29          1           0        0.305260    2.173051   -1.346484
     30          1           0       -0.246271    3.007434    0.105322
     31          1           0       -0.430900    0.834671    1.292474
     32          1           0        0.497313   -0.234839   -1.405475
     33          1           0       -1.806104    0.773002   -1.418219
     34          1           0       -1.835405   -1.628691   -1.665054
     35          1           0       -2.251564   -2.687680   -0.311807
     36          1           0       -0.280122   -2.017544    0.943247
     37          1           0        0.194971   -2.501695   -0.674380
     38          1           0       -2.726778    2.775719   -0.427666
     39          1           0       -2.776678    2.056895    1.164554
     40          1           0       -4.753778    1.687782   -1.049552
     41          1           0       -4.927054    1.210163    0.635619
     42          1           0       -3.846162   -0.398965   -1.662433
     43          1           0       -3.388505   -0.042067    2.025994
     44          1           0       -3.113084   -1.772233    1.781953
     45          1           0       -1.752378   -0.697109    2.087935
     46          1           0       -4.694204   -2.039122   -0.172442
 ---------------------------------------------------------------------
 Rotational constants (GHZ):           0.9219281           0.1746511           0.1543116
 Standard basis: 6-31G(d) (6D, 7F)
 There are   352 symmetry adapted cartesian basis functions of A   symmetry.
 There are   352 symmetry adapted basis functions of A   symmetry.
   352 basis functions,   664 primitive gaussians,   352 cartesian basis functions
    75 alpha electrons       75 beta electrons
       nuclear repulsion energy      1662.9929814394 Hartrees.
 NAtoms=   46 NActive=   46 NUniq=   46 SFac= 1.00D+00 NAtFMM=   60 NAOKFM=F Big=F
 Integral buffers will be    131072 words long.
 Raffenetti 2 integral format.
 Two-electron integral symmetry is turned on.
 Nuclear repulsion after empirical dispersion term =     1662.9441422436 Hartrees.
 One-electron integrals computed using PRISM.
 NBasis=   352 RedAO= T EigKep=  1.24D-03  NBF=   352
 NBsUse=   352 1.00D-06 EigRej= -1.00D+00 NBFU=   352
 ExpMin= 1.61D-01 ExpMax= 5.48D+03 ExpMxC= 8.25D+02 IAcc=3 IRadAn=         5 AccDes= 0.00D+00
 Harris functional with IExCor= 4639 and IRadAn=       5 diagonalized for initial guess.
 HarFok:  IExCor= 4639 AccDes= 0.00D+00 IRadAn=         5 IDoV= 1 UseB2=F ITyADJ=14
 ICtDFT=  3500011 ScaDFX=  1.000000  1.000000  1.000000  1.000000
 FoFCou: FMM=F IPFlag=           0 FMFlag=      100000 FMFlg1=           0
         NFxFlg=           0 DoJE=T BraDBF=F KetDBF=T FulRan=T
         wScrn=  0.000000 ICntrl=       500 IOpCl=  0 I1Cent=   200000004 NGrid=           0
         NMat0=    1 NMatS0=      1 NMatT0=    0 NMatD0=    1 NMtDS0=    0 NMtDT0=    0
 Petite list used in FoFCou.
 Requested convergence on RMS density matrix=1.00D-08 within 128 cycles.
 Requested convergence on MAX density matrix=1.00D-06.
 Requested convergence on             energy=1.00D-06.
 No special actions if energy rises.
 Integral accuracy reduced to 1.0D-05 until final iterations.
 Initial convergence to 1.0D-05 achieved.  Increase integral accuracy.
 SCF Done:  E(RwB97XD) =  -851.792590143     A.U. after   15 cycles
            NFock= 15  Conv=0.54D-08     -V/T= 2.0093

 **********************************************************************

            Population analysis using the SCF Density.

 **********************************************************************

 Orbital symmetries:
       Occupied  (A) (A) (A) (A) (A) (A) (A) (A) (A) (A) (A) (A)
                 (A) (A) (A) (A) (A) (A) (A) (A) (A) (A) (A) (A)
                 (A) (A) (A) (A) (A) (A) (A) (A) (A) (A) (A) (A)
                 (A) (A) (A) (A) (A) (A) (A) (A) (A) (A) (A) (A)
                 (A) (A) (A) (A) (A) (A) (A) (A) (A) (A) (A) (A)
                 (A) (A) (A) (A) (A) (A) (A) (A) (A) (A) (A) (A)
                 (A) (A) (A)
       Virtual   (A) (A) (A) (A) (A) (A) (A) (A) (A) (A) (A) (A)
                 (A) (A) (A) (A) (A) (A) (A) (A) (A) (A) (A) (A)
                 (A) (A) (A) (A) (A) (A) (A) (A) (A) (A) (A) (A)
                 (A) (A) (A) (A) (A) (A) (A) (A) (A) (A) (A) (A)
                 (A) (A) (A) (A) (A) (A) (A) (A) (A) (A) (A) (A)
                 (A) (A) (A) (A) (A) (A) (A) (A) (A) (A) (A) (A)
                 (A) (A) (A) (A) (A) (A) (A) (A) (A) (A) (A) (A)
                 (A) (A) (A) (A) (A) (A) (A) (A) (A) (A) (A) (A)
                 (A) (A) (A) (A) (A) (A) (A) (A) (A) (A) (A) (A)
                 (A) (A) (A) (A) (A) (A) (A) (A) (A) (A) (A) (A)
                 (A) (A) (A) (A) (A) (A) (A) (A) (A) (A) (A) (A)
                 (A) (A) (A) (A) (A) (A) (A) (A) (A) (A) (A) (A)
                 (A) (A) (A) (A) (A) (A) (A) (A) (A) (A) (A) (A)
                 (A) (A) (A) (A) (A) (A) (A) (A) (A) (A) (A) (A)
                 (A) (A) (A) (A) (A) (A) (A) (A) (A) (A) (A) (A)
                 (A) (A) (A) (A) (A) (A) (A) (A) (A) (A) (A) (A)
                 (A) (A) (A) (A) (A) (A) (A) (A) (A) (A) (A) (A)
                 (A) (A) (A) (A) (A) (A) (A) (A) (A) (A) (A) (A)
                 (A) (A) (A) (A) (A) (A) (A) (A) (A) (A) (A) (A)
                 (A) (A) (A) (A) (A) (A) (A) (A) (A) (A) (A) (A)
                 (A) (A) (A) (A) (A) (A) (A) (A) (A) (A) (A) (A)
                 (A) (A) (A) (A) (A) (A) (A) (A) (A) (A) (A) (A)
                 (A) (A) (A) (A) (A) (A) (A) (A) (A) (A) (A) (A)
                 (A)
 The electronic state is 1-A.
 Alpha  occ. eigenvalues --  -19.26750 -19.23347 -10.36806 -10.34208 -10.33315
 Alpha  occ. eigenvalues --  -10.31836 -10.31185 -10.31072 -10.30684 -10.30476
 Alpha  occ. eigenvalues --  -10.30429 -10.30286 -10.30175 -10.30124 -10.30053
 Alpha  occ. eigenvalues --  -10.29560 -10.29528 -10.29500 -10.29059 -10.28867
 Alpha  occ. eigenvalues --   -1.12123  -1.10016  -0.98207  -0.95706  -0.90813
 Alpha  occ. eigenvalues --   -0.90333  -0.87362  -0.84423  -0.82652  -0.81553
 Alpha  occ. eigenvalues --   -0.77940  -0.77499  -0.73841  -0.72185  -0.69700
 Alpha  occ. eigenvalues --   -0.67800  -0.65485  -0.65304  -0.63073  -0.60800
 Alpha  occ. eigenvalues --   -0.59955  -0.58144  -0.57036  -0.55632  -0.55469
 Alpha  occ. eigenvalues --   -0.54253  -0.53468  -0.52860  -0.52022  -0.50702
 Alpha  occ. eigenvalues --   -0.50175  -0.49769  -0.48804  -0.47872  -0.47688
 Alpha  occ. eigenvalues --   -0.46813  -0.46651  -0.46461  -0.45251  -0.44624
 Alpha  occ. eigenvalues --   -0.44159  -0.43603  -0.43036  -0.42452  -0.42003
 Alpha  occ. eigenvalues --   -0.41315  -0.40814  -0.40213  -0.39424  -0.38694
 Alpha  occ. eigenvalues --   -0.37325  -0.36546  -0.34179  -0.32574  -0.30839
 Alpha virt. eigenvalues --    0.02185   0.13255   0.14089   0.14921   0.16409
 Alpha virt. eigenvalues --    0.16884   0.17461   0.18513   0.19137   0.20152
 Alpha virt. eigenvalues --    0.20363   0.20729   0.22106   0.22748   0.23262
 Alpha virt. eigenvalues --    0.23588   0.23821   0.24545   0.24969   0.25210
 Alpha virt. eigenvalues --    0.25283   0.25927   0.26412   0.26774   0.26901
 Alpha virt. eigenvalues --    0.27550   0.28318   0.28947   0.29312   0.30196
 Alpha virt. eigenvalues --    0.30596   0.31056   0.31533   0.32111   0.33205
 Alpha virt. eigenvalues --    0.33453   0.34152   0.35008   0.35662   0.36042
 Alpha virt. eigenvalues --    0.36586   0.37302   0.38692   0.38834   0.40589
 Alpha virt. eigenvalues --    0.41718   0.41903   0.44759   0.45598   0.49692
 Alpha virt. eigenvalues --    0.51968   0.57725   0.58462   0.59357   0.60116
 Alpha virt. eigenvalues --    0.61019   0.61427   0.62092   0.62559   0.65138
 Alpha virt. eigenvalues --    0.65569   0.66103   0.66529   0.67948   0.69233
 Alpha virt. eigenvalues --    0.70284   0.70693   0.72284   0.72780   0.73032
 Alpha virt. eigenvalues --    0.73556   0.74339   0.74980   0.75498   0.76382
 Alpha virt. eigenvalues --    0.77505   0.77786   0.78472   0.79548   0.81145
 Alpha virt. eigenvalues --    0.82692   0.82725   0.84255   0.84523   0.85687
 Alpha virt. eigenvalues --    0.86218   0.87118   0.88784   0.89687   0.90258
 Alpha virt. eigenvalues --    0.91128   0.92816   0.93179   0.93774   0.94714
 Alpha virt. eigenvalues --    0.94801   0.95567   0.95859   0.96515   0.96799
 Alpha virt. eigenvalues --    0.97186   0.97485   0.97753   0.98622   0.98840
 Alpha virt. eigenvalues --    0.99196   1.00289   1.00499   1.00890   1.01946
 Alpha virt. eigenvalues --    1.02700   1.03348   1.03990   1.04226   1.04615
 Alpha virt. eigenvalues --    1.05234   1.05865   1.06484   1.06980   1.07752
 Alpha virt. eigenvalues --    1.08604   1.10030   1.10502   1.11632   1.12962
 Alpha virt. eigenvalues --    1.14119   1.14936   1.16604   1.19480   1.20191
 Alpha virt. eigenvalues --    1.21476   1.22707   1.25547   1.26591   1.27646
 Alpha virt. eigenvalues --    1.29352   1.30490   1.34345   1.35553   1.37802
 Alpha virt. eigenvalues --    1.39438   1.42052   1.43983   1.47155   1.47814
 Alpha virt. eigenvalues --    1.49815   1.52668   1.53972   1.55456   1.58688
 Alpha virt. eigenvalues --    1.59710   1.62077   1.64932   1.65949   1.66443
 Alpha virt. eigenvalues --    1.70195   1.70700   1.72805   1.74535   1.75775
 Alpha virt. eigenvalues --    1.77763   1.78566   1.79560   1.81399   1.83168
 Alpha virt. eigenvalues --    1.83775   1.85456   1.87112   1.87784   1.88534
 Alpha virt. eigenvalues --    1.89580   1.91895   1.93566   1.94175   1.94975
 Alpha virt. eigenvalues --    1.95940   1.96320   1.97487   1.98801   1.99138
 Alpha virt. eigenvalues --    1.99960   2.00937   2.01498   2.02211   2.03284
 Alpha virt. eigenvalues --    2.03907   2.04867   2.05493   2.06876   2.07636
 Alpha virt. eigenvalues --    2.08681   2.09729   2.09964   2.10462   2.11929
 Alpha virt. eigenvalues --    2.12564   2.14404   2.14767   2.15853   2.18550
 Alpha virt. eigenvalues --    2.18833   2.19800   2.20723   2.22228   2.25180
 Alpha virt. eigenvalues --    2.25982   2.28068   2.29279   2.30315   2.33186
 Alpha virt. eigenvalues --    2.34129   2.35617   2.36416   2.38406   2.39624
 Alpha virt. eigenvalues --    2.40429   2.41820   2.42246   2.44697   2.45739
 Alpha virt. eigenvalues --    2.47664   2.48830   2.50225   2.51190   2.52507
 Alpha virt. eigenvalues --    2.54297   2.57328   2.57945   2.61145   2.61825
 Alpha virt. eigenvalues --    2.62736   2.62960   2.64927   2.65606   2.67090
 Alpha virt. eigenvalues --    2.68118   2.70728   2.71595   2.74958   2.75834
 Alpha virt. eigenvalues --    2.78408   2.79261   2.80942   2.82992   2.83653
 Alpha virt. eigenvalues --    2.86559   2.89693   2.93628   2.97643   2.98200
 Alpha virt. eigenvalues --    3.00347   3.01513   3.07017   3.07799   3.09799
 Alpha virt. eigenvalues --    3.20459   3.26844   4.00703   4.07297   4.23880
 Alpha virt. eigenvalues --    4.26618   4.30633   4.33428   4.35486   4.38175
 Alpha virt. eigenvalues --    4.41859   4.42288   4.47842   4.53735   4.55551
 Alpha virt. eigenvalues --    4.64375   4.66475   4.73797   4.77141   4.81028
 Alpha virt. eigenvalues --    4.85598   4.90309
          Condensed to atoms (all electrons):
               1          2          3          4          5          6
     1  C    4.435133   0.516458   0.380761  -0.004228  -0.020420  -0.025986
     2  O    0.516458   8.125862  -0.058852   0.004935   0.000266   0.003228
     3  C    0.380761  -0.058852   5.269348   0.522972  -0.044881   0.007071
     4  C   -0.004228   0.004935   0.522972   4.873888   0.377933  -0.045637
     5  C   -0.020420   0.000266  -0.044881   0.377933   5.088790   0.350809
     6  C   -0.025986   0.003228   0.007071  -0.045637   0.350809   5.151588
     7  C    0.341686  -0.079290  -0.130225   0.002619  -0.035952   0.279542
     8  C    0.003757  -0.000095  -0.035704   0.359166  -0.066819   0.004891
     9  C   -0.000134   0.000000   0.002519  -0.034589  -0.010889  -0.000255
    10  C   -0.000013   0.000000   0.000458  -0.014085  -0.037735   0.003960
    11  C   -0.000125   0.000000   0.002791  -0.032355   0.365729  -0.047721
    12  C   -0.000000   0.000000   0.000003   0.000214   0.003673  -0.000125
    13  C   -0.000000   0.000000   0.000000   0.000002   0.000072  -0.000004
    14  C    0.000000  -0.000000   0.000001  -0.000087   0.003680   0.000235
    15  C   -0.000004  -0.000000  -0.000100   0.004278  -0.042731  -0.004798
    16  C   -0.000000  -0.000000  -0.000000  -0.000001  -0.000099   0.000001
    17  C   -0.000000   0.000000  -0.000000   0.000000   0.000001  -0.000000
    18  C    0.000000  -0.000000  -0.000000  -0.000000   0.000004   0.000000
    19  C   -0.000000   0.000000   0.000000   0.000000   0.000036   0.000000
    20  O   -0.000000   0.000000   0.000000   0.000000  -0.000000   0.000000
    21  H   -0.029057   0.000835   0.360134  -0.044999   0.004557  -0.000439
    22  H    0.000777   0.000010  -0.003385  -0.043756   0.365449  -0.033884
    23  H   -0.002858   0.000036   0.003468  -0.004242  -0.044248   0.385569
    24  H    0.003404  -0.000070  -0.000311   0.004444  -0.029662   0.375768
    25  H   -0.026741  -0.000837   0.001914  -0.001077  -0.003062  -0.036591
    26  H   -0.025740   0.002562   0.004911  -0.000194   0.004042  -0.030593
    27  H    0.000261  -0.000001  -0.002545  -0.039892   0.004184  -0.000141
    28  H   -0.000128   0.000005  -0.007813  -0.041281   0.000168   0.000127
    29  H   -0.000001  -0.000000  -0.000136  -0.003022   0.000424   0.000008
    30  H    0.000001  -0.000000  -0.000080   0.004210  -0.000018   0.000010
    31  H    0.000003   0.000000  -0.000174  -0.003532  -0.001960   0.000131
    32  H    0.000039  -0.000000   0.000081  -0.003322  -0.043349  -0.004982
    33  H    0.000000   0.000000  -0.000002  -0.000067   0.000157   0.000000
    34  H    0.000000   0.000000  -0.000000   0.000003   0.000048  -0.000030
    35  H   -0.000000  -0.000000  -0.000000   0.000001  -0.000106   0.000003
    36  H    0.000001  -0.000000  -0.000007   0.000163  -0.002981  -0.001904
    37  H   -0.000012  -0.000000   0.000017  -0.000142  -0.006898   0.003131
    38  H    0.000000  -0.000000   0.000000  -0.000001   0.000001  -0.000000
    39  H    0.000000  -0.000000  -0.000000  -0.000001   0.000001   0.000000
    40  H    0.000000  -0.000000   0.000000   0.000000  -0.000000   0.000000
    41  H    0.000000  -0.000000   0.000000  -0.000000  -0.000000   0.000000
    42  H    0.000000  -0.000000  -0.000000   0.000000  -0.000000  -0.000000
    43  H   -0.000000  -0.000000   0.000000   0.000000  -0.000002  -0.000000
    44  H    0.000000   0.000000  -0.000000  -0.000000  -0.000003   0.000000
    45  H    0.000000  -0.000000  -0.000000   0.000000   0.000041   0.000003
    46  H   -0.000000   0.000000  -0.000000   0.000000  -0.000000   0.000000
               7          8          9         10         11         12
     1  C    0.341686   0.003757  -0.000134  -0.000013  -0.000125  -0.000000
     2  O   -0.079290  -0.000095   0.000000   0.000000   0.000000   0.000000
     3  C   -0.130225  -0.035704   0.002519   0.000458   0.002791   0.000003
     4  C    0.002619   0.359166  -0.034589  -0.014085  -0.032355   0.000214
     5  C   -0.035952  -0.066819  -0.010889  -0.037735   0.365729   0.003673
     6  C    0.279542   0.004891  -0.000255   0.003960  -0.047721  -0.000125
     7  C    5.350618  -0.000082   0.000037  -0.000091   0.004286   0.000001
     8  C   -0.000082   5.153869   0.335552  -0.041929  -0.014692   0.003772
     9  C    0.000037   0.335552   5.098446   0.368818  -0.043512  -0.041246
    10  C   -0.000091  -0.041929   0.368818   5.013506   0.371433   0.364652
    11  C    0.004286  -0.014692  -0.043512   0.371433   5.042132  -0.037678
    12  C    0.000001   0.003772  -0.041246   0.364652  -0.037678   5.105571
    13  C    0.000000  -0.000122   0.004143  -0.025555  -0.011803   0.346641
    14  C   -0.000003  -0.000010  -0.000053  -0.011249  -0.038658  -0.048746
    15  C    0.000277   0.000308   0.004231  -0.038558   0.366132  -0.017240
    16  C   -0.000000   0.000054  -0.003143  -0.033106   0.004123   0.361179
    17  C    0.000000  -0.000000   0.000081   0.004083  -0.000159  -0.060488
    18  C   -0.000000   0.000001  -0.000105   0.003940   0.000132  -0.062430
    19  C    0.000000  -0.000000   0.000158  -0.005919  -0.002193  -0.056596
    20  O    0.000000  -0.000000   0.000000  -0.000064  -0.000003   0.003723
    21  H    0.006175  -0.007335   0.000225  -0.000001  -0.000074   0.000000
    22  H   -0.004125   0.000618  -0.000617  -0.005267  -0.043439   0.000017
    23  H   -0.039695  -0.000020  -0.000038   0.000164  -0.003450  -0.000002
    24  H   -0.030022  -0.000108  -0.000007  -0.000084  -0.007990  -0.000002
    25  H    0.367320  -0.000021  -0.000001   0.000002  -0.000003  -0.000000
    26  H    0.370272   0.000007   0.000000   0.000001  -0.000062  -0.000000
    27  H    0.000009   0.379470  -0.030542   0.003937  -0.000122  -0.000099
    28  H   -0.000085   0.377165  -0.038884  -0.004088  -0.000898  -0.000022
    29  H   -0.000003  -0.035986   0.379198  -0.038876  -0.007741  -0.004449
    30  H   -0.000000  -0.032332   0.378737  -0.031849   0.004836  -0.006152
    31  H   -0.000008   0.000025  -0.048879   0.379213  -0.049080  -0.042541
    32  H   -0.000114  -0.000135  -0.006351  -0.047562   0.375606  -0.004308
    33  H   -0.000000   0.000078  -0.006050  -0.045785  -0.006206   0.381021
    34  H   -0.000000   0.000000  -0.000032  -0.000362  -0.003722  -0.006302
    35  H   -0.000000  -0.000000   0.000010  -0.000119   0.004171   0.006425
    36  H   -0.000073  -0.000012  -0.000016  -0.003249  -0.043040  -0.000366
    37  H    0.000120  -0.000010  -0.000118   0.004056  -0.029996   0.000113
    38  H   -0.000000  -0.000010   0.001387  -0.001411  -0.000076  -0.026558
    39  H   -0.000000  -0.000027  -0.000574  -0.004134   0.000069  -0.038953
    40  H   -0.000000  -0.000000  -0.000004  -0.000061   0.000003   0.001511
    41  H   -0.000000  -0.000000   0.000002  -0.000128   0.000002   0.003286
    42  H   -0.000000  -0.000000   0.000008  -0.000255  -0.000009  -0.002679
    43  H    0.000000  -0.000000  -0.000019  -0.000040   0.000024  -0.003670
    44  H    0.000000  -0.000000   0.000000  -0.000016   0.000082   0.005471
    45  H   -0.000000   0.000010  -0.000040   0.001841  -0.000397  -0.006296
    46  H    0.000000   0.000000   0.000000  -0.000004   0.000001   0.000387
              13         14         15         16         17         18
     1  C   -0.000000   0.000000  -0.000004  -0.000000  -0.000000   0.000000
     2  O    0.000000  -0.000000  -0.000000  -0.000000   0.000000  -0.000000
     3  C    0.000000   0.000001  -0.000100  -0.000000  -0.000000  -0.000000
     4  C    0.000002  -0.000087   0.004278  -0.000001   0.000000  -0.000000
     5  C    0.000072   0.003680  -0.042731  -0.000099   0.000001   0.000004
     6  C   -0.000004   0.000235  -0.004798   0.000001  -0.000000   0.000000
     7  C    0.000000  -0.000003   0.000277  -0.000000   0.000000  -0.000000
     8  C   -0.000122  -0.000010   0.000308   0.000054  -0.000000   0.000001
     9  C    0.004143  -0.000053   0.004231  -0.003143   0.000081  -0.000105
    10  C   -0.025555  -0.011249  -0.038558  -0.033106   0.004083   0.003940
    11  C   -0.011803  -0.038658   0.366132   0.004123  -0.000159   0.000132
    12  C    0.346641  -0.048746  -0.017240   0.361179  -0.060488  -0.062430
    13  C    5.117033   0.374130  -0.037911  -0.060690  -0.059776   0.369506
    14  C    0.374130   5.125030   0.352860   0.005873   0.006738  -0.045161
    15  C   -0.037911   0.352860   5.095532   0.000230  -0.000232   0.004328
    16  C   -0.060690   0.005873   0.000230   5.109552   0.339399  -0.061282
    17  C   -0.059776   0.006738  -0.000232   0.339399   5.169793   0.357640
    18  C    0.369506  -0.045161   0.004328  -0.061282   0.357640   4.802977
    19  C    0.337520  -0.069389  -0.003114  -0.002929  -0.011147  -0.055178
    20  O   -0.049180  -0.000343   0.000022   0.002235  -0.046629   0.251032
    21  H   -0.000000  -0.000000   0.000002  -0.000000  -0.000000  -0.000000
    22  H   -0.000031   0.000020  -0.006445  -0.000001   0.000000  -0.000000
    23  H   -0.000001  -0.000069  -0.002200   0.000000   0.000000  -0.000000
    24  H   -0.000004   0.000090   0.003427  -0.000000   0.000000   0.000000
    25  H   -0.000000  -0.000000  -0.000028   0.000000  -0.000000  -0.000000
    26  H   -0.000000  -0.000000   0.000000   0.000000  -0.000000   0.000000
    27  H    0.000001  -0.000000   0.000008  -0.000001  -0.000000  -0.000000
    28  H    0.000003   0.000000  -0.000012  -0.000008  -0.000000  -0.000000
    29  H    0.000003  -0.000006   0.000056  -0.000458  -0.000018  -0.000004
    30  H    0.000008  -0.000004  -0.000122   0.003460  -0.000005  -0.000006
    31  H   -0.008270   0.000366  -0.002656  -0.004025  -0.000011   0.000039
    32  H   -0.001234  -0.000600  -0.046319  -0.000052   0.000004  -0.000067
    33  H   -0.054798  -0.006253  -0.000948  -0.044572  -0.002240  -0.002380
    34  H   -0.038715   0.377412  -0.036971   0.000024   0.000085  -0.005861
    35  H   -0.035921   0.369613  -0.033609  -0.000220  -0.000025  -0.003299
    36  H   -0.007562  -0.034975   0.380276  -0.000016   0.000002  -0.000042
    37  H    0.004732  -0.034103   0.380988   0.000008   0.000003  -0.000078
    38  H    0.005453  -0.000139  -0.000004   0.378451  -0.027661   0.002491
    39  H   -0.005699   0.000009  -0.000019   0.384394  -0.032468   0.001917
    40  H    0.003955  -0.000139   0.000003  -0.030933   0.378548  -0.026678
    41  H   -0.003338  -0.000125   0.000004  -0.025819   0.371481  -0.031805
    42  H   -0.069146  -0.010419   0.000109   0.003528  -0.051530   0.388297
    43  H   -0.029394   0.004668   0.000038   0.001598   0.003548  -0.006046
    44  H   -0.029674  -0.005514  -0.000509  -0.000176   0.000004  -0.005483
    45  H   -0.032822  -0.004553   0.001738  -0.000121  -0.000288   0.005063
    46  H   -0.005887   0.002604  -0.000086  -0.000340   0.007112  -0.029347
              19         20         21         22         23         24
     1  C   -0.000000  -0.000000  -0.029057   0.000777  -0.002858   0.003404
     2  O    0.000000   0.000000   0.000835   0.000010   0.000036  -0.000070
     3  C    0.000000   0.000000   0.360134  -0.003385   0.003468  -0.000311
     4  C    0.000000   0.000000  -0.044999  -0.043756  -0.004242   0.004444
     5  C    0.000036  -0.000000   0.004557   0.365449  -0.044248  -0.029662
     6  C    0.000000   0.000000  -0.000439  -0.033884   0.385569   0.375768
     7  C    0.000000   0.000000   0.006175  -0.004125  -0.039695  -0.030022
     8  C   -0.000000  -0.000000  -0.007335   0.000618  -0.000020  -0.000108
     9  C    0.000158   0.000000   0.000225  -0.000617  -0.000038  -0.000007
    10  C   -0.005919  -0.000064  -0.000001  -0.005267   0.000164  -0.000084
    11  C   -0.002193  -0.000003  -0.000074  -0.043439  -0.003450  -0.007990
    12  C   -0.056596   0.003723   0.000000   0.000017  -0.000002  -0.000002
    13  C    0.337520  -0.049180  -0.000000  -0.000031  -0.000001  -0.000004
    14  C   -0.069389  -0.000343  -0.000000   0.000020  -0.000069   0.000090
    15  C   -0.003114   0.000022   0.000002  -0.006445  -0.002200   0.003427
    16  C   -0.002929   0.002235  -0.000000  -0.000001   0.000000  -0.000000
    17  C   -0.011147  -0.046629  -0.000000   0.000000   0.000000   0.000000
    18  C   -0.055178   0.251032  -0.000000  -0.000000  -0.000000   0.000000
    19  C    5.213537   0.005688   0.000000  -0.000048  -0.000000  -0.000001
    20  O    0.005688   8.277124   0.000000  -0.000000  -0.000000   0.000000
    21  H    0.000000   0.000000   0.531499  -0.000203  -0.000070   0.000012
    22  H   -0.000048  -0.000000  -0.000203   0.589572   0.005467  -0.003761
    23  H   -0.000000  -0.000000  -0.000070   0.005467   0.560274  -0.031411
    24  H   -0.000001   0.000000   0.000012  -0.003761  -0.031411   0.553817
    25  H   -0.000000   0.000000  -0.000159   0.003952   0.004864  -0.005077
    26  H    0.000000  -0.000000  -0.000101  -0.000162  -0.003890  -0.002022
    27  H    0.000000   0.000000   0.005268  -0.000104   0.000001   0.000002
    28  H   -0.000003   0.000000   0.000158   0.001882   0.000002   0.000008
    29  H   -0.000002   0.000000  -0.000007   0.000090  -0.000005   0.000001
    30  H   -0.000004  -0.000000  -0.000008  -0.000012   0.000000   0.000000
    31  H    0.001987  -0.000001  -0.000002   0.005492   0.000007   0.000001
    32  H    0.000059   0.000000  -0.000018   0.006085   0.005664   0.000097
    33  H    0.006496   0.000051  -0.000000   0.000003  -0.000002  -0.000000
    34  H    0.006143  -0.000082  -0.000000   0.000004   0.000005   0.000010
    35  H   -0.006677   0.001223   0.000000  -0.000001   0.000001   0.000004
    36  H    0.003226  -0.000002  -0.000000   0.005098   0.000212   0.001271
    37  H    0.000007   0.000000   0.000000   0.000022   0.001201   0.000119
    38  H    0.000076  -0.000034  -0.000000   0.000000   0.000000  -0.000000
    39  H    0.002489  -0.000013   0.000000  -0.000001  -0.000000  -0.000000
    40  H    0.000167   0.001785   0.000000  -0.000000  -0.000000  -0.000000
    41  H    0.001545   0.003151  -0.000000  -0.000000   0.000000   0.000000
    42  H    0.007900  -0.041937  -0.000000  -0.000000   0.000000   0.000000
    43  H    0.380706   0.000158  -0.000000   0.000001   0.000000   0.000000
    44  H    0.374839   0.004672   0.000000   0.000001   0.000000  -0.000000
    45  H    0.374375   0.000353  -0.000000   0.000064  -0.000000  -0.000001
    46  H   -0.001242   0.242825   0.000000  -0.000000   0.000000   0.000000
              25         26         27         28         29         30
     1  C   -0.026741  -0.025740   0.000261  -0.000128  -0.000001   0.000001
     2  O   -0.000837   0.002562  -0.000001   0.000005  -0.000000  -0.000000
     3  C    0.001914   0.004911  -0.002545  -0.007813  -0.000136  -0.000080
     4  C   -0.001077  -0.000194  -0.039892  -0.041281  -0.003022   0.004210
     5  C   -0.003062   0.004042   0.004184   0.000168   0.000424  -0.000018
     6  C   -0.036591  -0.030593  -0.000141   0.000127   0.000008   0.000010
     7  C    0.367320   0.370272   0.000009  -0.000085  -0.000003  -0.000000
     8  C   -0.000021   0.000007   0.379470   0.377165  -0.035986  -0.032332
     9  C   -0.000001   0.000000  -0.030542  -0.038884   0.379198   0.378737
    10  C    0.000002   0.000001   0.003937  -0.004088  -0.038876  -0.031849
    11  C   -0.000003  -0.000062  -0.000122  -0.000898  -0.007741   0.004836
    12  C   -0.000000  -0.000000  -0.000099  -0.000022  -0.004449  -0.006152
    13  C   -0.000000  -0.000000   0.000001   0.000003   0.000003   0.000008
    14  C   -0.000000  -0.000000  -0.000000   0.000000  -0.000006  -0.000004
    15  C   -0.000028   0.000000   0.000008  -0.000012   0.000056  -0.000122
    16  C    0.000000   0.000000  -0.000001  -0.000008  -0.000458   0.003460
    17  C   -0.000000  -0.000000  -0.000000  -0.000000  -0.000018  -0.000005
    18  C   -0.000000   0.000000  -0.000000  -0.000000  -0.000004  -0.000006
    19  C   -0.000000   0.000000   0.000000  -0.000003  -0.000002  -0.000004
    20  O    0.000000  -0.000000   0.000000   0.000000   0.000000  -0.000000
    21  H   -0.000159  -0.000101   0.005268   0.000158  -0.000007  -0.000008
    22  H    0.003952  -0.000162  -0.000104   0.001882   0.000090  -0.000012
    23  H    0.004864  -0.003890   0.000001   0.000002  -0.000005   0.000000
    24  H   -0.005077  -0.002022   0.000002   0.000008   0.000001   0.000000
    25  H    0.530495  -0.021070  -0.000000   0.000009   0.000000   0.000000
    26  H   -0.021070   0.505114  -0.000000  -0.000001  -0.000000   0.000000
    27  H   -0.000000  -0.000000   0.528987  -0.025911  -0.003197  -0.001654
    28  H    0.000009  -0.000001  -0.025911   0.554699   0.004749  -0.005009
    29  H    0.000000  -0.000000  -0.003197   0.004749   0.565276  -0.030942
    30  H    0.000000   0.000000  -0.001654  -0.005009  -0.030942   0.551790
    31  H   -0.000001  -0.000000   0.000013   0.004361   0.005630  -0.003174
    32  H    0.000008  -0.000003  -0.000053   0.000132   0.005937   0.000061
    33  H   -0.000000   0.000000   0.000003   0.000003   0.004753  -0.000062
    34  H    0.000000   0.000000  -0.000000  -0.000000  -0.000007   0.000001
    35  H    0.000000   0.000000   0.000000  -0.000000   0.000000  -0.000000
    36  H    0.000005   0.000000  -0.000000  -0.000001   0.000000   0.000003
    37  H    0.000011   0.000000  -0.000000   0.000000  -0.000004   0.000002
    38  H    0.000000  -0.000000   0.000001   0.000003   0.000239   0.000584
    39  H   -0.000000   0.000000   0.000001  -0.000001   0.000064   0.000514
    40  H    0.000000   0.000000   0.000000   0.000000  -0.000000   0.000002
    41  H   -0.000000   0.000000   0.000000   0.000000  -0.000000   0.000001
    42  H   -0.000000   0.000000   0.000000  -0.000000  -0.000002  -0.000000
    43  H    0.000000   0.000000  -0.000000   0.000000   0.000000   0.000000
    44  H    0.000000  -0.000000   0.000000   0.000000   0.000000  -0.000000
    45  H    0.000000   0.000000  -0.000000  -0.000004  -0.000001   0.000002
    46  H   -0.000000   0.000000   0.000000   0.000000   0.000000   0.000000
              31         32         33         34         35         36
     1  C    0.000003   0.000039   0.000000   0.000000  -0.000000   0.000001
     2  O    0.000000  -0.000000   0.000000   0.000000  -0.000000  -0.000000
     3  C   -0.000174   0.000081  -0.000002  -0.000000  -0.000000  -0.000007
     4  C   -0.003532  -0.003322  -0.000067   0.000003   0.000001   0.000163
     5  C   -0.001960  -0.043349   0.000157   0.000048  -0.000106  -0.002981
     6  C    0.000131  -0.004982   0.000000  -0.000030   0.000003  -0.001904
     7  C   -0.000008  -0.000114  -0.000000  -0.000000  -0.000000  -0.000073
     8  C    0.000025  -0.000135   0.000078   0.000000  -0.000000  -0.000012
     9  C   -0.048879  -0.006351  -0.006050  -0.000032   0.000010  -0.000016
    10  C    0.379213  -0.047562  -0.045785  -0.000362  -0.000119  -0.003249
    11  C   -0.049080   0.375606  -0.006206  -0.003722   0.004171  -0.043040
    12  C   -0.042541  -0.004308   0.381021  -0.006302   0.006425  -0.000366
    13  C   -0.008270  -0.001234  -0.054798  -0.038715  -0.035921  -0.007562
    14  C    0.000366  -0.000600  -0.006253   0.377412   0.369613  -0.034975
    15  C   -0.002656  -0.046319  -0.000948  -0.036971  -0.033609   0.380276
    16  C   -0.004025  -0.000052  -0.044572   0.000024  -0.000220  -0.000016
    17  C   -0.000011   0.000004  -0.002240   0.000085  -0.000025   0.000002
    18  C    0.000039  -0.000067  -0.002380  -0.005861  -0.003299  -0.000042
    19  C    0.001987   0.000059   0.006496   0.006143  -0.006677   0.003226
    20  O   -0.000001   0.000000   0.000051  -0.000082   0.001223  -0.000002
    21  H   -0.000002  -0.000018  -0.000000  -0.000000   0.000000  -0.000000
    22  H    0.005492   0.006085   0.000003   0.000004  -0.000001   0.005098
    23  H    0.000007   0.005664  -0.000002   0.000005   0.000001   0.000212
    24  H    0.000001   0.000097  -0.000000   0.000010   0.000004   0.001271
    25  H   -0.000001   0.000008  -0.000000   0.000000   0.000000   0.000005
    26  H   -0.000000  -0.000003   0.000000   0.000000   0.000000   0.000000
    27  H    0.000013  -0.000053   0.000003  -0.000000   0.000000  -0.000000
    28  H    0.004361   0.000132   0.000003  -0.000000  -0.000000  -0.000001
    29  H    0.005630   0.005937   0.004753  -0.000007   0.000000   0.000000
    30  H   -0.003174   0.000061  -0.000062   0.000001  -0.000000   0.000003
    31  H    0.610335   0.006069   0.006166   0.000041  -0.000008   0.001601
    32  H    0.006069   0.610557   0.005006   0.003212  -0.000072   0.005547
    33  H    0.006166   0.005006   0.622813   0.005171   0.000021   0.000076
    34  H    0.000041   0.003212   0.005171   0.576167  -0.032123   0.004951
    35  H   -0.000008  -0.000072   0.000021  -0.032123   0.589015  -0.004448
    36  H    0.001601   0.005547   0.000076   0.004951  -0.004448   0.575083
    37  H   -0.000077  -0.005624  -0.000088  -0.004950  -0.001880  -0.033362
    38  H   -0.000145  -0.000001  -0.006313  -0.000002   0.000003   0.000000
    39  H    0.004156   0.000004   0.005308  -0.000005   0.000004  -0.000004
    40  H    0.000001  -0.000000   0.000489  -0.000015   0.000001  -0.000000
    41  H   -0.000010  -0.000000  -0.000036   0.000000   0.000000  -0.000000
    42  H   -0.000012  -0.000009   0.005279   0.006693   0.000046  -0.000003
    43  H    0.000091   0.000001  -0.000064  -0.000132  -0.000011  -0.000021
    44  H   -0.000040   0.000002  -0.000109   0.000066   0.005068   0.000435
    45  H    0.003644  -0.000015   0.000021  -0.000086  -0.000146   0.001142
    46  H    0.000000   0.000000  -0.000004  -0.000034   0.002964  -0.000001
              37         38         39         40         41         42
     1  C   -0.000012   0.000000   0.000000   0.000000   0.000000   0.000000
     2  O   -0.000000  -0.000000  -0.000000  -0.000000  -0.000000  -0.000000
     3  C    0.000017   0.000000  -0.000000   0.000000   0.000000  -0.000000
     4  C   -0.000142  -0.000001  -0.000001   0.000000  -0.000000   0.000000
     5  C   -0.006898   0.000001   0.000001  -0.000000  -0.000000  -0.000000
     6  C    0.003131  -0.000000   0.000000   0.000000   0.000000  -0.000000
     7  C    0.000120  -0.000000  -0.000000  -0.000000  -0.000000  -0.000000
     8  C   -0.000010  -0.000010  -0.000027  -0.000000  -0.000000  -0.000000
     9  C   -0.000118   0.001387  -0.000574  -0.000004   0.000002   0.000008
    10  C    0.004056  -0.001411  -0.004134  -0.000061  -0.000128  -0.000255
    11  C   -0.029996  -0.000076   0.000069   0.000003   0.000002  -0.000009
    12  C    0.000113  -0.026558  -0.038953   0.001511   0.003286  -0.002679
    13  C    0.004732   0.005453  -0.005699   0.003955  -0.003338  -0.069146
    14  C   -0.034103  -0.000139   0.000009  -0.000139  -0.000125  -0.010419
    15  C    0.380988  -0.000004  -0.000019   0.000003   0.000004   0.000109
    16  C    0.000008   0.378451   0.384394  -0.030933  -0.025819   0.003528
    17  C    0.000003  -0.027661  -0.032468   0.378548   0.371481  -0.051530
    18  C   -0.000078   0.002491   0.001917  -0.026678  -0.031805   0.388297
    19  C    0.000007   0.000076   0.002489   0.000167   0.001545   0.007900
    20  O    0.000000  -0.000034  -0.000013   0.001785   0.003151  -0.041937
    21  H    0.000000  -0.000000   0.000000   0.000000  -0.000000  -0.000000
    22  H    0.000022   0.000000  -0.000001  -0.000000  -0.000000  -0.000000
    23  H    0.001201   0.000000  -0.000000  -0.000000   0.000000   0.000000
    24  H    0.000119  -0.000000  -0.000000  -0.000000   0.000000   0.000000
    25  H    0.000011   0.000000  -0.000000   0.000000  -0.000000  -0.000000
    26  H    0.000000  -0.000000   0.000000   0.000000   0.000000   0.000000
    27  H   -0.000000   0.000001   0.000001   0.000000   0.000000   0.000000
    28  H    0.000000   0.000003  -0.000001   0.000000   0.000000  -0.000000
    29  H   -0.000004   0.000239   0.000064  -0.000000  -0.000000  -0.000002
    30  H    0.000002   0.000584   0.000514   0.000002   0.000001  -0.000000
    31  H   -0.000077  -0.000145   0.004156   0.000001  -0.000010  -0.000012
    32  H   -0.005624  -0.000001   0.000004  -0.000000  -0.000000  -0.000009
    33  H   -0.000088  -0.006313   0.005308   0.000489  -0.000036   0.005279
    34  H   -0.004950  -0.000002  -0.000005  -0.000015   0.000000   0.006693
    35  H   -0.001880   0.000003   0.000004   0.000001   0.000000   0.000046
    36  H   -0.033362   0.000000  -0.000004  -0.000000  -0.000000  -0.000003
    37  H    0.555904  -0.000000  -0.000000  -0.000000  -0.000000  -0.000005
    38  H   -0.000000   0.549851  -0.034555  -0.006332   0.002380  -0.000134
    39  H   -0.000000  -0.034555   0.564807   0.003502  -0.008749  -0.000171
    40  H   -0.000000  -0.006332   0.003502   0.539402  -0.027745  -0.006828
    41  H   -0.000000   0.002380  -0.008749  -0.027745   0.528921   0.005084
    42  H   -0.000005  -0.000134  -0.000171  -0.006828   0.005084   0.639845
    43  H   -0.000000   0.000029   0.000582  -0.000036   0.001008   0.000083
    44  H   -0.000036  -0.000001   0.000010  -0.000003   0.000059   0.000061
    45  H    0.000039  -0.000020   0.000151   0.000000   0.000034  -0.000073
    46  H    0.000003   0.000004   0.000004  -0.000209  -0.000056  -0.001588
              43         44         45         46
     1  C   -0.000000   0.000000   0.000000  -0.000000
     2  O   -0.000000   0.000000  -0.000000   0.000000
     3  C    0.000000  -0.000000  -0.000000  -0.000000
     4  C    0.000000  -0.000000   0.000000   0.000000
     5  C   -0.000002  -0.000003   0.000041  -0.000000
     6  C   -0.000000   0.000000   0.000003   0.000000
     7  C    0.000000   0.000000  -0.000000   0.000000
     8  C   -0.000000  -0.000000   0.000010   0.000000
     9  C   -0.000019   0.000000  -0.000040   0.000000
    10  C   -0.000040  -0.000016   0.001841  -0.000004
    11  C    0.000024   0.000082  -0.000397   0.000001
    12  C   -0.003670   0.005471  -0.006296   0.000387
    13  C   -0.029394  -0.029674  -0.032822  -0.005887
    14  C    0.004668  -0.005514  -0.004553   0.002604
    15  C    0.000038  -0.000509   0.001738  -0.000086
    16  C    0.001598  -0.000176  -0.000121  -0.000340
    17  C    0.003548   0.000004  -0.000288   0.007112
    18  C   -0.006046  -0.005483   0.005063  -0.029347
    19  C    0.380706   0.374839   0.374375  -0.001242
    20  O    0.000158   0.004672   0.000353   0.242825
    21  H   -0.000000   0.000000  -0.000000   0.000000
    22  H    0.000001   0.000001   0.000064  -0.000000
    23  H    0.000000   0.000000  -0.000000   0.000000
    24  H    0.000000  -0.000000  -0.000001   0.000000
    25  H    0.000000   0.000000   0.000000  -0.000000
    26  H    0.000000  -0.000000   0.000000   0.000000
    27  H   -0.000000   0.000000  -0.000000   0.000000
    28  H    0.000000   0.000000  -0.000004   0.000000
    29  H    0.000000   0.000000  -0.000001   0.000000
    30  H    0.000000  -0.000000   0.000002   0.000000
    31  H    0.000091  -0.000040   0.003644   0.000000
    32  H    0.000001   0.000002  -0.000015   0.000000
    33  H   -0.000064  -0.000109   0.000021  -0.000004
    34  H   -0.000132   0.000066  -0.000086  -0.000034
    35  H   -0.000011   0.005068  -0.000146   0.002964
    36  H   -0.000021   0.000435   0.001142  -0.000001
    37  H   -0.000000  -0.000036   0.000039   0.000003
    38  H    0.000029  -0.000001  -0.000020   0.000004
    39  H    0.000582   0.000010   0.000151   0.000004
    40  H   -0.000036  -0.000003   0.000000  -0.000209
    41  H    0.001008   0.000059   0.000034  -0.000056
    42  H    0.000083   0.000061  -0.000073  -0.001588
    43  H    0.524030  -0.024728  -0.028421   0.000092
    44  H   -0.024728   0.546116  -0.029650   0.001563
    45  H   -0.028421  -0.029650   0.555017  -0.000100
    46  H    0.000092   0.001563  -0.000100   0.374994
 Mulliken charges:
               1
     1  C    0.453165
     2  O   -0.515052
     3  C   -0.272236
     4  C    0.161681
     5  C   -0.178252
     6  C   -0.332985
     7  C   -0.403194
     8  C   -0.383297
     9  C   -0.307455
    10  C   -0.128471
    11  C   -0.116349
    12  C   -0.120712
    13  C    0.004331
    14  C   -0.312735
    15  C   -0.320228
    16  C   -0.326118
    17  C   -0.345846
    18  C    0.147887
    19  C   -0.502509
    20  O   -0.655757
    21  H    0.173606
    22  H    0.160619
    23  H    0.165265
    24  H    0.168057
    25  H    0.186090
    26  H    0.196927
    27  H    0.182120
    28  H    0.180674
    29  H    0.158437
    30  H    0.167212
    31  H    0.135231
    32  H    0.140020
    33  H    0.133065
    34  H    0.149393
    35  H    0.140092
    36  H    0.152992
    37  H    0.166907
    38  H    0.162440
    39  H    0.157389
    40  H    0.169616
    41  H    0.180855
    42  H    0.127867
    43  H    0.175927
    44  H    0.157493
    45  H    0.159498
    46  H    0.406344
 Sum of Mulliken charges =  -0.00000
 Mulliken charges with hydrogens summed into heavy atoms:
               1
     1  C    0.453165
     2  O   -0.515052
     3  C   -0.098630
     4  C    0.161681
     5  C   -0.017633
     6  C    0.000337
     7  C   -0.020178
     8  C   -0.020503
     9  C    0.018194
    10  C    0.006760
    11  C    0.023671
    12  C    0.012353
    13  C    0.004331
    14  C   -0.023250
    15  C   -0.000329
    16  C   -0.006289
    17  C    0.004624
    18  C    0.275754
    19  C   -0.009592
    20  O   -0.249412
 Electronic spatial extent (au):  <R**2>=           6914.1644
 Charge=             -0.0000 electrons
 Dipole moment (field-independent basis, Debye):
    X=             -3.4341    Y=             -0.3646    Z=              0.2778  Tot=              3.4646
 Quadrupole moment (field-independent basis, Debye-Ang):
   XX=           -173.9728   YY=           -111.5915   ZZ=           -119.0497
   XY=              0.2630   XZ=              3.5213   YZ=              0.3167
 Traceless Quadrupole moment (field-independent basis, Debye-Ang):
   XX=            -39.1015   YY=             23.2799   ZZ=             15.8216
   XY=              0.2630   XZ=              3.5213   YZ=              0.3167
 Octapole moment (field-independent basis, Debye-Ang**2):
  XXX=           -190.9440  YYY=            -13.1718  ZZZ=             -0.6088  XYY=             -5.5044
  XXY=             -3.4249  XXZ=              7.1252  XZZ=             -0.4298  YZZ=             -1.6792
  YYZ=             -1.6267  XYZ=             -1.4234
 Hexadecapole moment (field-independent basis, Debye-Ang**3):
 XXXX=          -9669.6825 YYYY=          -1398.8938 ZZZZ=           -401.5844 XXXY=            -26.5897
 XXXZ=             70.1315 YYYX=             84.9719 YYYZ=             -2.1977 ZZZX=              9.9517
 ZZZY=              3.5923 XXYY=          -1295.6050 XXZZ=          -1239.0406 YYZZ=           -308.4764
 XXYZ=              0.0680 YYXZ=             -0.5880 ZZXY=             -5.8659
 N-N= 1.662944142244D+03 E-N=-5.302675728430D+03  KE= 8.439100019788D+02

 **********************************************************************

            Electrostatic Properties Using The SCF Density.

 **********************************************************************

       Atomic Center    1 is at   4.689193 -0.162297 -0.069811
       Atomic Center    2 is at   5.935139 -0.088934 -0.157221
       Atomic Center    3 is at   3.845102  0.989266 -0.175782
       Atomic Center    4 is at   2.510449  0.924576  0.081469
       Atomic Center    5 is at   1.793786 -0.391613  0.299601
       Atomic Center    6 is at   2.618429 -1.575137 -0.211268
       Atomic Center    7 is at   4.068880 -1.499353  0.236489
       Atomic Center    8 is at   1.722433  2.170627  0.289585
       Atomic Center    9 is at   0.291259  2.122087 -0.247866
       Atomic Center   10 is at  -0.425340  0.844841  0.192406
       Atomic Center   11 is at   0.376149 -0.373937 -0.317062
       Atomic Center   12 is at  -1.861074  0.757539 -0.315073
       Atomic Center   13 is at  -2.568215 -0.562581  0.056052
       Atomic Center   14 is at  -1.797234 -1.722143 -0.569592
       Atomic Center   15 is at  -0.334663 -1.723991 -0.114084
       Atomic Center   16 is at  -2.875585  1.831555  0.097799
       Atomic Center   17 is at  -4.247627  1.181209 -0.221796
       Atomic Center   18 is at  -3.950502 -0.293316 -0.568395
       Atomic Center   19 is at  -2.714075 -0.774229  1.573323
       Atomic Center   20 is at  -5.007618 -1.126458 -0.123456
       Atomic Center   21 is at   4.330141  1.945995 -0.346738
       Atomic Center   22 is at   1.674487 -0.479283  1.393593
       Atomic Center   23 is at   2.575609 -1.585348 -1.309488
       Atomic Center   24 is at   2.187983 -2.520701  0.131179
       Atomic Center   25 is at   4.142039 -1.645603  1.324305
       Atomic Center   26 is at   4.676464 -2.279918 -0.233279
       Atomic Center   27 is at   2.264868  3.032473 -0.106100
       Atomic Center   28 is at   1.711492  2.298126  1.392392
       Atomic Center   29 is at   0.305260  2.173051 -1.346484
       Atomic Center   30 is at  -0.246271  3.007434  0.105322
       Atomic Center   31 is at  -0.430900  0.834671  1.292474
       Atomic Center   32 is at   0.497313 -0.234839 -1.405475
       Atomic Center   33 is at  -1.806104  0.773002 -1.418219
       Atomic Center   34 is at  -1.835405 -1.628691 -1.665054
       Atomic Center   35 is at  -2.251564 -2.687680 -0.311807
       Atomic Center   36 is at  -0.280122 -2.017544  0.943247
       Atomic Center   37 is at   0.194971 -2.501695 -0.674380
       Atomic Center   38 is at  -2.726778  2.775719 -0.427666
       Atomic Center   39 is at  -2.776678  2.056895  1.164554
       Atomic Center   40 is at  -4.753778  1.687782 -1.049552
       Atomic Center   41 is at  -4.927054  1.210163  0.635619
       Atomic Center   42 is at  -3.846162 -0.398965 -1.662433
       Atomic Center   43 is at  -3.388505 -0.042067  2.025994
       Atomic Center   44 is at  -3.113084 -1.772233  1.781953
       Atomic Center   45 is at  -1.752378 -0.697109  2.087935
       Atomic Center   46 is at  -4.694204 -2.039122 -0.172442
 -----------------------------------------------------------------

              Electrostatic Properties (Atomic Units)

 -----------------------------------------------------------------
    Center     Electric         -------- Electric Field --------
               Potential          X             Y             Z
 -----------------------------------------------------------------
    1 Atom    -14.672446      0.005256     -0.002540     -0.000532
    2 Atom    -22.354907      0.103121      0.005930     -0.007555
    3 Atom    -14.745533     -0.009738      0.000032      0.001973
    4 Atom    -14.707686      0.012256      0.000002     -0.003198
    5 Atom    -14.716400     -0.002187     -0.003359     -0.001715
    6 Atom    -14.731428     -0.000079     -0.001065     -0.000217
    7 Atom    -14.740102      0.000853     -0.000516     -0.002235
    8 Atom    -14.723785     -0.001323      0.002177     -0.000550
    9 Atom    -14.730084     -0.002695     -0.001527     -0.000289
   10 Atom    -14.727884     -0.000951     -0.000225     -0.001194
   11 Atom    -14.722931     -0.001734      0.001006      0.000265
   12 Atom    -14.734715     -0.000411     -0.001227      0.002635
   13 Atom    -14.730883     -0.001336      0.001871     -0.002291
   14 Atom    -14.734366     -0.001258      0.003922      0.000882
   15 Atom    -14.732454      0.000016     -0.000088     -0.000110
   16 Atom    -14.738819      0.001380     -0.000152      0.000153
   17 Atom    -14.743861     -0.002682     -0.001102      0.000915
   18 Atom    -14.691938      0.018780      0.012919     -0.005801
   19 Atom    -14.745676     -0.000439      0.000768     -0.001201
   20 Atom    -22.313454     -0.102566      0.040288      0.034643
   21 Atom     -1.104775      0.016811      0.028626     -0.004837
   22 Atom     -1.102537     -0.004790     -0.006244      0.030987
   23 Atom     -1.116820     -0.001180     -0.001402     -0.029813
   24 Atom     -1.116567     -0.012738     -0.025764      0.008361
   25 Atom     -1.105988      0.003501     -0.005961      0.028895
   26 Atom     -1.115535      0.019242     -0.018302     -0.011276
   27 Atom     -1.107811      0.015419      0.025233     -0.011236
   28 Atom     -1.098965     -0.004040      0.008488      0.024653
   29 Atom     -1.115441     -0.000197      0.002932     -0.029125
   30 Atom     -1.116098     -0.016730      0.024746      0.008491
   31 Atom     -1.117655     -0.002153     -0.000923      0.031579
   32 Atom     -1.117634      0.003436      0.003217     -0.030119
   33 Atom     -1.122210      0.001431      0.001014     -0.030022
   34 Atom     -1.118017     -0.001931      0.000938     -0.029413
   35 Atom     -1.115379     -0.011299     -0.027753      0.005689
   36 Atom     -1.117493      0.001822     -0.008987      0.028521
   37 Atom     -1.118367      0.014762     -0.021106     -0.013930
   38 Atom     -1.124538      0.003683      0.027342     -0.016134
   39 Atom     -1.124474      0.001429      0.006245      0.030297
   40 Atom     -1.127452     -0.014859      0.012877     -0.021129
   41 Atom     -1.127029     -0.019891     -0.000849      0.022155
   42 Atom     -1.131625      0.001015     -0.002948     -0.030381
   43 Atom     -1.120252     -0.020002      0.016876      0.013253
   44 Atom     -1.118639     -0.013033     -0.024749      0.008360
   45 Atom     -1.118163      0.025093      0.001366      0.015674
   46 Atom     -0.997692      0.009013     -0.043268     -0.001804
 -----------------------------------------------------------------
 -----------------------------------------------------
    Center         ---- Electric Field Gradient ----
                     XX            YY            ZZ
 -----------------------------------------------------
    1 Atom     -493.257977   -493.194654   -493.923842
    2 Atom    -1217.237513  -1214.654609  -1217.615485
    3 Atom     -493.095083   -493.155047   -493.387796
    4 Atom     -493.190483   -493.271760   -493.827750
    5 Atom     -492.739068   -492.777914   -492.754342
    6 Atom     -492.612764   -492.593446   -492.584057
    7 Atom     -492.703547   -492.711280   -492.708338
    8 Atom     -492.579937   -492.612108   -492.601028
    9 Atom     -492.660813   -492.607167   -492.616907
   10 Atom     -492.749098   -492.770066   -492.751131
   11 Atom     -492.816170   -492.783112   -492.783516
   12 Atom     -492.898423   -492.911890   -492.895691
   13 Atom     -492.922901   -492.935145   -492.972723
   14 Atom     -492.719163   -492.695891   -492.698427
   15 Atom     -492.631237   -492.625704   -492.597022
   16 Atom     -492.651169   -492.592361   -492.570783
   17 Atom     -492.640136   -492.663252   -492.587143
   18 Atom     -492.857948   -492.791639   -492.660402
   19 Atom     -492.532931   -492.546115   -492.585601
   20 Atom    -1214.512343  -1215.940427  -1212.917541
   21 Atom       -1.693819     -1.956826     -1.601859
   22 Atom       -1.621203     -1.621384     -2.016836
   23 Atom       -1.622715     -1.617763     -2.039304
   24 Atom       -1.700068     -1.952103     -1.669436
   25 Atom       -1.599466     -1.605617     -2.011018
   26 Atom       -1.732165     -1.822489     -1.680685
   27 Atom       -1.731813     -1.892612     -1.673998
   28 Atom       -1.595891     -1.602872     -1.986658
   29 Atom       -1.620670     -1.619818     -2.037828
   30 Atom       -1.732722     -1.909443     -1.669287
   31 Atom       -1.637694     -1.636627     -2.051945
   32 Atom       -1.639513     -1.642178     -2.026839
   33 Atom       -1.645452     -1.638817     -2.040762
   34 Atom       -1.625216     -1.626217     -2.038757
   35 Atom       -1.708479     -1.959020     -1.650348
   36 Atom       -1.626395     -1.652664     -2.016138
   37 Atom       -1.734151     -1.846496     -1.740280
   38 Atom       -1.638460     -1.961804     -1.734185
   39 Atom       -1.630415     -1.643203     -2.039898
   40 Atom       -1.714662     -1.718728     -1.874286
   41 Atom       -1.774666     -1.609813     -1.880072
   42 Atom       -1.678076     -1.677127     -2.064964
   43 Atom       -1.765875     -1.801216     -1.682182
   44 Atom       -1.660135     -1.972351     -1.626902
   45 Atom       -1.955730     -1.611305     -1.710226
   46 Atom       -1.530607     -2.053713     -1.423044
 -----------------------------------------------------
 -----------------------------------------------------
    Center         ---- Electric Field Gradient ----
                     XY            XZ            YZ
 -----------------------------------------------------
    1 Atom       -0.020005     -0.036437     -0.129316
    2 Atom       -0.157846      0.014405     -0.503530
    3 Atom       -0.011054     -0.053557     -0.027995
    4 Atom       -0.006492     -0.118306     -0.011715
    5 Atom       -0.024876     -0.011912      0.000586
    6 Atom        0.025711     -0.000299     -0.026736
    7 Atom       -0.009164     -0.030190      0.005140
    8 Atom        0.024324     -0.023198     -0.011830
    9 Atom       -0.009068     -0.020857      0.020082
   10 Atom        0.000239      0.007556     -0.003267
   11 Atom       -0.007609     -0.018461     -0.008450
   12 Atom        0.009569     -0.009182      0.005089
   13 Atom        0.000739      0.009297      0.004899
   14 Atom       -0.014740     -0.007765     -0.011186
   15 Atom       -0.020599     -0.010317      0.015706
   16 Atom       -0.003394     -0.003472     -0.018051
   17 Atom       -0.017843     -0.019938     -0.036444
   18 Atom       -0.194620      0.103254      0.105347
   19 Atom       -0.007063      0.000423      0.013736
   20 Atom       -0.337212      0.720611      0.376477
   21 Atom       -0.171784      0.033506      0.063709
   22 Atom       -0.003480      0.045729      0.034249
   23 Atom        0.002639     -0.017068     -0.004481
   24 Atom       -0.146965      0.053651      0.117489
   25 Atom        0.001082     -0.025921      0.056295
   26 Atom        0.168769      0.101575     -0.133372
   27 Atom       -0.168380      0.079156      0.126876
   28 Atom        0.003742      0.007533     -0.047347
   29 Atom       -0.002604      0.004839      0.018715
   30 Atom        0.171601      0.068413     -0.114292
   31 Atom       -0.001631      0.002130      0.005556
   32 Atom       -0.005635      0.043312      0.050567
   33 Atom       -0.000975      0.019907      0.005011
   34 Atom        0.003062     -0.014776      0.036013
   35 Atom       -0.156489      0.042973      0.088640
   36 Atom        0.002998     -0.021344      0.108300
   37 Atom        0.146759      0.106407     -0.156948
   38 Atom       -0.052942      0.028740      0.187446
   39 Atom       -0.008103     -0.036844     -0.085785
   40 Atom        0.091765     -0.152553      0.152216
   41 Atom        0.008771      0.209801     -0.011650
   42 Atom       -0.001793      0.040397     -0.038021
   43 Atom        0.184373      0.112321     -0.119340
   44 Atom       -0.148242      0.030057      0.072984
   45 Atom       -0.028190     -0.180846     -0.013660
   46 Atom        0.196647      0.028411     -0.027187
 -----------------------------------------------------
 -----------------------------------------------------
    Center         ---- Electric Field Gradient ----
                   ----       Eigenvalues       ----
 -----------------------------------------------------
    1 Atom     -493.948335   -493.257876   -493.170263
    2 Atom    -1217.699067  -1217.246559  -1214.561981
    3 Atom     -493.400828   -493.152041   -493.085056
    4 Atom     -493.849282   -493.271663   -493.169046
    5 Atom     -492.790691   -492.757584   -492.723050
    6 Atom     -492.635727   -492.598511   -492.556030
    7 Atom     -492.736481   -492.713755   -492.672928
    8 Atom     -492.625209   -492.615059   -492.552805
    9 Atom     -492.669159   -492.629885   -492.585843
   10 Atom     -492.770730   -492.757217   -492.742348
   11 Atom     -492.826980   -492.783134   -492.772684
   12 Atom     -492.920154   -492.898385   -492.887464
   13 Atom     -492.974955   -492.934778   -492.921036
   14 Atom     -492.730803   -492.698163   -492.684515
   15 Atom     -492.649405   -492.621630   -492.582928
   16 Atom     -492.651633   -492.602158   -492.560522
   17 Atom     -492.689769   -492.630434   -492.570327
   18 Atom     -493.074367   -492.634001   -492.601619
   19 Atom     -492.590023   -492.545302   -492.529323
   20 Atom    -1216.109141  -1214.637440  -1212.623730
   21 Atom       -2.053138     -1.609157     -1.590211
   22 Atom       -2.024989     -1.618518     -1.615915
   23 Atom       -2.040047     -1.623413     -1.616322
   24 Atom       -2.062159     -1.632509     -1.626939
   25 Atom       -2.020276     -1.600337     -1.595489
   26 Atom       -2.032028     -1.602777     -1.600534
   27 Atom       -2.057166     -1.625668     -1.615590
   28 Atom       -1.992572     -1.599315     -1.593535
   29 Atom       -2.038723     -1.622317     -1.617276
   30 Atom       -2.059557     -1.628310     -1.623584
   31 Atom       -2.052031     -1.638816     -1.635419
   32 Atom       -2.038161     -1.635643     -1.634726
   33 Atom       -2.041825     -1.644542     -1.638664
   34 Atom       -2.042415     -1.625830     -1.621945
   35 Atom       -2.058006     -1.633313     -1.626528
   36 Atom       -2.047046     -1.627110     -1.621041
   37 Atom       -2.059940     -1.633403     -1.627585
   38 Atom       -2.075586     -1.630596     -1.628268
   39 Atom       -2.060959     -1.627231     -1.625326
   40 Atom       -2.059380     -1.626016     -1.622281
   41 Atom       -2.044178     -1.611084     -1.609289
   42 Atom       -2.072718     -1.679392     -1.668057
   43 Atom       -2.043151     -1.608470     -1.597653
   44 Atom       -2.046373     -1.612116     -1.600899
   45 Atom       -2.053764     -1.614635     -1.608862
   46 Atom       -2.121126     -1.471596     -1.414642
 -----------------------------------------------------
 -----------------------------------------------------
    Center         ---- Electric Field Gradient ----
                       ( tensor representation )
                   3XX-RR        3YY-RR        3ZZ-RR
 -----------------------------------------------------
    1 Atom        0.200847      0.264171     -0.465018
    2 Atom       -0.734977      1.847927     -1.112949
    3 Atom        0.117559      0.057595     -0.175154
    4 Atom        0.239515      0.158238     -0.397753
    5 Atom        0.018040     -0.020806      0.002766
    6 Atom       -0.016009      0.003309      0.012699
    7 Atom        0.004175     -0.003558     -0.000616
    8 Atom        0.017754     -0.014417     -0.003337
    9 Atom       -0.032518      0.021129      0.011389
   10 Atom        0.007666     -0.013301      0.005634
   11 Atom       -0.021904      0.011154      0.010750
   12 Atom        0.003578     -0.009889      0.006310
   13 Atom        0.020689      0.008445     -0.029134
   14 Atom       -0.014670      0.008603      0.006067
   15 Atom       -0.013249     -0.007717      0.020966
   16 Atom       -0.046398      0.012410      0.033988
   17 Atom       -0.009959     -0.033075      0.043034
   18 Atom       -0.087952     -0.021643      0.109594
   19 Atom        0.021952      0.008767     -0.030719
   20 Atom       -0.055573     -1.483657      1.539230
   21 Atom        0.057016     -0.205991      0.148976
   22 Atom        0.131938      0.131757     -0.263695
   23 Atom        0.137212      0.142164     -0.279376
   24 Atom        0.073801     -0.178234      0.104433
   25 Atom        0.139234      0.133083     -0.272318
   26 Atom        0.012948     -0.077376      0.064427
   27 Atom        0.034328     -0.126471      0.092143
   28 Atom        0.132583      0.125601     -0.258184
   29 Atom        0.138769      0.139621     -0.278389
   30 Atom        0.037762     -0.138959      0.101197
   31 Atom        0.137728      0.138795     -0.276523
   32 Atom        0.129997      0.127332     -0.257329
   33 Atom        0.129558      0.136193     -0.265752
   34 Atom        0.138181      0.137180     -0.275360
   35 Atom        0.064137     -0.186405      0.122268
   36 Atom        0.138671      0.112402     -0.251073
   37 Atom        0.039491     -0.072854      0.033362
   38 Atom        0.139690     -0.183655      0.043965
   39 Atom        0.140757      0.127969     -0.268726
   40 Atom        0.054564      0.050497     -0.105061
   41 Atom       -0.019816      0.145037     -0.125222
   42 Atom        0.128647      0.129595     -0.258242
   43 Atom       -0.016117     -0.051459      0.067576
   44 Atom        0.092994     -0.219221      0.126227
   45 Atom       -0.196643      0.147782      0.048861
   46 Atom        0.138514     -0.384592      0.246077
 -----------------------------------------------------
 -----------------------------------------------------
    Center         ---- Electric Field Gradient ----
                       ( tensor representation )
                   ----       Eigenvalues       ----
 -----------------------------------------------------
    1 Atom       -0.489510      0.200948      0.288562
    2 Atom       -1.196531     -0.744023      1.940555
    3 Atom       -0.188186      0.060601      0.127586
    4 Atom       -0.419285      0.158334      0.260951
    5 Atom       -0.033583     -0.000475      0.034059
    6 Atom       -0.038971     -0.001755      0.040726
    7 Atom       -0.028760     -0.006034      0.034794
    8 Atom       -0.027518     -0.017368      0.044886
    9 Atom       -0.040863     -0.001589      0.042452
   10 Atom       -0.013965     -0.000452      0.014417
   11 Atom       -0.032714      0.011132      0.021582
   12 Atom       -0.018153      0.003616      0.014537
   13 Atom       -0.031365      0.008811      0.022554
   14 Atom       -0.026309      0.006331      0.019979
   15 Atom       -0.031417     -0.003643      0.035060
   16 Atom       -0.046862      0.002613      0.044249
   17 Atom       -0.059592     -0.000257      0.059850
   18 Atom       -0.304371      0.135995      0.168377
   19 Atom       -0.035140      0.009581      0.025559
   20 Atom       -1.652370     -0.180670      1.833040
   21 Atom       -0.302303      0.141678      0.160624
   22 Atom       -0.271848      0.134622      0.137225
   23 Atom       -0.280120      0.136514      0.143605
   24 Atom       -0.288290      0.141360      0.146930
   25 Atom       -0.281575      0.138364      0.143212
   26 Atom       -0.286915      0.142336      0.144579
   27 Atom       -0.291025      0.140473      0.150551
   28 Atom       -0.264098      0.129159      0.134939
   29 Atom       -0.279284      0.137122      0.142163
   30 Atom       -0.289073      0.142173      0.146900
   31 Atom       -0.276609      0.136606      0.140003
   32 Atom       -0.268651      0.133867      0.134784
   33 Atom       -0.266815      0.130468      0.136347
   34 Atom       -0.279018      0.137567      0.141452
   35 Atom       -0.285390      0.139303      0.146088
   36 Atom       -0.281980      0.137956      0.144025
   37 Atom       -0.286297      0.140240      0.146058
   38 Atom       -0.297436      0.147554      0.149882
   39 Atom       -0.289787      0.143941      0.145846
   40 Atom       -0.290154      0.143209      0.146945
   41 Atom       -0.289328      0.143766      0.145562
   42 Atom       -0.265996      0.127331      0.138665
   43 Atom       -0.293393      0.141288      0.152105
   44 Atom       -0.293244      0.141014      0.152231
   45 Atom       -0.294677      0.144452      0.150225
   46 Atom       -0.452004      0.197525      0.254479
 -----------------------------------------------------
 Unable to Open any file for archive entry.
 1\1\GINC-EXP-5-45\SP\RwB97XD\6-31G(d)\C18H26O2\HKLEM\08-Aug-2024\0\\# 
 wb97xd 6-31G(d) prop=efg\\19nt_mm_min_distance_cutoff4_nowat_ligand_co
 nf_1\\0,1\C,0,2.9441,0.1417,-0.1007\O,0,4.1412,-0.0095,0.2302\C,0,2.07
 ,-0.9667,-0.3399\C,0,0.822,-0.796,-0.8547\C,0,0.1988,0.5741,-1.022\C,0
 ,0.924,1.6304,-0.1853\C,0,2.4342,1.5394,-0.3304\C,0,0.067,-1.9577,-1.4
 \C,0,-1.444,-1.907,-1.1681\C,0,-2.021,-0.5449,-1.556\C,0,-1.3173,0.547
 7,-0.7203\C,0,-3.5292,-0.4515,-1.3484\C,0,-4.1106,0.943,-1.6612\C,0,-3
 .4627,1.9627,-0.728\C,0,-1.9372,1.9489,-0.8668\C,0,-4.4581,-1.4028,-2.
 1135\C,0,-5.8511,-0.7301,-1.9926\C,0,-5.5997,0.6648,-1.3813\C,0,-3.926
 8,1.3686,-3.1286\O,0,-6.5188,1.6065,-1.9086\H,0,2.4853,-1.9624,-0.2137
 \H,0,0.316,0.8175,-2.0924\H,0,0.6498,1.4919,0.87\H,0,0.5981,2.6357,-0.
 4678\H,0,2.7395,1.8296,-1.3466\H,0,2.9466,2.2144,0.3631\H,0,0.493,-2.8
 935,-1.0307\H,0,0.2869,-1.9317,-2.4879\H,0,-1.6642,-2.1091,-0.1096\H,0
 ,-1.9151,-2.7054,-1.7496\H,0,-1.7932,-0.3834,-2.6201\H,0,-1.4327,0.254
 1,0.3376\H,0,-3.7095,-0.6213,-0.2719\H,0,-3.7342,1.7218,0.3105\H,0,-3.
 8294,2.9774,-0.9306\H,0,-1.6531,2.3816,-1.8359\H,0,-1.5202,2.6128,-0.1
 022\H,0,-4.4461,-2.4168,-1.7118\H,0,-4.1408,-1.4844,-3.1581\H,0,-6.532
 8,-1.3178,-1.3698\H,0,-6.334,-0.6046,-2.9666\H,0,-5.727,0.6134,-0.2858
 \H,0,-4.507,0.7427,-3.8123\H,0,-4.2491,2.4057,-3.2675\H,0,-2.88,1.3116
 ,-3.4394\H,0,-6.2016,2.4857,-1.6637\\Version=ES64L-G16RevC.01\State=1-
 A\HF=-851.7925901\RMSD=5.440e-09\Dipole=-1.2935543,0.2291392,-0.363569
 1\Quadrupole=-26.1415549,16.9889265,9.1526284,2.3448474,-10.6018071,1.
 6406661\PG=C01 [X(C18H26O2)]\\@
 The archive entry for this job was punched.


 MEN HAVE BECOME THE TOOLS OF THEIR TOOLS... THOREAU   
 Job cpu time:       0 days  0 hours 10 minutes 16.5 seconds.
 Elapsed time:       0 days  0 hours  0 minutes 29.6 seconds.
 File lengths (MBytes):  RWF=     71 Int=      0 D2E=      0 Chk=      8 Scr=      1
 Normal termination of Gaussian 16 at Thu Aug  8 09:10:23 2024.
