 Entering Gaussian System, Link 0=g16
 Initial command:
 /cm/shared/apps/spack/cpu/opt/spack/linux-centos8-zen/gcc-8.3.1/gaussian-16.C.01-po5bqktfeugvmjyga3v7eigbecnokxng/g16/l1.exe "/scratch/hklem/job_32333402/Gau-3543955.inp" -scrdir="/scratch/hklem/job_32333402/"
 Entering Link 1 = /cm/shared/apps/spack/cpu/opt/spack/linux-centos8-zen/gcc-8.3.1/gaussian-16.C.01-po5bqktfeugvmjyga3v7eigbecnokxng/g16/l1.exe PID=   3543956.
  
 Copyright (c) 1988-2019, Gaussian, Inc.  All Rights Reserved.
  
 This is part of the Gaussian(R) 16 program.  It is based on
 the Gaussian(R) 09 system (copyright 2009, Gaussian, Inc.),
 the Gaussian(R) 03 system (copyright 2003, Gaussian, Inc.),
 the Gaussian(R) 98 system (copyright 1998, Gaussian, Inc.),
 the Gaussian(R) 94 system (copyright 1995, Gaussian, Inc.),
 the Gaussian 92(TM) system (copyright 1992, Gaussian, Inc.),
 the Gaussian 90(TM) system (copyright 1990, Gaussian, Inc.),
 the Gaussian 88(TM) system (copyright 1988, Gaussian, Inc.),
 the Gaussian 86(TM) system (copyright 1986, Carnegie Mellon
 University), and the Gaussian 82(TM) system (copyright 1983,
 Carnegie Mellon University). Gaussian is a federally registered
 trademark of Gaussian, Inc.
  
 This software contains proprietary and confidential information,
 including trade secrets, belonging to Gaussian, Inc.
  
 This software is provided under written license and may be
 used, copied, transmitted, or stored only in accord with that
 written license.
  
 The following legend is applicable only to US Government
 contracts under FAR:
  
                    RESTRICTED RIGHTS LEGEND
  
 Use, reproduction and disclosure by the US Government is
 subject to restrictions as set forth in subparagraphs (a)
 and (c) of the Commercial Computer Software - Restricted
 Rights clause in FAR 52.227-19.
  
 Gaussian, Inc.
 340 Quinnipiac St., Bldg. 40, Wallingford CT 06492
  
  
 ---------------------------------------------------------------
 Warning -- This program may not be used in any manner that
 competes with the business of Gaussian, Inc. or will provide
 assistance to any competitor of Gaussian, Inc.  The licensee
 of this program is prohibited from giving any competitor of
 Gaussian, Inc. access to this program.  By using this program,
 the user acknowledges that Gaussian, Inc. is engaged in the
 business of creating and licensing software in the field of
 computational chemistry and represents and warrants to the
 licensee that it is not a competitor of Gaussian, Inc. and that
 it will not use this program in any manner prohibited above.
 ---------------------------------------------------------------
  

 Cite this work as:
 Gaussian 16, Revision C.01,
 M. J. Frisch, G. W. Trucks, H. B. Schlegel, G. E. Scuseria, 
 M. A. Robb, J. R. Cheeseman, G. Scalmani, V. Barone, 
 G. A. Petersson, H. Nakatsuji, X. Li, M. Caricato, A. V. Marenich, 
 J. Bloino, B. G. Janesko, R. Gomperts, B. Mennucci, H. P. Hratchian, 
 J. V. Ortiz, A. F. Izmaylov, J. L. Sonnenberg, D. Williams-Young, 
 F. Ding, F. Lipparini, F. Egidi, J. Goings, B. Peng, A. Petrone, 
 T. Henderson, D. Ranasinghe, V. G. Zakrzewski, J. Gao, N. Rega, 
 G. Zheng, W. Liang, M. Hada, M. Ehara, K. Toyota, R. Fukuda, 
 J. Hasegawa, M. Ishida, T. Nakajima, Y. Honda, O. Kitao, H. Nakai, 
 T. Vreven, K. Throssell, J. A. Montgomery, Jr., J. E. Peralta, 
 F. Ogliaro, M. J. Bearpark, J. J. Heyd, E. N. Brothers, K. N. Kudin, 
 V. N. Staroverov, T. A. Keith, R. Kobayashi, J. Normand, 
 K. Raghavachari, A. P. Rendell, J. C. Burant, S. S. Iyengar, 
 J. Tomasi, M. Cossi, J. M. Millam, M. Klene, C. Adamo, R. Cammi, 
 J. W. Ochterski, R. L. Martin, K. Morokuma, O. Farkas, 
 J. B. Foresman, and D. J. Fox, Gaussian, Inc., Wallingford CT, 2019.
 
 ******************************************
 Gaussian 16:  ES64L-G16RevC.01  3-Jul-2019
                16-Jul-2024 
 ******************************************
 %nprocshared=32
 Will use up to   32 processors via shared memory.
 %mem=64GB
 --------------------------
 # 6-31G(d) wb97xd prop=efg
 --------------------------
 1/38=1,172=1/1;
 2/12=2,17=6,18=5,40=1/2;
 3/5=1,6=6,7=1,11=2,25=1,30=1,74=-58/1,2,3;
 4//1;
 5/5=2,38=5/2;
 6/7=2,8=2,9=2,10=2,14=1,28=1/1,2;
 99/5=1,9=1/99;
 ----------------------------
 19nt_mm_min_distance_cutoff3
 ----------------------------
 Symbolic Z-matrix:
 Charge = -1 Multiplicity = 1
 H                    0     8.48525   7.4492    3.63917 
 C                    -1    7.83396   6.94952   2.91278 
 H                    0     7.05282   7.65501   2.60863 
 C                    0     8.62302   6.4617    1.69454 
 H                    0     9.12636   7.31458   1.22249 
 H                    0     9.41553   5.77975   2.02758 
 C                    0     7.74638   5.76561   0.68091 
 C                    0     7.20795   6.45356  -0.40871 
 H                    0     7.44191   7.50826  -0.54145 
 C                    0     6.39234   5.81993  -1.33691 
 H                    0     5.98929   6.35481  -2.19113 
 C                    0     6.0931    4.46269  -1.19378 
 O                    0     5.3276    3.87838  -2.13946 
 H                    0     5.20458   2.93068  -1.91316 
 C                    0     6.60085   3.76315  -0.09304 
 H                    0     6.36862   2.70911   0.02788 
 C                    0     7.41707   4.4169    0.82278 
 H                    0     7.81657   3.85549   1.66535 
 H                    0     7.34071   6.1103    3.41509 
 H                    0     2.08305   8.2486    2.49103 
 C                    -1    1.53731   7.386     2.0916 
 H                    0     1.20153   7.64209   1.07898 
 C                    -1    2.4226    6.13468   2.06069 
 H                    0     2.74988   5.92784   3.08942 
 C                    0     1.63613   4.91831   1.56613 
 H                    0     0.74305   4.73422   2.17496 
 H                    0     1.3074    5.06902   0.52965 
 H                    0     2.25307   4.01328   1.59043 
 C                    0     3.67116   6.35651   1.20148 
 H                    0     4.33127   5.48173   1.20779 
 H                    0     4.25534   7.214     1.55492 
 H                    0     3.39452   6.55037   0.15712 
 H                    0     0.6466    7.22896   2.711 
 H                    0     3.48828  -4.80201  -7.14399 
 C                    -1    3.05898  -3.8271   -6.88446 
 H                    0     2.55035  -3.42476  -7.76555 
 C                    0     2.09121  -3.94918  -5.71268 
 H                    0     2.60002  -4.38176  -4.83932 
 H                    0     1.27378  -4.64289  -5.94337 
 C                    -1    1.45507  -2.62227  -5.2676 
 O                    0     0.54944  -2.7188   -4.37159 
 O                    0     1.85055  -1.56201  -5.78869 
 H                    0     3.87213  -3.13794  -6.63995 
 H                    0    -4.06487   4.49259  -5.92011 
 C                    -1   -4.16892   3.80867  -5.07225 
 H                    0    -3.20883   3.30119  -4.90254 
 H                    0    -4.92565   3.05485  -5.29371 
 C                    0    -4.55837   4.53439  -3.78896 
 O                    0    -5.28015   4.02304  -2.93117 
 N                    0    -4.04147   5.78163  -3.61906 
 H                    0    -3.43172   6.1349   -4.34174 
 C                    -1   -4.1911    6.59634  -2.41201 
 H                    0    -4.57532   5.9364   -1.63118 
 C                    -1   -2.86194   7.23573  -2.01385 
 H                    0    -2.54849   7.92811  -2.80962 
 H                    0    -3.03594   7.85681  -1.12406 
 C                    0    -1.72031   6.25     -1.72606 
 H                    0    -1.57354   5.62293  -2.61601 
 C                    0    -0.42284   7.01711  -1.46199 
 H                    0     0.41634   6.33133  -1.30225 
 H                    0    -0.16478   7.67349  -2.30123 
 H                    0    -0.51784   7.64085  -0.56414 
 C                    0    -2.0516    5.32342  -0.5561 
 H                    -1   -2.31729   5.90217   0.33841 
 H                    0    -2.88265   4.65023  -0.79183 
 H                    0    -1.19017   4.69793  -0.30202 
 H                    0    -4.94562   7.37503  -2.58063 
 H                    0    -6.80679   5.67765   2.67031 
 C                    -1   -5.92483   5.12447   3.01337 
 H                    0    -6.26973   4.21083   3.50442 
 C                    -1   -4.98247   4.79595   1.8508 
 H                    0    -4.60277   5.74488   1.44458 
 C                    0    -3.78541   3.98044   2.3479 
 H                    -1   -3.26476   4.50066   3.1604 
 H                    0    -4.11394   3.00593   2.73377 
 H                    0    -3.05986   3.79158   1.55129 
 C                    0    -5.72963   4.0772    0.72379 
 H                    -1   -6.03797   3.0767    1.05689 
 H                    0    -6.63545   4.62098   0.43337 
 H                    0    -5.11941   3.96464  -0.17862 
 H                    0    -5.41625   5.73394   3.76948 
 H                    0     4.64755  -1.76256   7.5538 
 C                    -1    3.70321  -2.30986   7.46258 
 H                    0     3.34339  -2.51982   8.47487 
 C                    0     2.65971  -1.509     6.68416 
 H                    0     1.70144  -2.04245   6.72234 
 H                    0     2.48641  -0.55455   7.20042 
 C                    -1    2.98414  -1.22207   5.22909 
 C                    0     1.96338  -0.76561   4.3873 
 H                    0     0.96162  -0.64175   4.79461 
 C                    0     2.20407  -0.47886   3.04823 
 H                    0     1.38829  -0.14523   2.41045 
 C                    0     3.482    -0.6475    2.51911 
 H                    0     3.68569  -0.45324   1.47141 
 C                    0     4.50589  -1.1024    3.34198 
 H                    0     5.49113  -1.26076   2.91525 
 C                    -1    4.25919  -1.38465   4.68532 
 H                    0     5.07241  -1.75049   5.30581 
 H                    0     3.9138   -3.26594   6.97112 
 H                    0    -1.5132   -0.36359   5.65448 
 C                    -1   -2.44676  -0.12247   5.12874 
 H                    -1   -2.8774    0.77067   5.59481 
 C                    0    -2.18248   0.09742   3.63916 
 H                    0    -3.14615   0.33201   3.16155 
 C                    0    -1.25272   1.29077   3.40727 
 H                    0    -0.27553   1.1278    3.87837 
 H                    0    -1.67824   2.20958   3.82748 
 H                    0    -1.08243   1.46033   2.33853 
 C                    0    -1.63453  -1.18067   3.00387 
 H                    0    -0.68417  -1.47808   3.46339 
 H                    0    -1.45556  -1.0578    1.93238 
 H                    0    -2.33545  -2.0136    3.12994 
 H                    0    -3.14712  -0.95042   5.28631 
 H                    -1   -8.97903   0.79447   4.61846 
 C                    -1   -8.98816   1.50372   3.78511 
 H                    0    -9.52524   2.40153   4.10798 
 C                    0    -7.57383   1.86171   3.33383 
 H                    0    -7.02927   2.32067   4.16831 
 H                    0    -7.63562   2.62073   2.54585 
 C                    -1   -6.74505   0.6975    2.78926 
 H                    -1   -7.25461   0.21424   1.94734 
 H                    0    -5.78122   1.07205   2.42093 
 S                    0    -6.41925  -0.52969   4.09788 
 C                    0    -5.48948  -1.75816   3.14824 
 H                    0    -6.09121  -2.17367   2.33446 
 H                    0    -4.56772  -1.3364    2.73732 
 H                    0    -5.22558  -2.56206   3.83946 
 H                    0    -9.5544    1.04658   2.96563 
 H                    0    -4.90421  -5.26673   4.71916 
 C                    -1   -3.84515  -5.19257   4.44742 
 H                    0    -3.34479  -6.09456   4.81663 
 C                    0    -3.67026  -5.02551   2.93723 
 H                    0    -4.22414  -4.13595   2.61122 
 H                    -1   -4.13147  -5.87318   2.41087 
 C                    0    -2.21466  -4.88801   2.46479 
 H                    0    -1.70815  -4.1742    3.13231 
 C                    0    -1.45396  -6.21286   2.54053 
 H                    -1   -1.45202  -6.63237   3.55343 
 H                    0    -1.90271  -6.94956   1.86322 
 H                    0    -0.4121   -6.07142   2.23463 
 C                    0    -2.17695  -4.3223    1.04496 
 H                    0    -2.58635  -3.30575   1.02083 
 H                    0    -2.76512  -4.94297   0.35947 
 H                    0    -1.15739  -4.28537   0.65117 
 H                    0    -3.41927  -4.33541   4.9842 
 H                    0     1.50427  -5.41473   3.87897 
 C                    -1    2.38689  -5.49674   3.2334 
 H                    0     2.19314  -6.29419   2.50425 
 C                    -1    2.6783   -4.17084   2.52492 
 H                    0     2.87738  -3.41443   3.29379 
 C                    0     3.92254  -4.278     1.64014 
 H                    -1    4.18722  -3.30754   1.20562 
 H                    0     4.78927  -4.62829   2.2145 
 H                    0     3.75284  -4.9891    0.81919 
 C                    0     1.47501  -3.70068   1.70728 
 H                    0     1.68008  -2.72955   1.24348 
 H                    0     0.58391  -3.58569   2.33679 
 H                    0     1.23538  -4.4138    0.90634 
 H                    0     3.23483  -5.80913   3.85488 
 H                    -1    8.1183   -2.60451   1.62383 
 C                    -1    7.99062  -3.20353   0.71738 
 H                    0     7.07924  -3.79554   0.84253 
 C                    0     7.89004  -2.31396  -0.5133 
 H                    0     8.79748  -1.71562  -0.65533 
 H                    0     7.78268  -2.91001  -1.4278 
 C                    -1    6.71512  -1.36138  -0.46671 
 O                    0     5.88423  -1.33757   0.42044 
 O                    0     6.69348  -0.55657  -1.52118 
 H                    0     5.91488   0.05878  -1.44489 
 H                    0     8.84156  -3.88629   0.6303 
 H                    0     5.7601   -4.67697  -3.67214 
 C                    -1    5.44142  -4.66114  -2.62468 
 H                    0     6.33901  -4.70032  -1.99708 
 C                    0     4.60616  -3.4172   -2.32061 
 H                    -1    4.31301  -3.38804  -1.26506 
 H                    0     3.69278  -3.38739  -2.92539 
 H                    0     5.16673  -2.50218  -2.53805 
 H                    0     4.8712   -5.57822  -2.4372 
 H                    0     1.81626  -9.0136   -1.55909 
 C                    -1    1.26804  -8.90711  -0.61702 
 H                    0     1.72292  -9.57246   0.12587 
 C                    0     1.29292  -7.44755  -0.14162 
 H                    0     0.78448  -7.3862    0.83039 
 H                    0     2.33095  -7.13952   0.03807 
 C                    0     0.65238  -6.49464  -1.10584 
 C                    0     1.26131  -5.50265  -1.8352 
 H                    0     2.30356  -5.2078   -1.84236 
 N                    0     0.35376  -4.84849  -2.62701 
 H                    0     0.53042  -4.07057  -3.29083 
 C                    0    -0.87888  -5.40369  -2.4162 
 C                    -1   -2.11782  -5.05064  -2.96091 
 H                    0    -2.19439  -4.23072  -3.66872 
 C                    -1   -3.22439  -5.77857  -2.55824 
 H                    0    -4.20227  -5.52582  -2.95844 
 C                    0    -3.10448  -6.84125  -1.63921 
 H                    0    -3.99319  -7.39529  -1.34878 
 C                    0    -1.87648  -7.18093  -1.09684 
 H                    0    -1.79828  -7.99451  -0.37952 
 C                    0    -0.73728  -6.45163  -1.47332 
 H                    0     0.24182  -9.24439  -0.79468 
 C                    0     3.54198   1.15545  -1.18892 
 O                    0     4.76872   1.29597  -1.35982 
 C                    0     2.92333  -0.14133  -1.10533 
 C                    0     1.5771   -0.29849  -1.2042 
 C                    0     0.64015   0.8872   -1.19164 
 C                    -1    1.30494   2.10301  -0.54795 
 C                    -1    2.66626   2.38085  -1.16235 
 C                    0     1.00185  -1.65204  -1.47734 
 C                    0    -0.42628  -1.88675  -0.98032 
 C                    0    -1.32613  -0.6837   -1.26442 
 C                    0    -0.71455   0.53907  -0.54251 
 C                    0    -2.77096  -0.90472  -0.83426 
 C                    0    -3.64055   0.35816  -0.96891 
 C                    -1   -3.06271   1.44747  -0.07486 
 C                    0    -1.62464   1.77595  -0.48092 
 C                    0    -3.61316  -1.98941  -1.5271 
 C                    0    -5.0827   -1.57351  -1.228 
 C                    0    -4.97766  -0.22644  -0.49239 
 C                    0    -3.75717   0.86514  -2.4152 
 O                    0    -6.13222   0.58129  -0.718 
 H                    0     3.58557  -1.00295  -1.11507 
 H                    -1    0.4307    1.10742  -2.25144 
 H                    0     1.41237   1.92815   0.53223 
 H                    0     0.67391   2.98781  -0.666 
 H                    0     2.55391   2.70588  -2.20707 
 H                    0     3.19951   3.18643  -0.64777 
 H                    0     1.68045  -2.43341  -1.11656 
 H                    0     0.99173  -1.74505  -2.57565 
 H                    0    -0.42387  -2.08317   0.10054 
 H                    0    -0.81735  -2.7888   -1.46001 
 H                    0    -1.31189  -0.48692  -2.34403 
 H                    0    -0.51729   0.22707   0.49711 
 H                    0    -2.75122  -1.14904   0.24162 
 H                    0    -3.08435   1.11213   0.97379 
 H                    0    -3.66867   2.35971  -0.12995 
 H                    0    -1.61718   2.27938  -1.45602 
 H                    0    -1.21407   2.48782   0.24511 
 H                    0    -3.37883  -2.99538  -1.17179 
 H                    -1   -3.42717  -1.98157  -2.60672 
 H                    0    -5.6143   -2.31654  -0.62524 
 H                    0    -5.64276  -1.42893  -2.15735 
 H                    0    -4.90193  -0.40381   0.59303 
 H                    0    -2.77985   1.07607  -2.85405 
 H                    0    -4.27628   0.16133  -3.07109 
 H                    0    -4.3146    1.80643  -2.43477 
 H                    0    -5.95529   1.44478  -0.32029 
 O                    0     0.15008   0.04186  -4.42405 
 H                    0    -0.19212  -0.85124  -4.23525 
 H                    0     0.88912  -0.23677  -5.01706 
 O                    0    -6.92785   1.67841  -3.22707 
 H                    0    -6.36821   2.47655  -3.22266 
 H                    0    -6.6875    1.22474  -2.39796 
 O                    -1   -1.07561   2.45152  -4.02229 
 H                    0    -0.77013   1.54926  -4.27669 
 H                    0    -0.24989   2.94314  -3.95612 
 O                    0    -6.08432  -0.59327  -4.56859 
 H                    0    -6.85031  -1.13714  -4.35643 
 H                    0    -6.33979   0.29286  -4.23284 
 
 Stoichiometry    C84H159N2O12S(1-)
 Framework group  C1[X(C84H159N2O12S)]
 Deg. of freedom   768
 Full point group                 C1      NOp   1
 Largest Abelian subgroup         C1      NOp   1
 Largest concise Abelian subgroup C1      NOp   1
                         Standard orientation:                         
 ---------------------------------------------------------------------
 Center     Atomic      Atomic             Coordinates (Angstroms)
 Number     Number       Type             X           Y           Z
 ---------------------------------------------------------------------
      1          1           0        8.485254    7.449200    3.639171
      2          6           0        7.833959    6.949523    2.912779
      3          1           0        7.052823    7.655006    2.608630
      4          6           0        8.623019    6.461703    1.694544
      5          1           0        9.126359    7.314576    1.222493
      6          1           0        9.415528    5.779748    2.027582
      7          6           0        7.746378    5.765613    0.680913
      8          6           0        7.207951    6.453557   -0.408706
      9          1           0        7.441915    7.508258   -0.541449
     10          6           0        6.392337    5.819929   -1.336914
     11          1           0        5.989294    6.354809   -2.191126
     12          6           0        6.093099    4.462694   -1.193783
     13          8           0        5.327600    3.878376   -2.139465
     14          1           0        5.204583    2.930678   -1.913161
     15          6           0        6.600846    3.763149   -0.093041
     16          1           0        6.368625    2.709112    0.027881
     17          6           0        7.417065    4.416896    0.822784
     18          1           0        7.816567    3.855489    1.665350
     19          1           0        7.340707    6.110299    3.415087
     20          1           0        2.083049    8.248604    2.491029
     21          6           0        1.537313    7.386003    2.091597
     22          1           0        1.201531    7.642091    1.078980
     23          6           0        2.422597    6.134677    2.060689
     24          1           0        2.749877    5.927844    3.089416
     25          6           0        1.636125    4.918312    1.566132
     26          1           0        0.743050    4.734223    2.174957
     27          1           0        1.307396    5.069019    0.529653
     28          1           0        2.253068    4.013283    1.590434
     29          6           0        3.671164    6.356513    1.201484
     30          1           0        4.331268    5.481726    1.207791
     31          1           0        4.255343    7.214001    1.554923
     32          1           0        3.394523    6.550369    0.157122
     33          1           0        0.646602    7.228958    2.710999
     34          1           0        3.488275   -4.802008   -7.143990
     35          6           0        3.058981   -3.827098   -6.884455
     36          1           0        2.550348   -3.424761   -7.765549
     37          6           0        2.091209   -3.949176   -5.712682
     38          1           0        2.600023   -4.381764   -4.839323
     39          1           0        1.273777   -4.642894   -5.943367
     40          6           0        1.455069   -2.622265   -5.267602
     41          8           0        0.549442   -2.718799   -4.371594
     42          8           0        1.850547   -1.562011   -5.788688
     43          1           0        3.872125   -3.137937   -6.639950
     44          1           0       -4.064873    4.492589   -5.920110
     45          6           0       -4.168916    3.808668   -5.072253
     46          1           0       -3.208832    3.301185   -4.902535
     47          1           0       -4.925645    3.054854   -5.293712
     48          6           0       -4.558373    4.534385   -3.788961
     49          8           0       -5.280153    4.023040   -2.931171
     50          7           0       -4.041466    5.781632   -3.619059
     51          1           0       -3.431721    6.134901   -4.341738
     52          6           0       -4.191097    6.596341   -2.412009
     53          1           0       -4.575321    5.936399   -1.631176
     54          6           0       -2.861944    7.235733   -2.013852
     55          1           0       -2.548489    7.928111   -2.809623
     56          1           0       -3.035945    7.856812   -1.124055
     57          6           0       -1.720314    6.250004   -1.726055
     58          1           0       -1.573540    5.622930   -2.616010
     59          6           0       -0.422836    7.017110   -1.461993
     60          1           0        0.416343    6.331328   -1.302246
     61          1           0       -0.164777    7.673486   -2.301234
     62          1           0       -0.517844    7.640852   -0.564135
     63          6           0       -2.051596    5.323424   -0.556102
     64          1           0       -2.317289    5.902172    0.338414
     65          1           0       -2.882647    4.650230   -0.791828
     66          1           0       -1.190173    4.697933   -0.302024
     67          1           0       -4.945616    7.375034   -2.580632
     68          1           0       -6.806785    5.677647    2.670309
     69          6           0       -5.924834    5.124470    3.013375
     70          1           0       -6.269730    4.210826    3.504424
     71          6           0       -4.982471    4.795954    1.850797
     72          1           0       -4.602773    5.744883    1.444578
     73          6           0       -3.785408    3.980441    2.347900
     74          1           0       -3.264764    4.500660    3.160397
     75          1           0       -4.113937    3.005930    2.733774
     76          1           0       -3.059860    3.791582    1.551292
     77          6           0       -5.729627    4.077202    0.723790
     78          1           0       -6.037970    3.076704    1.056893
     79          1           0       -6.635448    4.620975    0.433369
     80          1           0       -5.119405    3.964637   -0.178621
     81          1           0       -5.416247    5.733940    3.769484
     82          1           0        4.647548   -1.762563    7.553798
     83          6           0        3.703210   -2.309857    7.462582
     84          1           0        3.343385   -2.519822    8.474871
     85          6           0        2.659712   -1.508999    6.684158
     86          1           0        1.701438   -2.042455    6.722339
     87          1           0        2.486405   -0.554549    7.200424
     88          6           0        2.984136   -1.222066    5.229089
     89          6           0        1.963381   -0.765611    4.387301
     90          1           0        0.961622   -0.641749    4.794605
     91          6           0        2.204066   -0.478856    3.048228
     92          1           0        1.388285   -0.145234    2.410445
     93          6           0        3.482003   -0.647495    2.519109
     94          1           0        3.685692   -0.453239    1.471406
     95          6           0        4.505889   -1.102403    3.341977
     96          1           0        5.491129   -1.260762    2.915250
     97          6           0        4.259191   -1.384652    4.685323
     98          1           0        5.072407   -1.750490    5.305810
     99          1           0        3.913803   -3.265935    6.971115
    100          1           0       -1.513196   -0.363589    5.654484
    101          6           0       -2.446762   -0.122465    5.128736
    102          1           0       -2.877396    0.770666    5.594811
    103          6           0       -2.182477    0.097423    3.639159
    104          1           0       -3.146154    0.332007    3.161549
    105          6           0       -1.252719    1.290770    3.407266
    106          1           0       -0.275525    1.127799    3.878367
    107          1           0       -1.678244    2.209579    3.827484
    108          1           0       -1.082429    1.460330    2.338527
    109          6           0       -1.634530   -1.180674    3.003875
    110          1           0       -0.684169   -1.478079    3.463387
    111          1           0       -1.455556   -1.057799    1.932384
    112          1           0       -2.335449   -2.013600    3.129941
    113          1           0       -3.147119   -0.950418    5.286310
    114          1           0       -8.979028    0.794465    4.618461
    115          6           0       -8.988163    1.503720    3.785109
    116          1           0       -9.525237    2.401533    4.107979
    117          6           0       -7.573825    1.861709    3.333834
    118          1           0       -7.029274    2.320670    4.168315
    119          1           0       -7.635619    2.620725    2.545851
    120          6           0       -6.745049    0.697495    2.789262
    121          1           0       -7.254607    0.214244    1.947338
    122          1           0       -5.781223    1.072055    2.420931
    123         16           0       -6.419246   -0.529690    4.097885
    124          6           0       -5.489481   -1.758155    3.148237
    125          1           0       -6.091206   -2.173671    2.334459
    126          1           0       -4.567723   -1.336398    2.737318
    127          1           0       -5.225577   -2.562062    3.839462
    128          1           0       -9.554398    1.046584    2.965629
    129          1           0       -4.904205   -5.266726    4.719161
    130          6           0       -3.845152   -5.192570    4.447415
    131          1           0       -3.344788   -6.094560    4.816626
    132          6           0       -3.670263   -5.025513    2.937227
    133          1           0       -4.224136   -4.135948    2.611221
    134          1           0       -4.131471   -5.873179    2.410871
    135          6           0       -2.214662   -4.888006    2.464787
    136          1           0       -1.708154   -4.174201    3.132314
    137          6           0       -1.453961   -6.212861    2.540526
    138          1           0       -1.452018   -6.632366    3.553426
    139          1           0       -1.902709   -6.949562    1.863220
    140          1           0       -0.412099   -6.071415    2.234630
    141          6           0       -2.176951   -4.322295    1.044963
    142          1           0       -2.586346   -3.305748    1.020832
    143          1           0       -2.765123   -4.942973    0.359468
    144          1           0       -1.157388   -4.285367    0.651169
    145          1           0       -3.419269   -4.335411    4.984201
    146          1           0        1.504269   -5.414731    3.878965
    147          6           0        2.386894   -5.496741    3.233398
    148          1           0        2.193143   -6.294189    2.504254
    149          6           0        2.678301   -4.170837    2.524924
    150          1           0        2.877377   -3.414431    3.293794
    151          6           0        3.922542   -4.278003    1.640142
    152          1           0        4.187215   -3.307542    1.205624
    153          1           0        4.789272   -4.628294    2.214500
    154          1           0        3.752837   -4.989097    0.819192
    155          6           0        1.475007   -3.700682    1.707277
    156          1           0        1.680079   -2.729547    1.243483
    157          1           0        0.583905   -3.585690    2.336792
    158          1           0        1.235382   -4.413805    0.906335
    159          1           0        3.234829   -5.809131    3.854880
    160          1           0        8.118300   -2.604511    1.623834
    161          6           0        7.990616   -3.203527    0.717376
    162          1           0        7.079236   -3.795540    0.842533
    163          6           0        7.890044   -2.313958   -0.513304
    164          1           0        8.797482   -1.715624   -0.655325
    165          1           0        7.782684   -2.910006   -1.427795
    166          6           0        6.715115   -1.361377   -0.466709
    167          8           0        5.884231   -1.337565    0.420441
    168          8           0        6.693483   -0.556570   -1.521175
    169          1           0        5.914880    0.058777   -1.444887
    170          1           0        8.841560   -3.886292    0.630303
    171          1           0        5.760101   -4.676971   -3.672144
    172          6           0        5.441424   -4.661139   -2.624678
    173          1           0        6.339012   -4.700316   -1.997083
    174          6           0        4.606164   -3.417196   -2.320611
    175          1           0        4.313010   -3.388036   -1.265058
    176          1           0        3.692778   -3.387385   -2.925391
    177          1           0        5.166733   -2.502184   -2.538052
    178          1           0        4.871198   -5.578218   -2.437196
    179          1           0        1.816262   -9.013600   -1.559090
    180          6           0        1.268042   -8.907107   -0.617023
    181          1           0        1.722923   -9.572464    0.125867
    182          6           0        1.292923   -7.447548   -0.141621
    183          1           0        0.784481   -7.386201    0.830388
    184          1           0        2.330953   -7.139517    0.038071
    185          6           0        0.652376   -6.494643   -1.105843
    186          6           0        1.261313   -5.502651   -1.835203
    187          1           0        2.303559   -5.207799   -1.842360
    188          7           0        0.353759   -4.848490   -2.627011
    189          1           0        0.530423   -4.070565   -3.290829
    190          6           0       -0.878875   -5.403686   -2.416196
    191          6           0       -2.117824   -5.050636   -2.960912
    192          1           0       -2.194393   -4.230720   -3.668715
    193          6           0       -3.224386   -5.778567   -2.558240
    194          1           0       -4.202273   -5.525817   -2.958438
    195          6           0       -3.104485   -6.841252   -1.639209
    196          1           0       -3.993194   -7.395287   -1.348777
    197          6           0       -1.876478   -7.180932   -1.096836
    198          1           0       -1.798282   -7.994509   -0.379524
    199          6           0       -0.737281   -6.451628   -1.473315
    200          1           0        0.241817   -9.244387   -0.794676
    201          6           0        3.541979    1.155446   -1.188920
    202          8           0        4.768716    1.295965   -1.359819
    203          6           0        2.923334   -0.141333   -1.105335
    204          6           0        1.577099   -0.298492   -1.204201
    205          6           0        0.640151    0.887199   -1.191640
    206          6           0        1.304939    2.103014   -0.547954
    207          6           0        2.666259    2.380853   -1.162348
    208          6           0        1.001853   -1.652043   -1.477341
    209          6           0       -0.426279   -1.886747   -0.980318
    210          6           0       -1.326134   -0.683701   -1.264423
    211          6           0       -0.714552    0.539065   -0.542505
    212          6           0       -2.770964   -0.904724   -0.834263
    213          6           0       -3.640549    0.358156   -0.968907
    214          6           0       -3.062706    1.447473   -0.074861
    215          6           0       -1.624643    1.775951   -0.480924
    216          6           0       -3.613163   -1.989412   -1.527100
    217          6           0       -5.082699   -1.573514   -1.228001
    218          6           0       -4.977663   -0.226435   -0.492389
    219          6           0       -3.757171    0.865143   -2.415201
    220          8           0       -6.132220    0.581292   -0.717996
    221          1           0        3.585574   -1.002946   -1.115071
    222          1           0        0.430704    1.107418   -2.251440
    223          1           0        1.412365    1.928146    0.532230
    224          1           0        0.673907    2.987807   -0.666002
    225          1           0        2.553913    2.705883   -2.207065
    226          1           0        3.199508    3.186435   -0.647772
    227          1           0        1.680450   -2.433414   -1.116564
    228          1           0        0.991727   -1.745052   -2.575646
    229          1           0       -0.423866   -2.083170    0.100540
    230          1           0       -0.817346   -2.788795   -1.460005
    231          1           0       -1.311890   -0.486921   -2.344025
    232          1           0       -0.517291    0.227070    0.497111
    233          1           0       -2.751216   -1.149041    0.241621
    234          1           0       -3.084349    1.112131    0.973785
    235          1           0       -3.668668    2.359713   -0.129950
    236          1           0       -1.617183    2.279383   -1.456021
    237          1           0       -1.214070    2.487822    0.245105
    238          1           0       -3.378834   -2.995384   -1.171788
    239          1           0       -3.427167   -1.981568   -2.606716
    240          1           0       -5.614299   -2.316538   -0.625238
    241          1           0       -5.642761   -1.428930   -2.157347
    242          1           0       -4.901927   -0.403806    0.593031
    243          1           0       -2.779849    1.076071   -2.854046
    244          1           0       -4.276280    0.161331   -3.071085
    245          1           0       -4.314602    1.806426   -2.434769
    246          1           0       -5.955292    1.444775   -0.320294
    247          8           0        0.150084    0.041858   -4.424046
    248          1           0       -0.192121   -0.851236   -4.235249
    249          1           0        0.889120   -0.236767   -5.017058
    250          8           0       -6.927854    1.678410   -3.227071
    251          1           0       -6.368213    2.476549   -3.222655
    252          1           0       -6.687498    1.224744   -2.397962
    253          8           0       -1.075615    2.451522   -4.022291
    254          1           0       -0.770134    1.549260   -4.276694
    255          1           0       -0.249886    2.943136   -3.956120
    256          8           0       -6.084321   -0.593271   -4.568590
    257          1           0       -6.850310   -1.137135   -4.356429
    258          1           0       -6.339793    0.292864   -4.232843
 ---------------------------------------------------------------------
 Rotational constants (GHZ):           0.0142352           0.0130520           0.0101920
 Standard basis: 6-31G(d) (6D, 7F)
 There are  1807 symmetry adapted cartesian basis functions of A   symmetry.
 There are  1807 symmetry adapted basis functions of A   symmetry.
  1807 basis functions,  3432 primitive gaussians,  1807 cartesian basis functions
   395 alpha electrons      395 beta electrons
       nuclear repulsion energy     23545.4499643087 Hartrees.
 NAtoms=  258 NActive=  258 NUniq=  258 SFac= 1.00D+00 NAtFMM=   60 NAOKFM=T Big=T
 Integral buffers will be    131072 words long.
 Raffenetti 2 integral format.
 Two-electron integral symmetry is turned on.
 Nuclear repulsion after empirical dispersion term =    23545.1297420755 Hartrees.
 One-electron integrals computed using PRISM.
 NBasis=  1807 RedAO= T EigKep=  3.63D-04  NBF=  1807
 NBsUse=  1807 1.00D-06 EigRej= -1.00D+00 NBFU=  1807
 ExpMin= 1.17D-01 ExpMax= 2.19D+04 ExpMxC= 3.30D+03 IAcc=3 IRadAn=         5 AccDes= 0.00D+00
 Harris functional with IExCor= 4639 and IRadAn=       5 diagonalized for initial guess.
 HarFok:  IExCor= 4639 AccDes= 0.00D+00 IRadAn=         5 IDoV= 1 UseB2=F ITyADJ=14
 ICtDFT=  3500011 ScaDFX=  1.000000  1.000000  1.000000  1.000000
 FoFCou: FMM=F IPFlag=           0 FMFlag=      100000 FMFlg1=        2001
         NFxFlg=           0 DoJE=T BraDBF=F KetDBF=T FulRan=T
         wScrn=  0.000000 ICntrl=       500 IOpCl=  0 I1Cent=   200000004 NGrid=           0
         NMat0=    1 NMatS0=      1 NMatT0=    0 NMatD0=    1 NMtDS0=    0 NMtDT0=    0
 Petite list used in FoFCou.
 Requested convergence on RMS density matrix=1.00D-08 within 128 cycles.
 Requested convergence on MAX density matrix=1.00D-06.
 Requested convergence on             energy=1.00D-06.
 No special actions if energy rises.
 Integral accuracy reduced to 1.0D-05 until final iterations.
 EnCoef did     6 forward-backward iterations
 Initial convergence to 1.0D-05 achieved.  Increase integral accuracy.
 SCF Done:  E(RwB97XD) =  -4706.19046986     A.U. after   15 cycles
            NFock= 15  Conv=0.38D-08     -V/T= 2.0090
 Hyperfine terms turned off by default for NAtoms > 100.

 **********************************************************************

            Population analysis using the SCF Density.

 **********************************************************************

 Orbital symmetries:
       Occupied  (A) (A) (A) (A) (A) (A) (A) (A) (A) (A) (A) (A)
                 (A) (A) (A) (A) (A) (A) (A) (A) (A) (A) (A) (A)
                 (A) (A) (A) (A) (A) (A) (A) (A) (A) (A) (A) (A)
                 (A) (A) (A) (A) (A) (A) (A) (A) (A) (A) (A) (A)
                 (A) (A) (A) (A) (A) (A) (A) (A) (A) (A) (A) (A)
                 (A) (A) (A) (A) (A) (A) (A) (A) (A) (A) (A) (A)
                 (A) (A) (A) (A) (A) (A) (A) (A) (A) (A) (A) (A)
                 (A) (A) (A) (A) (A) (A) (A) (A) (A) (A) (A) (A)
                 (A) (A) (A) (A) (A) (A) (A) (A) (A) (A) (A) (A)
                 (A) (A) (A) (A) (A) (A) (A) (A) (A) (A) (A) (A)
                 (A) (A) (A) (A) (A) (A) (A) (A) (A) (A) (A) (A)
                 (A) (A) (A) (A) (A) (A) (A) (A) (A) (A) (A) (A)
                 (A) (A) (A) (A) (A) (A) (A) (A) (A) (A) (A) (A)
                 (A) (A) (A) (A) (A) (A) (A) (A) (A) (A) (A) (A)
                 (A) (A) (A) (A) (A) (A) (A) (A) (A) (A) (A) (A)
                 (A) (A) (A) (A) (A) (A) (A) (A) (A) (A) (A) (A)
                 (A) (A) (A) (A) (A) (A) (A) (A) (A) (A) (A) (A)
                 (A) (A) (A) (A) (A) (A) (A) (A) (A) (A) (A) (A)
                 (A) (A) (A) (A) (A) (A) (A) (A) (A) (A) (A) (A)
                 (A) (A) (A) (A) (A) (A) (A) (A) (A) (A) (A) (A)
                 (A) (A) (A) (A) (A) (A) (A) (A) (A) (A) (A) (A)
                 (A) (A) (A) (A) (A) (A) (A) (A) (A) (A) (A) (A)
                 (A) (A) (A) (A) (A) (A) (A) (A) (A) (A) (A) (A)
                 (A) (A) (A) (A) (A) (A) (A) (A) (A) (A) (A) (A)
                 (A) (A) (A) (A) (A) (A) (A) (A) (A) (A) (A) (A)
                 (A) (A) (A) (A) (A) (A) (A) (A) (A) (A) (A) (A)
                 (A) (A) (A) (A) (A) (A) (A) (A) (A) (A) (A) (A)
                 (A) (A) (A) (A) (A) (A) (A) (A) (A) (A) (A) (A)
                 (A) (A) (A) (A) (A) (A) (A) (A) (A) (A) (A) (A)
                 (A) (A) (A) (A) (A) (A) (A) (A) (A) (A) (A) (A)
                 (A) (A) (A) (A) (A) (A) (A) (A) (A) (A) (A) (A)
                 (A) (A) (A) (A) (A) (A) (A) (A) (A) (A) (A) (A)
                 (A) (A) (A) (A) (A) (A) (A) (A) (A) (A) (A)
       Virtual   (A) (A) (A) (A) (A) (A) (A) (A) (A) (A) (A) (A)
                 (A) (A) (A) (A) (A) (A) (A) (A) (A) (A) (A) (A)
                 (A) (A) (A) (A) (A) (A) (A) (A) (A) (A) (A) (A)
                 (A) (A) (A) (A) (A) (A) (A) (A) (A) (A) (A) (A)
                 (A) (A) (A) (A) (A) (A) (A) (A) (A) (A) (A) (A)
                 (A) (A) (A) (A) (A) (A) (A) (A) (A) (A) (A) (A)
                 (A) (A) (A) (A) (A) (A) (A) (A) (A) (A) (A) (A)
                 (A) (A) (A) (A) (A) (A) (A) (A) (A) (A) (A) (A)
                 (A) (A) (A) (A) (A) (A) (A) (A) (A) (A) (A) (A)
                 (A) (A) (A) (A) (A) (A) (A) (A) (A) (A) (A) (A)
                 (A) (A) (A) (A) (A) (A) (A) (A) (A) (A) (A) (A)
                 (A) (A) (A) (A) (A) (A) (A) (A) (A) (A) (A) (A)
                 (A) (A) (A) (A) (A) (A) (A) (A) (A) (A) (A) (A)
                 (A) (A) (A) (A) (A) (A) (A) (A) (A) (A) (A) (A)
                 (A) (A) (A) (A) (A) (A) (A) (A) (A) (A) (A) (A)
                 (A) (A) (A) (A) (A) (A) (A) (A) (A) (A) (A) (A)
                 (A) (A) (A) (A) (A) (A) (A) (A) (A) (A) (A) (A)
                 (A) (A) (A) (A) (A) (A) (A) (A) (A) (A) (A) (A)
                 (A) (A) (A) (A) (A) (A) (A) (A) (A) (A) (A) (A)
                 (A) (A) (A) (A) (A) (A) (A) (A) (A) (A) (A) (A)
                 (A) (A) (A) (A) (A) (A) (A) (A) (A) (A) (A) (A)
                 (A) (A) (A) (A) (A) (A) (A) (A) (A) (A) (A) (A)
                 (A) (A) (A) (A) (A) (A) (A) (A) (A) (A) (A) (A)
                 (A) (A) (A) (A) (A) (A) (A) (A) (A) (A) (A) (A)
                 (A) (A) (A) (A) (A) (A) (A) (A) (A) (A) (A) (A)
                 (A) (A) (A) (A) (A) (A) (A) (A) (A) (A) (A) (A)
                 (A) (A) (A) (A) (A) (A) (A) (A) (A) (A) (A) (A)
                 (A) (A) (A) (A) (A) (A) (A) (A) (A) (A) (A) (A)
                 (A) (A) (A) (A) (A) (A) (A) (A) (A) (A) (A) (A)
                 (A) (A) (A) (A) (A) (A) (A) (A) (A) (A) (A) (A)
                 (A) (A) (A) (A) (A) (A) (A) (A) (A) (A) (A) (A)
                 (A) (A) (A) (A) (A) (A) (A) (A) (A) (A) (A) (A)
                 (A) (A) (A) (A) (A) (A) (A) (A) (A) (A) (A) (A)
                 (A) (A) (A) (A) (A) (A) (A) (A) (A) (A) (A) (A)
                 (A) (A) (A) (A) (A) (A) (A) (A) (A) (A) (A) (A)
                 (A) (A) (A) (A) (A) (A) (A) (A) (A) (A) (A) (A)
                 (A) (A) (A) (A) (A) (A) (A) (A) (A) (A) (A) (A)
                 (A) (A) (A) (A) (A) (A) (A) (A) (A) (A) (A) (A)
                 (A) (A) (A) (A) (A) (A) (A) (A) (A) (A) (A) (A)
                 (A) (A) (A) (A) (A) (A) (A) (A) (A) (A) (A) (A)
                 (A) (A) (A) (A) (A) (A) (A) (A) (A) (A) (A) (A)
                 (A) (A) (A) (A) (A) (A) (A) (A) (A) (A) (A) (A)
                 (A) (A) (A) (A) (A) (A) (A) (A) (A) (A) (A) (A)
                 (A) (A) (A) (A) (A) (A) (A) (A) (A) (A) (A) (A)
                 (A) (A) (A) (A) (A) (A) (A) (A) (A) (A) (A) (A)
                 (A) (A) (A) (A) (A) (A) (A) (A) (A) (A) (A) (A)
                 (A) (A) (A) (A) (A) (A) (A) (A) (A) (A) (A) (A)
                 (A) (A) (A) (A) (A) (A) (A) (A) (A) (A) (A) (A)
                 (A) (A) (A) (A) (A) (A) (A) (A) (A) (A) (A) (A)
                 (A) (A) (A) (A) (A) (A) (A) (A) (A) (A) (A) (A)
                 (A) (A) (A) (A) (A) (A) (A) (A) (A) (A) (A) (A)
                 (A) (A) (A) (A) (A) (A) (A) (A) (A) (A) (A) (A)
                 (A) (A) (A) (A) (A) (A) (A) (A) (A) (A) (A) (A)
                 (A) (A) (A) (A) (A) (A) (A) (A) (A) (A) (A) (A)
                 (A) (A) (A) (A) (A) (A) (A) (A) (A) (A) (A) (A)
                 (A) (A) (A) (A) (A) (A) (A) (A) (A) (A) (A) (A)
                 (A) (A) (A) (A) (A) (A) (A) (A) (A) (A) (A) (A)
                 (A) (A) (A) (A) (A) (A) (A) (A) (A) (A) (A) (A)
                 (A) (A) (A) (A) (A) (A) (A) (A) (A) (A) (A) (A)
                 (A) (A) (A) (A) (A) (A) (A) (A) (A) (A) (A) (A)
                 (A) (A) (A) (A) (A) (A) (A) (A) (A) (A) (A) (A)
                 (A) (A) (A) (A) (A) (A) (A) (A) (A) (A) (A) (A)
                 (A) (A) (A) (A) (A) (A) (A) (A) (A) (A) (A) (A)
                 (A) (A) (A) (A) (A) (A) (A) (A) (A) (A) (A) (A)
                 (A) (A) (A) (A) (A) (A) (A) (A) (A) (A) (A) (A)
                 (A) (A) (A) (A) (A) (A) (A) (A) (A) (A) (A) (A)
                 (A) (A) (A) (A) (A) (A) (A) (A) (A) (A) (A) (A)
                 (A) (A) (A) (A) (A) (A) (A) (A) (A) (A) (A) (A)
                 (A) (A) (A) (A) (A) (A) (A) (A) (A) (A) (A) (A)
                 (A) (A) (A) (A) (A) (A) (A) (A) (A) (A) (A) (A)
                 (A) (A) (A) (A) (A) (A) (A) (A) (A) (A) (A) (A)
                 (A) (A) (A) (A) (A) (A) (A) (A) (A) (A) (A) (A)
                 (A) (A) (A) (A) (A) (A) (A) (A) (A) (A) (A) (A)
                 (A) (A) (A) (A) (A) (A) (A) (A) (A) (A) (A) (A)
                 (A) (A) (A) (A) (A) (A) (A) (A) (A) (A) (A) (A)
                 (A) (A) (A) (A) (A) (A) (A) (A) (A) (A) (A) (A)
                 (A) (A) (A) (A) (A) (A) (A) (A) (A) (A) (A) (A)
                 (A) (A) (A) (A) (A) (A) (A) (A) (A) (A) (A) (A)
                 (A) (A) (A) (A) (A) (A) (A) (A) (A) (A) (A) (A)
                 (A) (A) (A) (A) (A) (A) (A) (A) (A) (A) (A) (A)
                 (A) (A) (A) (A) (A) (A) (A) (A) (A) (A) (A) (A)
                 (A) (A) (A) (A) (A) (A) (A) (A) (A) (A) (A) (A)
                 (A) (A) (A) (A) (A) (A) (A) (A) (A) (A) (A) (A)
                 (A) (A) (A) (A) (A) (A) (A) (A) (A) (A) (A) (A)
                 (A) (A) (A) (A) (A) (A) (A) (A) (A) (A) (A) (A)
                 (A) (A) (A) (A) (A) (A) (A) (A) (A) (A) (A) (A)
                 (A) (A) (A) (A) (A) (A) (A) (A) (A) (A) (A) (A)
                 (A) (A) (A) (A) (A) (A) (A) (A) (A) (A) (A) (A)
                 (A) (A) (A) (A) (A) (A) (A) (A) (A) (A) (A) (A)
                 (A) (A) (A) (A) (A) (A) (A) (A) (A) (A) (A) (A)
                 (A) (A) (A) (A) (A) (A) (A) (A) (A) (A) (A) (A)
                 (A) (A) (A) (A) (A) (A) (A) (A) (A) (A) (A) (A)
                 (A) (A) (A) (A) (A) (A) (A) (A) (A) (A) (A) (A)
                 (A) (A) (A) (A) (A) (A) (A) (A) (A) (A) (A) (A)
                 (A) (A) (A) (A) (A) (A) (A) (A) (A) (A) (A) (A)
                 (A) (A) (A) (A) (A) (A) (A) (A) (A) (A) (A) (A)
                 (A) (A) (A) (A) (A) (A) (A) (A) (A) (A) (A) (A)
                 (A) (A) (A) (A) (A) (A) (A) (A) (A) (A) (A) (A)
                 (A) (A) (A) (A) (A) (A) (A) (A) (A) (A) (A) (A)
                 (A) (A) (A) (A) (A) (A) (A) (A) (A) (A) (A) (A)
                 (A) (A) (A) (A) (A) (A) (A) (A) (A) (A) (A) (A)
                 (A) (A) (A) (A) (A) (A) (A) (A) (A) (A) (A) (A)
                 (A) (A) (A) (A) (A) (A) (A) (A) (A) (A) (A) (A)
                 (A) (A) (A) (A) (A) (A) (A) (A) (A) (A) (A) (A)
                 (A) (A) (A) (A) (A) (A) (A) (A) (A) (A) (A) (A)
                 (A) (A) (A) (A) (A) (A) (A) (A) (A) (A) (A) (A)
                 (A) (A) (A) (A) (A) (A) (A) (A) (A) (A) (A) (A)
                 (A) (A) (A) (A) (A) (A) (A) (A) (A) (A) (A) (A)
                 (A) (A) (A) (A) (A) (A) (A) (A) (A) (A) (A) (A)
                 (A) (A) (A) (A) (A) (A) (A) (A) (A) (A) (A) (A)
                 (A) (A) (A) (A) (A) (A) (A) (A) (A) (A) (A) (A)
                 (A) (A) (A) (A) (A) (A) (A) (A) (A) (A) (A) (A)
                 (A) (A) (A) (A) (A) (A) (A) (A) (A) (A) (A) (A)
                 (A) (A) (A) (A) (A) (A) (A) (A) (A) (A) (A) (A)
                 (A) (A) (A) (A) (A) (A) (A) (A) (A) (A) (A) (A)
                 (A) (A) (A) (A) (A) (A) (A) (A) (A) (A) (A) (A)
                 (A) (A) (A) (A) (A) (A) (A) (A) (A) (A) (A) (A)
                 (A) (A) (A) (A) (A) (A) (A) (A)
 The electronic state is 1-A.
 Alpha  occ. eigenvalues --  -88.97474 -19.22729 -19.21685 -19.21380 -19.21020
 Alpha  occ. eigenvalues --  -19.18866 -19.18542 -19.17121 -19.16572 -19.15404
 Alpha  occ. eigenvalues --  -19.14940 -19.11760 -19.11358 -14.43027 -14.38485
 Alpha  occ. eigenvalues --  -10.35779 -10.35440 -10.33376 -10.28754 -10.28611
 Alpha  occ. eigenvalues --  -10.28572 -10.27073 -10.26929 -10.26856 -10.26137
 Alpha  occ. eigenvalues --  -10.25517 -10.25346 -10.25148 -10.25043 -10.24466
 Alpha  occ. eigenvalues --  -10.24396 -10.24251 -10.24191 -10.24167 -10.24083
 Alpha  occ. eigenvalues --  -10.23957 -10.23844 -10.23791 -10.23640 -10.23606
 Alpha  occ. eigenvalues --  -10.23583 -10.23582 -10.23557 -10.23468 -10.23458
 Alpha  occ. eigenvalues --  -10.23393 -10.23375 -10.23352 -10.23333 -10.23330
 Alpha  occ. eigenvalues --  -10.23177 -10.23135 -10.23062 -10.23024 -10.22996
 Alpha  occ. eigenvalues --  -10.22955 -10.22905 -10.22728 -10.22603 -10.22601
 Alpha  occ. eigenvalues --  -10.22567 -10.22512 -10.22502 -10.22488 -10.22333
 Alpha  occ. eigenvalues --  -10.22319 -10.22264 -10.22261 -10.22203 -10.22178
 Alpha  occ. eigenvalues --  -10.21947 -10.21893 -10.21849 -10.21818 -10.21717
 Alpha  occ. eigenvalues --  -10.21617 -10.21544 -10.21536 -10.21502 -10.21379
 Alpha  occ. eigenvalues --  -10.21321 -10.21258 -10.21195 -10.21103 -10.21082
 Alpha  occ. eigenvalues --  -10.21079 -10.21018 -10.20854 -10.20798 -10.20578
 Alpha  occ. eigenvalues --  -10.20571 -10.20490 -10.20313 -10.20138 -10.19696
 Alpha  occ. eigenvalues --  -10.19671 -10.19443 -10.19235 -10.18474  -7.99379
 Alpha  occ. eigenvalues --   -5.94431  -5.94044  -5.93348  -1.12769  -1.08839
 Alpha  occ. eigenvalues --   -1.08490  -1.07438  -1.06519  -1.03439  -1.02973
 Alpha  occ. eigenvalues --   -1.00790  -1.00662  -0.98862  -0.98390  -0.98154
 Alpha  occ. eigenvalues --   -0.97267  -0.93557  -0.90171  -0.88922  -0.88732
 Alpha  occ. eigenvalues --   -0.88049  -0.86569  -0.86102  -0.85296  -0.85221
 Alpha  occ. eigenvalues --   -0.84282  -0.84185  -0.83772  -0.83311  -0.82391
 Alpha  occ. eigenvalues --   -0.82158  -0.82023  -0.81983  -0.81872  -0.81822
 Alpha  occ. eigenvalues --   -0.80713  -0.80263  -0.79486  -0.78113  -0.77714
 Alpha  occ. eigenvalues --   -0.77259  -0.76998  -0.76584  -0.76559  -0.76287
 Alpha  occ. eigenvalues --   -0.75967  -0.75639  -0.74968  -0.74751  -0.74256
 Alpha  occ. eigenvalues --   -0.73562  -0.73421  -0.73065  -0.72960  -0.72662
 Alpha  occ. eigenvalues --   -0.72422  -0.72239  -0.71813  -0.71650  -0.71601
 Alpha  occ. eigenvalues --   -0.70361  -0.70149  -0.69999  -0.69864  -0.69493
 Alpha  occ. eigenvalues --   -0.68842  -0.68436  -0.67137  -0.66692  -0.66420
 Alpha  occ. eigenvalues --   -0.66246  -0.65023  -0.64812  -0.64585  -0.64371
 Alpha  occ. eigenvalues --   -0.64016  -0.63468  -0.62976  -0.62567  -0.62487
 Alpha  occ. eigenvalues --   -0.62149  -0.61030  -0.60871  -0.60605  -0.60399
 Alpha  occ. eigenvalues --   -0.60339  -0.60016  -0.59828  -0.59349  -0.59313
 Alpha  occ. eigenvalues --   -0.59103  -0.58030  -0.57589  -0.57279  -0.57038
 Alpha  occ. eigenvalues --   -0.56068  -0.55906  -0.55292  -0.53730  -0.53509
 Alpha  occ. eigenvalues --   -0.53397  -0.53201  -0.53021  -0.52285  -0.51894
 Alpha  occ. eigenvalues --   -0.51682  -0.51205  -0.51127  -0.50959  -0.50628
 Alpha  occ. eigenvalues --   -0.50361  -0.50193  -0.50159  -0.50028  -0.49907
 Alpha  occ. eigenvalues --   -0.49799  -0.49687  -0.49368  -0.49359  -0.49257
 Alpha  occ. eigenvalues --   -0.49085  -0.48940  -0.48794  -0.48464  -0.48425
 Alpha  occ. eigenvalues --   -0.48401  -0.48245  -0.47966  -0.47717  -0.47576
 Alpha  occ. eigenvalues --   -0.47452  -0.47173  -0.47152  -0.46818  -0.46550
 Alpha  occ. eigenvalues --   -0.46475  -0.46391  -0.46207  -0.46104  -0.46084
 Alpha  occ. eigenvalues --   -0.46066  -0.45957  -0.45788  -0.45781  -0.45648
 Alpha  occ. eigenvalues --   -0.45450  -0.45350  -0.45282  -0.45159  -0.45101
 Alpha  occ. eigenvalues --   -0.45061  -0.44933  -0.44858  -0.44766  -0.44669
 Alpha  occ. eigenvalues --   -0.44311  -0.44137  -0.43943  -0.43818  -0.43591
 Alpha  occ. eigenvalues --   -0.43551  -0.43444  -0.43440  -0.43374  -0.43362
 Alpha  occ. eigenvalues --   -0.43281  -0.43108  -0.42922  -0.42863  -0.42495
 Alpha  occ. eigenvalues --   -0.42453  -0.42373  -0.42209  -0.42152  -0.41998
 Alpha  occ. eigenvalues --   -0.41912  -0.41865  -0.41674  -0.41606  -0.41398
 Alpha  occ. eigenvalues --   -0.41298  -0.41067  -0.40999  -0.40782  -0.40687
 Alpha  occ. eigenvalues --   -0.40476  -0.40453  -0.40377  -0.40197  -0.40107
 Alpha  occ. eigenvalues --   -0.40038  -0.40017  -0.39900  -0.39754  -0.39521
 Alpha  occ. eigenvalues --   -0.39468  -0.39393  -0.39379  -0.39202  -0.39067
 Alpha  occ. eigenvalues --   -0.38865  -0.38787  -0.38641  -0.38605  -0.38506
 Alpha  occ. eigenvalues --   -0.38481  -0.38459  -0.38347  -0.38319  -0.38268
 Alpha  occ. eigenvalues --   -0.38007  -0.37920  -0.37834  -0.37604  -0.37463
 Alpha  occ. eigenvalues --   -0.37166  -0.37053  -0.37006  -0.36951  -0.36902
 Alpha  occ. eigenvalues --   -0.36827  -0.36605  -0.36550  -0.36451  -0.36425
 Alpha  occ. eigenvalues --   -0.36361  -0.36281  -0.36067  -0.35940  -0.35885
 Alpha  occ. eigenvalues --   -0.35850  -0.35707  -0.35675  -0.35545  -0.35455
 Alpha  occ. eigenvalues --   -0.35416  -0.35380  -0.35200  -0.35104  -0.35037
 Alpha  occ. eigenvalues --   -0.34919  -0.34847  -0.34821  -0.34761  -0.34716
 Alpha  occ. eigenvalues --   -0.34640  -0.34512  -0.34397  -0.34298  -0.34146
 Alpha  occ. eigenvalues --   -0.34137  -0.34124  -0.34010  -0.33894  -0.33653
 Alpha  occ. eigenvalues --   -0.33585  -0.33410  -0.33207  -0.33079  -0.32745
 Alpha  occ. eigenvalues --   -0.32622  -0.32415  -0.32209  -0.32098  -0.31969
 Alpha  occ. eigenvalues --   -0.31906  -0.31874  -0.31813  -0.31586  -0.31187
 Alpha  occ. eigenvalues --   -0.31085  -0.30202  -0.29827  -0.29158  -0.29064
 Alpha  occ. eigenvalues --   -0.28952  -0.28738  -0.28400  -0.28134  -0.27704
 Alpha  occ. eigenvalues --   -0.27628  -0.27345  -0.26896  -0.26334  -0.25992
 Alpha  occ. eigenvalues --   -0.25922  -0.25528  -0.24514  -0.24033  -0.23187
 Alpha  occ. eigenvalues --   -0.22257  -0.21656  -0.21540  -0.20604  -0.18272
 Alpha virt. eigenvalues --    0.07697   0.13591   0.13614   0.14091   0.14170
 Alpha virt. eigenvalues --    0.15349   0.15415   0.15718   0.16226   0.16301
 Alpha virt. eigenvalues --    0.17309   0.18126   0.18812   0.19064   0.19381
 Alpha virt. eigenvalues --    0.19825   0.19957   0.20227   0.20789   0.21199
 Alpha virt. eigenvalues --    0.21437   0.21732   0.21761   0.22040   0.22135
 Alpha virt. eigenvalues --    0.22420   0.22635   0.22988   0.23072   0.23152
 Alpha virt. eigenvalues --    0.23374   0.23484   0.23658   0.23902   0.23943
 Alpha virt. eigenvalues --    0.24275   0.24425   0.24437   0.24869   0.24908
 Alpha virt. eigenvalues --    0.25091   0.25238   0.25399   0.25443   0.25752
 Alpha virt. eigenvalues --    0.25907   0.26042   0.26190   0.26302   0.26348
 Alpha virt. eigenvalues --    0.26486   0.26622   0.26773   0.26855   0.26895
 Alpha virt. eigenvalues --    0.27135   0.27290   0.27465   0.27493   0.27685
 Alpha virt. eigenvalues --    0.27807   0.27874   0.27968   0.28090   0.28103
 Alpha virt. eigenvalues --    0.28303   0.28346   0.28446   0.28596   0.28663
 Alpha virt. eigenvalues --    0.28856   0.28993   0.29014   0.29299   0.29349
 Alpha virt. eigenvalues --    0.29514   0.29576   0.29701   0.29751   0.29841
 Alpha virt. eigenvalues --    0.29990   0.30084   0.30120   0.30255   0.30351
 Alpha virt. eigenvalues --    0.30403   0.30461   0.30590   0.30843   0.30929
 Alpha virt. eigenvalues --    0.30964   0.31067   0.31246   0.31276   0.31364
 Alpha virt. eigenvalues --    0.31445   0.31502   0.31666   0.31689   0.31776
 Alpha virt. eigenvalues --    0.31865   0.31952   0.32017   0.32031   0.32093
 Alpha virt. eigenvalues --    0.32340   0.32435   0.32552   0.32664   0.32718
 Alpha virt. eigenvalues --    0.32834   0.33008   0.33069   0.33142   0.33281
 Alpha virt. eigenvalues --    0.33349   0.33444   0.33565   0.33592   0.33751
 Alpha virt. eigenvalues --    0.33895   0.34015   0.34130   0.34162   0.34243
 Alpha virt. eigenvalues --    0.34341   0.34420   0.34564   0.34627   0.34705
 Alpha virt. eigenvalues --    0.34773   0.34820   0.34893   0.35113   0.35190
 Alpha virt. eigenvalues --    0.35269   0.35438   0.35483   0.35562   0.35649
 Alpha virt. eigenvalues --    0.35788   0.35944   0.35993   0.36081   0.36127
 Alpha virt. eigenvalues --    0.36257   0.36586   0.36611   0.36664   0.36782
 Alpha virt. eigenvalues --    0.36877   0.37004   0.37132   0.37257   0.37349
 Alpha virt. eigenvalues --    0.37482   0.37544   0.37626   0.37701   0.37844
 Alpha virt. eigenvalues --    0.37986   0.38016   0.38140   0.38314   0.38403
 Alpha virt. eigenvalues --    0.38527   0.38721   0.38788   0.38923   0.38950
 Alpha virt. eigenvalues --    0.38983   0.39206   0.39264   0.39479   0.39537
 Alpha virt. eigenvalues --    0.39605   0.39743   0.39765   0.39908   0.40042
 Alpha virt. eigenvalues --    0.40175   0.40295   0.40527   0.40595   0.40618
 Alpha virt. eigenvalues --    0.40799   0.40876   0.41085   0.41290   0.41360
 Alpha virt. eigenvalues --    0.41529   0.41712   0.41800   0.41898   0.42170
 Alpha virt. eigenvalues --    0.42206   0.42299   0.42537   0.42690   0.42791
 Alpha virt. eigenvalues --    0.42932   0.43112   0.43282   0.43325   0.43420
 Alpha virt. eigenvalues --    0.43635   0.43708   0.44013   0.44079   0.44365
 Alpha virt. eigenvalues --    0.44552   0.44623   0.44809   0.45055   0.45217
 Alpha virt. eigenvalues --    0.45294   0.45578   0.45600   0.45827   0.45923
 Alpha virt. eigenvalues --    0.46120   0.46228   0.46510   0.46680   0.46737
 Alpha virt. eigenvalues --    0.46917   0.47119   0.47333   0.47703   0.48005
 Alpha virt. eigenvalues --    0.48232   0.48910   0.49204   0.49310   0.49508
 Alpha virt. eigenvalues --    0.49571   0.49922   0.50261   0.50619   0.50977
 Alpha virt. eigenvalues --    0.51212   0.51444   0.51586   0.51965   0.52215
 Alpha virt. eigenvalues --    0.52520   0.52835   0.53286   0.53521   0.54141
 Alpha virt. eigenvalues --    0.54539   0.54907   0.55516   0.56509   0.56977
 Alpha virt. eigenvalues --    0.57635   0.58067   0.58471   0.59395   0.60398
 Alpha virt. eigenvalues --    0.61313   0.61394   0.61756   0.61904   0.62110
 Alpha virt. eigenvalues --    0.62832   0.63243   0.63427   0.63805   0.63880
 Alpha virt. eigenvalues --    0.64170   0.64318   0.64498   0.64576   0.64744
 Alpha virt. eigenvalues --    0.64879   0.65004   0.65177   0.65289   0.65589
 Alpha virt. eigenvalues --    0.65702   0.65798   0.65999   0.66224   0.66471
 Alpha virt. eigenvalues --    0.66519   0.66634   0.66973   0.67140   0.67353
 Alpha virt. eigenvalues --    0.67593   0.67797   0.67826   0.68053   0.68219
 Alpha virt. eigenvalues --    0.68316   0.68424   0.68836   0.68976   0.69073
 Alpha virt. eigenvalues --    0.69192   0.69300   0.69442   0.69602   0.69997
 Alpha virt. eigenvalues --    0.70103   0.70122   0.70399   0.70449   0.70522
 Alpha virt. eigenvalues --    0.70652   0.71004   0.71070   0.71199   0.71300
 Alpha virt. eigenvalues --    0.71611   0.71766   0.71973   0.72132   0.72239
 Alpha virt. eigenvalues --    0.72340   0.72640   0.72682   0.72770   0.72891
 Alpha virt. eigenvalues --    0.73008   0.73173   0.73314   0.73546   0.73763
 Alpha virt. eigenvalues --    0.73800   0.73994   0.74202   0.74292   0.74330
 Alpha virt. eigenvalues --    0.74488   0.74664   0.74776   0.75072   0.75173
 Alpha virt. eigenvalues --    0.75277   0.75405   0.75490   0.75632   0.75815
 Alpha virt. eigenvalues --    0.76003   0.76280   0.76344   0.76467   0.76605
 Alpha virt. eigenvalues --    0.76657   0.76803   0.77115   0.77197   0.77310
 Alpha virt. eigenvalues --    0.77499   0.77668   0.77888   0.78010   0.78116
 Alpha virt. eigenvalues --    0.78340   0.78504   0.78557   0.78789   0.78864
 Alpha virt. eigenvalues --    0.79250   0.79335   0.79546   0.79631   0.79845
 Alpha virt. eigenvalues --    0.79943   0.80174   0.80220   0.80329   0.80464
 Alpha virt. eigenvalues --    0.80647   0.81140   0.81170   0.81261   0.81523
 Alpha virt. eigenvalues --    0.81595   0.81748   0.81967   0.82023   0.82201
 Alpha virt. eigenvalues --    0.82355   0.82504   0.82708   0.82871   0.82934
 Alpha virt. eigenvalues --    0.83196   0.83241   0.83302   0.83489   0.83610
 Alpha virt. eigenvalues --    0.83686   0.83794   0.83835   0.83918   0.84026
 Alpha virt. eigenvalues --    0.84265   0.84286   0.84430   0.84572   0.84693
 Alpha virt. eigenvalues --    0.84836   0.84957   0.85209   0.85390   0.85619
 Alpha virt. eigenvalues --    0.85780   0.85901   0.86065   0.86334   0.86516
 Alpha virt. eigenvalues --    0.86784   0.86882   0.87080   0.87184   0.87339
 Alpha virt. eigenvalues --    0.87560   0.87825   0.87955   0.88271   0.88512
 Alpha virt. eigenvalues --    0.88702   0.88845   0.89013   0.89068   0.89400
 Alpha virt. eigenvalues --    0.89458   0.89614   0.89772   0.90001   0.90441
 Alpha virt. eigenvalues --    0.90518   0.90718   0.90840   0.90871   0.91021
 Alpha virt. eigenvalues --    0.91191   0.91724   0.91876   0.92147   0.92309
 Alpha virt. eigenvalues --    0.92465   0.92606   0.92738   0.92808   0.92966
 Alpha virt. eigenvalues --    0.93201   0.93325   0.93558   0.93812   0.93988
 Alpha virt. eigenvalues --    0.94088   0.94242   0.94485   0.94667   0.95016
 Alpha virt. eigenvalues --    0.95311   0.95333   0.95534   0.95613   0.95885
 Alpha virt. eigenvalues --    0.96125   0.96296   0.96486   0.96728   0.96895
 Alpha virt. eigenvalues --    0.97120   0.97281   0.97477   0.97521   0.97561
 Alpha virt. eigenvalues --    0.97864   0.98010   0.98134   0.98381   0.98530
 Alpha virt. eigenvalues --    0.98720   0.98938   0.98972   0.99214   0.99374
 Alpha virt. eigenvalues --    0.99484   0.99604   0.99768   0.99879   0.99961
 Alpha virt. eigenvalues --    1.00349   1.00426   1.00668   1.00698   1.00709
 Alpha virt. eigenvalues --    1.00940   1.01119   1.01191   1.01324   1.01359
 Alpha virt. eigenvalues --    1.01541   1.01592   1.01656   1.01735   1.01936
 Alpha virt. eigenvalues --    1.02124   1.02228   1.02343   1.02549   1.02573
 Alpha virt. eigenvalues --    1.02653   1.02863   1.02890   1.03067   1.03203
 Alpha virt. eigenvalues --    1.03361   1.03388   1.03501   1.03681   1.03785
 Alpha virt. eigenvalues --    1.03910   1.04036   1.04203   1.04254   1.04440
 Alpha virt. eigenvalues --    1.04632   1.04648   1.04848   1.04909   1.05188
 Alpha virt. eigenvalues --    1.05203   1.05310   1.05426   1.05690   1.05791
 Alpha virt. eigenvalues --    1.05975   1.06000   1.06127   1.06183   1.06437
 Alpha virt. eigenvalues --    1.06471   1.06534   1.06732   1.06830   1.06914
 Alpha virt. eigenvalues --    1.07074   1.07091   1.07235   1.07438   1.07467
 Alpha virt. eigenvalues --    1.07586   1.07643   1.07760   1.07888   1.08008
 Alpha virt. eigenvalues --    1.08107   1.08229   1.08351   1.08412   1.08489
 Alpha virt. eigenvalues --    1.08545   1.08759   1.08872   1.09014   1.09166
 Alpha virt. eigenvalues --    1.09290   1.09327   1.09349   1.09528   1.09791
 Alpha virt. eigenvalues --    1.09838   1.09971   1.10085   1.10141   1.10308
 Alpha virt. eigenvalues --    1.10515   1.10621   1.10720   1.10897   1.11064
 Alpha virt. eigenvalues --    1.11183   1.11207   1.11436   1.11477   1.11699
 Alpha virt. eigenvalues --    1.11777   1.11946   1.12230   1.12448   1.12495
 Alpha virt. eigenvalues --    1.12724   1.12851   1.13106   1.13246   1.13382
 Alpha virt. eigenvalues --    1.13618   1.13723   1.13868   1.14047   1.14180
 Alpha virt. eigenvalues --    1.14200   1.14311   1.14397   1.14531   1.14806
 Alpha virt. eigenvalues --    1.14987   1.15085   1.15237   1.15514   1.15753
 Alpha virt. eigenvalues --    1.15860   1.15911   1.16056   1.16148   1.16358
 Alpha virt. eigenvalues --    1.16514   1.16701   1.16908   1.17069   1.17111
 Alpha virt. eigenvalues --    1.17320   1.17525   1.17742   1.17959   1.18167
 Alpha virt. eigenvalues --    1.18351   1.18578   1.18642   1.18743   1.18877
 Alpha virt. eigenvalues --    1.19420   1.19561   1.19771   1.19990   1.20051
 Alpha virt. eigenvalues --    1.20238   1.20450   1.20592   1.20771   1.20922
 Alpha virt. eigenvalues --    1.21119   1.21322   1.21421   1.21918   1.22037
 Alpha virt. eigenvalues --    1.22146   1.22327   1.22673   1.22817   1.22991
 Alpha virt. eigenvalues --    1.23061   1.23469   1.23604   1.23631   1.23840
 Alpha virt. eigenvalues --    1.24070   1.24228   1.24452   1.24594   1.25099
 Alpha virt. eigenvalues --    1.25314   1.25450   1.25873   1.26042   1.26550
 Alpha virt. eigenvalues --    1.26784   1.26930   1.26990   1.27144   1.27498
 Alpha virt. eigenvalues --    1.27914   1.28124   1.28380   1.28696   1.29193
 Alpha virt. eigenvalues --    1.29231   1.29662   1.30250   1.30534   1.30635
 Alpha virt. eigenvalues --    1.30779   1.31089   1.31391   1.31683   1.31846
 Alpha virt. eigenvalues --    1.31955   1.32165   1.32230   1.32591   1.32886
 Alpha virt. eigenvalues --    1.33118   1.33339   1.33791   1.33950   1.34011
 Alpha virt. eigenvalues --    1.34195   1.34513   1.34665   1.35061   1.35150
 Alpha virt. eigenvalues --    1.35640   1.35773   1.35947   1.36390   1.36541
 Alpha virt. eigenvalues --    1.36735   1.37077   1.37226   1.37656   1.37846
 Alpha virt. eigenvalues --    1.37996   1.38337   1.38792   1.38928   1.39531
 Alpha virt. eigenvalues --    1.39719   1.39787   1.40113   1.40441   1.40456
 Alpha virt. eigenvalues --    1.40600   1.40884   1.41151   1.41615   1.41827
 Alpha virt. eigenvalues --    1.41957   1.42156   1.42776   1.43322   1.43341
 Alpha virt. eigenvalues --    1.43704   1.44125   1.44537   1.45531   1.45757
 Alpha virt. eigenvalues --    1.46109   1.46282   1.46714   1.47038   1.47360
 Alpha virt. eigenvalues --    1.47754   1.48017   1.48168   1.48499   1.49126
 Alpha virt. eigenvalues --    1.49336   1.49625   1.49838   1.50602   1.50939
 Alpha virt. eigenvalues --    1.51332   1.51645   1.51944   1.52146   1.52323
 Alpha virt. eigenvalues --    1.52698   1.53052   1.53395   1.53780   1.54140
 Alpha virt. eigenvalues --    1.54924   1.55224   1.55485   1.55875   1.56246
 Alpha virt. eigenvalues --    1.56291   1.56478   1.56771   1.57030   1.57203
 Alpha virt. eigenvalues --    1.57453   1.57713   1.57795   1.58152   1.58279
 Alpha virt. eigenvalues --    1.58347   1.58480   1.58630   1.58851   1.59090
 Alpha virt. eigenvalues --    1.59265   1.59556   1.59665   1.59774   1.59824
 Alpha virt. eigenvalues --    1.60064   1.60191   1.60390   1.60731   1.60912
 Alpha virt. eigenvalues --    1.61031   1.61173   1.61264   1.61505   1.61743
 Alpha virt. eigenvalues --    1.61889   1.61992   1.62072   1.62304   1.62657
 Alpha virt. eigenvalues --    1.62672   1.62905   1.63009   1.63663   1.63796
 Alpha virt. eigenvalues --    1.64225   1.64596   1.64794   1.64944   1.65084
 Alpha virt. eigenvalues --    1.65218   1.65457   1.65786   1.66069   1.66320
 Alpha virt. eigenvalues --    1.66422   1.66747   1.66840   1.66963   1.67084
 Alpha virt. eigenvalues --    1.67331   1.67901   1.68012   1.68303   1.68669
 Alpha virt. eigenvalues --    1.68999   1.69319   1.69401   1.69704   1.70371
 Alpha virt. eigenvalues --    1.70656   1.70757   1.71929   1.73177   1.73587
 Alpha virt. eigenvalues --    1.74463   1.74627   1.74909   1.75456   1.76423
 Alpha virt. eigenvalues --    1.77117   1.77573   1.77901   1.78305   1.78947
 Alpha virt. eigenvalues --    1.79084   1.79533   1.80049   1.80620   1.81049
 Alpha virt. eigenvalues --    1.81165   1.81381   1.81771   1.82394   1.82611
 Alpha virt. eigenvalues --    1.83038   1.83413   1.83768   1.83962   1.84347
 Alpha virt. eigenvalues --    1.84443   1.84701   1.85537   1.85893   1.85969
 Alpha virt. eigenvalues --    1.85997   1.86433   1.86704   1.87200   1.87417
 Alpha virt. eigenvalues --    1.87680   1.87770   1.88220   1.88355   1.88569
 Alpha virt. eigenvalues --    1.88660   1.88847   1.89266   1.89677   1.89871
 Alpha virt. eigenvalues --    1.90167   1.90639   1.91017   1.91142   1.91606
 Alpha virt. eigenvalues --    1.91650   1.91941   1.92193   1.92395   1.92446
 Alpha virt. eigenvalues --    1.92684   1.93247   1.93482   1.93645   1.93668
 Alpha virt. eigenvalues --    1.93828   1.94125   1.94213   1.94329   1.95063
 Alpha virt. eigenvalues --    1.95321   1.95402   1.95660   1.95792   1.96036
 Alpha virt. eigenvalues --    1.96308   1.96414   1.96612   1.96710   1.96743
 Alpha virt. eigenvalues --    1.96830   1.96955   1.97230   1.97600   1.97775
 Alpha virt. eigenvalues --    1.97918   1.98004   1.98123   1.98505   1.98689
 Alpha virt. eigenvalues --    1.98913   1.99057   1.99105   1.99483   1.99583
 Alpha virt. eigenvalues --    1.99814   2.00036   2.00160   2.00285   2.00559
 Alpha virt. eigenvalues --    2.01042   2.01526   2.01662   2.02025   2.02254
 Alpha virt. eigenvalues --    2.02273   2.02674   2.02854   2.03188   2.04231
 Alpha virt. eigenvalues --    2.04524   2.04782   2.04855   2.05256   2.05397
 Alpha virt. eigenvalues --    2.05523   2.05725   2.05870   2.05952   2.06068
 Alpha virt. eigenvalues --    2.06556   2.06820   2.07231   2.07697   2.07733
 Alpha virt. eigenvalues --    2.07945   2.08050   2.08330   2.08622   2.08728
 Alpha virt. eigenvalues --    2.08878   2.09080   2.09162   2.09246   2.09630
 Alpha virt. eigenvalues --    2.09675   2.10036   2.10091   2.10202   2.10449
 Alpha virt. eigenvalues --    2.10510   2.10775   2.10826   2.10939   2.11340
 Alpha virt. eigenvalues --    2.11570   2.11621   2.11740   2.11863   2.11994
 Alpha virt. eigenvalues --    2.12052   2.12290   2.12335   2.12672   2.13136
 Alpha virt. eigenvalues --    2.13463   2.13600   2.13711   2.13927   2.14053
 Alpha virt. eigenvalues --    2.14229   2.14259   2.14522   2.14659   2.14813
 Alpha virt. eigenvalues --    2.14905   2.14980   2.15286   2.15337   2.15730
 Alpha virt. eigenvalues --    2.15772   2.16254   2.16385   2.16547   2.16687
 Alpha virt. eigenvalues --    2.17035   2.17253   2.17680   2.17697   2.17808
 Alpha virt. eigenvalues --    2.17897   2.18528   2.18611   2.18835   2.19077
 Alpha virt. eigenvalues --    2.19113   2.19685   2.19850   2.20155   2.20385
 Alpha virt. eigenvalues --    2.20662   2.20721   2.20872   2.21085   2.21402
 Alpha virt. eigenvalues --    2.21663   2.21913   2.21992   2.22211   2.22363
 Alpha virt. eigenvalues --    2.22556   2.23083   2.23546   2.23729   2.23980
 Alpha virt. eigenvalues --    2.24597   2.24829   2.25021   2.25100   2.25503
 Alpha virt. eigenvalues --    2.25765   2.25960   2.26108   2.26291   2.26759
 Alpha virt. eigenvalues --    2.27134   2.27392   2.27706   2.27816   2.28318
 Alpha virt. eigenvalues --    2.28412   2.28585   2.28729   2.29154   2.29278
 Alpha virt. eigenvalues --    2.29620   2.29838   2.30011   2.30257   2.30477
 Alpha virt. eigenvalues --    2.30645   2.30782   2.31156   2.31671   2.32049
 Alpha virt. eigenvalues --    2.32236   2.32412   2.32964   2.33207   2.33548
 Alpha virt. eigenvalues --    2.33958   2.34324   2.34561   2.34882   2.35067
 Alpha virt. eigenvalues --    2.35526   2.35889   2.36229   2.36480   2.37273
 Alpha virt. eigenvalues --    2.37404   2.37658   2.37939   2.38276   2.38541
 Alpha virt. eigenvalues --    2.38883   2.38944   2.39161   2.39732   2.39914
 Alpha virt. eigenvalues --    2.40142   2.40266   2.40301   2.40632   2.40724
 Alpha virt. eigenvalues --    2.40782   2.40873   2.41001   2.41095   2.41309
 Alpha virt. eigenvalues --    2.41521   2.41814   2.42013   2.42282   2.42366
 Alpha virt. eigenvalues --    2.42658   2.42903   2.43180   2.43340   2.43611
 Alpha virt. eigenvalues --    2.43952   2.43991   2.44093   2.44189   2.44221
 Alpha virt. eigenvalues --    2.44298   2.44604   2.44639   2.44915   2.45062
 Alpha virt. eigenvalues --    2.45217   2.45401   2.45800   2.45957   2.46022
 Alpha virt. eigenvalues --    2.46519   2.46579   2.46811   2.47202   2.47450
 Alpha virt. eigenvalues --    2.47493   2.47669   2.47724   2.47745   2.47944
 Alpha virt. eigenvalues --    2.48241   2.48442   2.48626   2.48761   2.48863
 Alpha virt. eigenvalues --    2.48983   2.49235   2.49910   2.50050   2.50191
 Alpha virt. eigenvalues --    2.50780   2.50938   2.51194   2.51340   2.51412
 Alpha virt. eigenvalues --    2.51608   2.51805   2.52280   2.52823   2.52857
 Alpha virt. eigenvalues --    2.53443   2.53682   2.53831   2.54078   2.55072
 Alpha virt. eigenvalues --    2.55271   2.55418   2.55970   2.56217   2.57037
 Alpha virt. eigenvalues --    2.57313   2.57503   2.57746   2.57982   2.58105
 Alpha virt. eigenvalues --    2.58214   2.58863   2.59074   2.59158   2.61333
 Alpha virt. eigenvalues --    2.61415   2.61722   2.62340   2.63489   2.63572
 Alpha virt. eigenvalues --    2.63656   2.64110   2.64750   2.64975   2.65165
 Alpha virt. eigenvalues --    2.65643   2.65861   2.66097   2.66314   2.66627
 Alpha virt. eigenvalues --    2.66712   2.66920   2.67012   2.67210   2.67553
 Alpha virt. eigenvalues --    2.68157   2.68218   2.68358   2.68397   2.68636
 Alpha virt. eigenvalues --    2.68892   2.68909   2.69239   2.69474   2.70021
 Alpha virt. eigenvalues --    2.70231   2.70556   2.70979   2.71054   2.72433
 Alpha virt. eigenvalues --    2.72842   2.72950   2.73554   2.73969   2.74799
 Alpha virt. eigenvalues --    2.75142   2.75378   2.75829   2.76339   2.76483
 Alpha virt. eigenvalues --    2.76907   2.77413   2.78558   2.78766   2.78925
 Alpha virt. eigenvalues --    2.79139   2.79781   2.79938   2.80159   2.80375
 Alpha virt. eigenvalues --    2.81369   2.82320   2.82451   2.82525   2.82655
 Alpha virt. eigenvalues --    2.82845   2.82971   2.83186   2.83376   2.83665
 Alpha virt. eigenvalues --    2.84244   2.84709   2.85097   2.85138   2.85445
 Alpha virt. eigenvalues --    2.85946   2.86053   2.86465   2.86728   2.86985
 Alpha virt. eigenvalues --    2.87224   2.87374   2.87562   2.88450   2.88643
 Alpha virt. eigenvalues --    2.89333   2.89898   2.90125   2.90412   2.90805
 Alpha virt. eigenvalues --    2.91037   2.91400   2.91646   2.91922   2.92048
 Alpha virt. eigenvalues --    2.92369   2.93000   2.93711   2.94108   2.94746
 Alpha virt. eigenvalues --    2.95216   2.95449   2.95913   2.96772   2.97888
 Alpha virt. eigenvalues --    2.98991   3.00153   3.01274   3.01750   3.02563
 Alpha virt. eigenvalues --    3.04239   3.04718   3.04977   3.06028   3.06480
 Alpha virt. eigenvalues --    3.06757   3.08293   3.08983   3.09931   3.10753
 Alpha virt. eigenvalues --    3.11988   3.12967   3.15438   3.16129   3.18335
 Alpha virt. eigenvalues --    3.18740   3.19371   3.20516   3.21290   3.22695
 Alpha virt. eigenvalues --    3.23689   3.24697   3.27861   3.28571   3.29373
 Alpha virt. eigenvalues --    3.29950   3.33587   3.34500   3.36166   3.43536
 Alpha virt. eigenvalues --    3.58372   3.59418   3.63593   3.90756   3.93341
 Alpha virt. eigenvalues --    4.09483   4.10317   4.11062   4.16326   4.18483
 Alpha virt. eigenvalues --    4.21783   4.23947   4.24621   4.28759   4.29201
 Alpha virt. eigenvalues --    4.29322   4.29883   4.30070   4.30678   4.30917
 Alpha virt. eigenvalues --    4.31124   4.31701   4.32267   4.32336   4.33507
 Alpha virt. eigenvalues --    4.33824   4.34298   4.34762   4.34808   4.35247
 Alpha virt. eigenvalues --    4.35342   4.36006   4.36369   4.37100   4.37305
 Alpha virt. eigenvalues --    4.37713   4.38131   4.40471   4.40777   4.41078
 Alpha virt. eigenvalues --    4.42091   4.43505   4.44440   4.44846   4.45240
 Alpha virt. eigenvalues --    4.45532   4.45782   4.45947   4.47474   4.48042
 Alpha virt. eigenvalues --    4.48256   4.48629   4.49001   4.49644   4.49920
 Alpha virt. eigenvalues --    4.50336   4.51007   4.51346   4.51592   4.52773
 Alpha virt. eigenvalues --    4.52989   4.53429   4.53690   4.54608   4.54999
 Alpha virt. eigenvalues --    4.56571   4.57014   4.57726   4.58920   4.59075
 Alpha virt. eigenvalues --    4.59359   4.60454   4.61411   4.62749   4.62945
 Alpha virt. eigenvalues --    4.63308   4.63948   4.64499   4.65483   4.66441
 Alpha virt. eigenvalues --    4.66977   4.69781   4.70970   4.72256   4.72830
 Alpha virt. eigenvalues --    4.74119   4.74964   4.76513   4.76813   4.77119
 Alpha virt. eigenvalues --    4.77962   4.78945   4.81946   4.84985   4.87942
 Alpha virt. eigenvalues --    4.89271   4.93069   4.93182   4.95394   4.99846
 Alpha virt. eigenvalues --    5.01081   5.02543
          Condensed to atoms (all electrons):
 Mulliken charges:
               1
     1  H    0.149479
     2  C   -0.482499
     3  H    0.163787
     4  C   -0.373771
     5  H    0.153459
     6  H    0.157990
     7  C    0.140039
     8  C   -0.215579
     9  H    0.141810
    10  C   -0.203413
    11  H    0.160601
    12  C    0.346571
    13  O   -0.706546
    14  H    0.469579
    15  C   -0.246373
    16  H    0.184238
    17  C   -0.215383
    18  H    0.150447
    19  H    0.167034
    20  H    0.152175
    21  C   -0.487448
    22  H    0.154348
    23  C   -0.109765
    24  H    0.144997
    25  C   -0.489146
    26  H    0.157479
    27  H    0.150763
    28  H    0.169391
    29  C   -0.482093
    30  H    0.176574
    31  H    0.149966
    32  H    0.152364
    33  H    0.152313
    34  H    0.130142
    35  C   -0.477136
    36  H    0.163638
    37  C   -0.397415
    38  H    0.153299
    39  H    0.167434
    40  C    0.620782
    41  O   -0.641594
    42  O   -0.594122
    43  H    0.169266
    44  H    0.159893
    45  C   -0.623497
    46  H    0.265625
    47  H    0.215705
    48  C    0.611711
    49  O   -0.541404
    50  N   -0.614007
[...]
   71 Atom       -0.021473     -0.011119      0.032592
   72 Atom       -0.279873      0.139235      0.140637
   73 Atom       -0.033845      0.003680      0.030165
   74 Atom       -0.291286      0.142412      0.148874
   75 Atom       -0.287073      0.139882      0.147191
   76 Atom       -0.291157      0.142436      0.148721
   77 Atom       -0.042259      0.005194      0.037065
   78 Atom       -0.288423      0.139352      0.149071
   79 Atom       -0.291241      0.142599      0.148642
   80 Atom       -0.284635      0.137842      0.146793
   81 Atom       -0.291382      0.142810      0.148572
   82 Atom       -0.291696      0.143904      0.147791
   83 Atom       -0.035775      0.013185      0.022591
   84 Atom       -0.293919      0.144105      0.149814
   85 Atom       -0.038010     -0.003280      0.041289
   86 Atom       -0.283896      0.136284      0.147612
   87 Atom       -0.283489      0.137754      0.145736
   88 Atom       -0.265305      0.087393      0.177911
   89 Atom       -0.228266      0.078302      0.149964
   90 Atom       -0.299102      0.138975      0.160127
   91 Atom       -0.276061      0.112643      0.163418
   92 Atom       -0.299398      0.141322      0.158076
   93 Atom       -0.289098      0.136950      0.152148
   94 Atom       -0.297990      0.143891      0.154099
   95 Atom       -0.298470      0.142536      0.155933
   96 Atom       -0.299657      0.143485      0.156173
   97 Atom       -0.237399      0.089365      0.148034
   98 Atom       -0.303476      0.141623      0.161854
   99 Atom       -0.290575      0.143165      0.147409
  100 Atom       -0.288629      0.140891      0.147737
  101 Atom       -0.024222      0.009008      0.015214
  102 Atom       -0.292399      0.142572      0.149828
  103 Atom       -0.017491     -0.009462      0.026953
  104 Atom       -0.278232      0.137095      0.141137
  105 Atom       -0.023201      0.007291      0.015909
  106 Atom       -0.287726      0.140677      0.147049
  107 Atom       -0.291231      0.142355      0.148876
  108 Atom       -0.290347      0.142260      0.148087
  109 Atom       -0.029512      0.006973      0.022539
  110 Atom       -0.287674      0.140350      0.147325
  111 Atom       -0.293071      0.144469      0.148602
  112 Atom       -0.290054      0.142151      0.147903
  113 Atom       -0.291487      0.141526      0.149962
  114 Atom       -0.290629      0.141090      0.149539
  115 Atom       -0.046537      0.012613      0.033924
  116 Atom       -0.293529      0.143343      0.150187
  117 Atom       -0.063474      0.013790      0.049684
  118 Atom       -0.283248      0.139017      0.144231
  119 Atom       -0.284386      0.137727      0.146658
  120 Atom       -0.208385      0.079592      0.128793
  121 Atom       -0.280640      0.134983      0.145658
  122 Atom       -0.281831      0.135505      0.146325
  123 Atom       -2.306354     -0.550156      2.856509
  124 Atom       -0.210519      0.097982      0.112537
  125 Atom       -0.290972      0.140797      0.150176
  126 Atom       -0.289481      0.140086      0.149395
  127 Atom       -0.292440      0.138869      0.153570
  128 Atom       -0.290657      0.141361      0.149296
  129 Atom       -0.292544      0.144607      0.147937
  130 Atom       -0.014438      0.003977      0.010460
  131 Atom       -0.292711      0.144293      0.148418
  132 Atom       -0.040136      0.009168      0.030969
  133 Atom       -0.284562      0.138247      0.146315
  134 Atom       -0.282870      0.138763      0.144107
  135 Atom       -0.029304     -0.001520      0.030824
  136 Atom       -0.276961      0.136982      0.139979
  137 Atom       -0.021690     -0.000568      0.022258
  138 Atom       -0.292805      0.143681      0.149124
  139 Atom       -0.289736      0.141385      0.148351
  140 Atom       -0.289692      0.141627      0.148065
  141 Atom       -0.052149      0.010686      0.041464
  142 Atom       -0.291292      0.141621      0.149671
  143 Atom       -0.284141      0.137615      0.146527
  144 Atom       -0.290672      0.140513      0.150159
  145 Atom       -0.289216      0.142460      0.146756
  146 Atom       -0.291110      0.143265      0.147845
  147 Atom       -0.005547     -0.000079      0.005626
  148 Atom       -0.287336      0.141690      0.145646
  149 Atom       -0.044574     -0.023013      0.067587
  150 Atom       -0.277968      0.138460      0.139508
  151 Atom       -0.028025     -0.011247      0.039271
  152 Atom       -0.283687      0.139675      0.144012
  153 Atom       -0.291966      0.142509      0.149457
  154 Atom       -0.287526      0.140892      0.146633
  155 Atom       -0.025812      0.002793      0.023020
  156 Atom       -0.291037      0.142279      0.148758
  157 Atom       -0.290203      0.141826      0.148377
  158 Atom       -0.278898      0.136402      0.142496
  159 Atom       -0.292178      0.143912      0.148267
  160 Atom       -0.294184      0.141598      0.152586
  161 Atom       -0.065361      0.021069      0.044292
  162 Atom       -0.290805      0.139744      0.151061
  163 Atom       -0.055176      0.021508      0.033668
  164 Atom       -0.286851      0.139321      0.147530
  165 Atom       -0.284567      0.137910      0.146658
  166 Atom       -0.403427      0.048318      0.355109
  167 Atom       -0.773115     -0.724155      1.497270
  168 Atom       -1.267408      0.418895      0.848513
  169 Atom       -0.300716      0.134927      0.165789
  170 Atom       -0.294299      0.143576      0.150722
  171 Atom       -0.292705      0.144153      0.148552
  172 Atom       -0.031523      0.008843      0.022680
  173 Atom       -0.292977      0.143779      0.149199
  174 Atom       -0.059813      0.028152      0.031661
  175 Atom       -0.287269      0.139659      0.147611
  176 Atom       -0.288561      0.141027      0.147534
  177 Atom       -0.287487      0.140068      0.147420
  178 Atom       -0.291265      0.142432      0.148833
  179 Atom       -0.292635      0.143409      0.149225
  180 Atom       -0.036409      0.011433      0.024977
  181 Atom       -0.292617      0.143783      0.148835
  182 Atom       -0.039956     -0.003432      0.043388
  183 Atom       -0.282594      0.139753      0.142841
  184 Atom       -0.285770      0.139650      0.146120
  185 Atom       -0.073285      0.011027      0.062258
  186 Atom       -0.112217     -0.089527      0.201744
  187 Atom       -0.307960      0.141077      0.166883
  188 Atom       -0.427064     -0.125382      0.552447
  189 Atom       -0.257248      0.104845      0.152402
  190 Atom       -0.150729     -0.079601      0.230329
  191 Atom       -0.213544      0.078680      0.134864
  192 Atom       -0.301522      0.142055      0.159467
  193 Atom       -0.218941      0.087234      0.131707
  194 Atom       -0.305132      0.142321      0.162811
  195 Atom       -0.191598      0.066179      0.125419
  196 Atom       -0.305985      0.142096      0.163889
  197 Atom       -0.220095      0.074438      0.145657
  198 Atom       -0.304474      0.143404      0.161070
  199 Atom       -0.188497      0.080126      0.108371
  200 Atom       -0.292557      0.142421      0.150137
  201 Atom       -0.561902      0.175070      0.386832
  202 Atom       -0.860514     -0.533508      1.394023
  203 Atom       -0.114384      0.007503      0.106881
  204 Atom       -0.561750      0.248487      0.313263
  205 Atom       -0.073103      0.004640      0.068463
  206 Atom       -0.046082      0.004669      0.041413
  207 Atom       -0.046631     -0.000212      0.046842
  208 Atom       -0.108124      0.006681      0.101443
  209 Atom       -0.055606     -0.012500      0.068105
  210 Atom       -0.037417     -0.001104      0.038520
  211 Atom       -0.041011      0.011798      0.029213
  212 Atom       -0.017368      0.002672      0.014696
  213 Atom       -0.016599     -0.001360      0.017959
  214 Atom       -0.023821     -0.002234      0.026055
  215 Atom       -0.039806     -0.016539      0.056345
  216 Atom       -0.082713      0.008911      0.073802
  217 Atom       -0.064880     -0.006963      0.071843
  218 Atom       -0.370486      0.174932      0.195554
  219 Atom       -0.078948      0.020669      0.058279
  220 Atom       -1.541221     -0.160637      1.701858
  221 Atom       -0.296833      0.133661      0.163172
  222 Atom       -0.259030      0.125154      0.133876
  223 Atom       -0.279412      0.136111      0.143301
  224 Atom       -0.290333      0.141451      0.148882
  225 Atom       -0.280833      0.134843      0.145990
  226 Atom       -0.284861      0.136955      0.147906
  227 Atom       -0.285799      0.135786      0.150014
  228 Atom       -0.248925      0.122762      0.126163
  229 Atom       -0.280586      0.137013      0.143574
  230 Atom       -0.284315      0.139753      0.144562
  231 Atom       -0.276675      0.137156      0.139519
  232 Atom       -0.270986      0.134955      0.136031
  233 Atom       -0.269947      0.131507      0.138440
  234 Atom       -0.278618      0.137320      0.141299
  235 Atom       -0.287259      0.139369      0.147890
  236 Atom       -0.269974      0.132246      0.137728
  237 Atom       -0.285988      0.139941      0.146047
  238 Atom       -0.288559      0.142045      0.146514
  239 Atom       -0.285864      0.141138      0.144726
  240 Atom       -0.293104      0.144100      0.149004
  241 Atom       -0.280567      0.137841      0.142727
  242 Atom       -0.269261      0.126435      0.142826
  243 Atom       -0.288120      0.138509      0.149611
  244 Atom       -0.278899      0.133996      0.144904
  245 Atom       -0.286305      0.138074      0.148231
  246 Atom       -0.442170      0.194181      0.247989
  247 Atom       -1.229885     -0.249971      1.479856
  248 Atom       -0.398539      0.175006      0.223533
  249 Atom       -0.337709      0.143740      0.193969
  250 Atom       -1.299914     -0.137497      1.437411
  251 Atom       -0.385395      0.166206      0.219189
  252 Atom       -0.380970      0.163470      0.217500
  253 Atom       -1.444637     -0.125205      1.569842
  254 Atom       -0.332801      0.136005      0.196796
  255 Atom       -0.470641      0.208930      0.261711
  256 Atom       -1.468777     -0.114092      1.582869
  257 Atom       -0.472582      0.209773      0.262809
  258 Atom       -0.347722      0.145241      0.202481
 -----------------------------------------------------
 Unable to Open any file for archive entry.
 1\1\GINC-EXP-3-36\SP\RwB97XD\6-31G(d)\C84H159N2O12S1(1-)\HKLEM\16-Jul-
 2024\0\\# 6-31G(d) wb97xd prop=efg\\19nt_mm_min_distance_cutoff3\\-1,1
 \H,0,8.485254,7.4492,3.639171\C,-1,7.833959,6.949523,2.912779\H,0,7.05
 2823,7.655006,2.60863\C,0,8.623019,6.461703,1.694544\H,0,9.126359,7.31
 4576,1.222493\H,0,9.415528,5.779748,2.027582\C,0,7.746378,5.765613,0.6
 80913\C,0,7.207951,6.453557,-0.408706\H,0,7.441915,7.508258,-0.541449\
 C,0,6.392337,5.819929,-1.336914\H,0,5.989294,6.354809,-2.191126\C,0,6.
 093099,4.462694,-1.193783\O,0,5.3276,3.878376,-2.139465\H,0,5.204583,2
 .930678,-1.913161\C,0,6.600846,3.763149,-0.093041\H,0,6.368625,2.70911
 2,0.027881\C,0,7.417065,4.416896,0.822784\H,0,7.816567,3.855489,1.6653
 5\H,0,7.340707,6.110299,3.415087\H,0,2.083049,8.248604,2.491029\C,-1,1
 .537313,7.386003,2.091597\H,0,1.201531,7.642091,1.07898\C,-1,2.422597,
 6.134677,2.060689\H,0,2.749877,5.927844,3.089416\C,0,1.636125,4.918312
 ,1.566132\H,0,0.74305,4.734223,2.174957\H,0,1.307396,5.069019,0.529653
 \H,0,2.253068,4.013283,1.590434\C,0,3.671164,6.356513,1.201484\H,0,4.3
 31268,5.481726,1.207791\H,0,4.255343,7.214001,1.554923\H,0,3.394523,6.
 550369,0.157122\H,0,0.646602,7.228958,2.710999\H,0,3.488275,-4.802008,
 -7.14399\C,-1,3.058981,-3.827098,-6.884455\H,0,2.550348,-3.424761,-7.7
 65549\C,0,2.091209,-3.949176,-5.712682\H,0,2.600023,-4.381764,-4.83932
 3\H,0,1.273777,-4.642894,-5.943367\C,-1,1.455069,-2.622265,-5.267602\O
 ,0,0.549442,-2.718799,-4.371594\O,0,1.850547,-1.562011,-5.788688\H,0,3
 .872125,-3.137937,-6.63995\H,0,-4.064873,4.492589,-5.92011\C,-1,-4.168
 916,3.808668,-5.072253\H,0,-3.208832,3.301185,-4.902535\H,0,-4.925645,
 3.054854,-5.293712\C,0,-4.558373,4.534385,-3.788961\O,0,-5.280153,4.02
 304,-2.931171\N,0,-4.041466,5.781632,-3.619059\H,0,-3.431721,6.134901,
 -4.341738\C,-1,-4.191097,6.596341,-2.412009\H,0,-4.575321,5.936399,-1.
 631176\C,-1,-2.861944,7.235733,-2.013852\H,0,-2.548489,7.928111,-2.809
 623\H,0,-3.035945,7.856812,-1.124055\C,0,-1.720314,6.250004,-1.726055\
 H,0,-1.57354,5.62293,-2.61601\C,0,-0.422836,7.01711,-1.461993\H,0,0.41
 6343,6.331328,-1.302246\H,0,-0.164777,7.673486,-2.301234\H,0,-0.517844
 ,7.640852,-0.564135\C,0,-2.051596,5.323424,-0.556102\H,-1,-2.317289,5.
 902172,0.338414\H,0,-2.882647,4.65023,-0.791828\H,0,-1.190173,4.697933
 ,-0.302024\H,0,-4.945616,7.375034,-2.580632\H,0,-6.806785,5.677647,2.6
 70309\C,-1,-5.924834,5.12447,3.013375\H,0,-6.26973,4.210826,3.504424\C
 ,-1,-4.982471,4.795954,1.850797\H,0,-4.602773,5.744883,1.444578\C,0,-3
 .785408,3.980441,2.3479\H,-1,-3.264764,4.50066,3.160397\H,0,-4.113937,
 3.00593,2.733774\H,0,-3.05986,3.791582,1.551292\C,0,-5.729627,4.077202
 ,0.72379\H,-1,-6.03797,3.076704,1.056893\H,0,-6.635448,4.620975,0.4333
 69\H,0,-5.119405,3.964637,-0.178621\H,0,-5.416247,5.73394,3.769484\H,0
 ,4.647548,-1.762563,7.553798\C,-1,3.70321,-2.309857,7.462582\H,0,3.343
 385,-2.519822,8.474871\C,0,2.659712,-1.508999,6.684158\H,0,1.701438,-2
 .042455,6.722339\H,0,2.486405,-0.554549,7.200424\C,-1,2.984136,-1.2220
 66,5.229089\C,0,1.963381,-0.765611,4.387301\H,0,0.961622,-0.641749,4.7
 94605\C,0,2.204066,-0.478856,3.048228\H,0,1.388285,-0.145234,2.410445\
 C,0,3.482003,-0.647495,2.519109\H,0,3.685692,-0.453239,1.471406\C,0,4.
 505889,-1.102403,3.341977\H,0,5.491129,-1.260762,2.91525\C,-1,4.259191
 ,-1.384652,4.685323\H,0,5.072407,-1.75049,5.30581\H,0,3.913803,-3.2659
 35,6.971115\H,0,-1.513196,-0.363589,5.654484\C,-1,-2.446762,-0.122465,
 5.128736\H,-1,-2.877396,0.770666,5.594811\C,0,-2.182477,0.097423,3.639
 159\H,0,-3.146154,0.332007,3.161549\C,0,-1.252719,1.29077,3.407266\H,0
 ,-0.275525,1.127799,3.878367\H,0,-1.678244,2.209579,3.827484\H,0,-1.08
 2429,1.46033,2.338527\C,0,-1.63453,-1.180674,3.003875\H,0,-0.684169,-1
 .478079,3.463387\H,0,-1.455556,-1.057799,1.932384\H,0,-2.335449,-2.013
 6,3.129941\H,0,-3.147119,-0.950418,5.28631\H,-1,-8.979028,0.794465,4.6
 18461\C,-1,-8.988163,1.50372,3.785109\H,0,-9.525237,2.401533,4.107979\
 C,0,-7.573825,1.861709,3.333834\H,0,-7.029274,2.32067,4.168315\H,0,-7.
 635619,2.620725,2.545851\C,-1,-6.745049,0.697495,2.789262\H,-1,-7.2546
 07,0.214244,1.947338\H,0,-5.781223,1.072055,2.420931\S,0,-6.419246,-0.
 52969,4.097885\C,0,-5.489481,-1.758155,3.148237\H,0,-6.091206,-2.17367
 1,2.334459\H,0,-4.567723,-1.336398,2.737318\H,0,-5.225577,-2.562062,3.
 839462\H,0,-9.554398,1.046584,2.965629\H,0,-4.904205,-5.266726,4.71916
 1\C,-1,-3.845152,-5.19257,4.447415\H,0,-3.344788,-6.09456,4.816626\C,0
 ,-3.670263,-5.025513,2.937227\H,0,-4.224136,-4.135948,2.611221\H,-1,-4
 .131471,-5.873179,2.410871\C,0,-2.214662,-4.888006,2.464787\H,0,-1.708
 154,-4.174201,3.132314\C,0,-1.453961,-6.212861,2.540526\H,-1,-1.452018
 ,-6.632366,3.553426\H,0,-1.902709,-6.949562,1.86322\H,0,-0.412099,-6.0
 71415,2.23463\C,0,-2.176951,-4.322295,1.044963\H,0,-2.586346,-3.305748
 ,1.020832\H,0,-2.765123,-4.942973,0.359468\H,0,-1.157388,-4.285367,0.6
 51169\H,0,-3.419269,-4.335411,4.984201\H,0,1.504269,-5.414731,3.878965
 \C,-1,2.386894,-5.496741,3.233398\H,0,2.193143,-6.294189,2.504254\C,-1
 ,2.678301,-4.170837,2.524924\H,0,2.877377,-3.414431,3.293794\C,0,3.922
 542,-4.278003,1.640142\H,-1,4.187215,-3.307542,1.205624\H,0,4.789272,-
 4.628294,2.2145\H,0,3.752837,-4.989097,0.819192\C,0,1.475007,-3.700682
 ,1.707277\H,0,1.680079,-2.729547,1.243483\H,0,0.583905,-3.58569,2.3367
 92\H,0,1.235382,-4.413805,0.906335\H,0,3.234829,-5.809131,3.85488\H,-1
 ,8.1183,-2.604511,1.623834\C,-1,7.990616,-3.203527,0.717376\H,0,7.0792
 36,-3.79554,0.842533\C,0,7.890044,-2.313958,-0.513304\H,0,8.797482,-1.
 715624,-0.655325\H,0,7.782684,-2.910006,-1.427795\C,-1,6.715115,-1.361
 377,-0.466709\O,0,5.884231,-1.337565,0.420441\O,0,6.693483,-0.55657,-1
 .521175\H,0,5.91488,0.058777,-1.444887\H,0,8.84156,-3.886292,0.630303\
 H,0,5.760101,-4.676971,-3.672144\C,-1,5.441424,-4.661139,-2.624678\H,0
 ,6.339012,-4.700316,-1.997083\C,0,4.606164,-3.417196,-2.320611\H,-1,4.
 31301,-3.388036,-1.265058\H,0,3.692778,-3.387385,-2.925391\H,0,5.16673
 3,-2.502184,-2.538052\H,0,4.871198,-5.578218,-2.437196\H,0,1.816262,-9
 .0136,-1.55909\C,-1,1.268042,-8.907107,-0.617023\H,0,1.722923,-9.57246
 4,0.125867\C,0,1.292923,-7.447548,-0.141621\H,0,0.784481,-7.386201,0.8
 30388\H,0,2.330953,-7.139517,0.038071\C,0,0.652376,-6.494643,-1.105843
 \C,0,1.261313,-5.502651,-1.835203\H,0,2.303559,-5.207799,-1.84236\N,0,
 0.353759,-4.84849,-2.627011\H,0,0.530423,-4.070565,-3.290829\C,0,-0.87
 8875,-5.403686,-2.416196\C,-1,-2.117824,-5.050636,-2.960912\H,0,-2.194
 393,-4.23072,-3.668715\C,-1,-3.224386,-5.778567,-2.55824\H,0,-4.202273
 ,-5.525817,-2.958438\C,0,-3.104485,-6.841252,-1.639209\H,0,-3.993194,-
 7.395287,-1.348777\C,0,-1.876478,-7.180932,-1.096836\H,0,-1.798282,-7.
 994509,-0.379524\C,0,-0.737281,-6.451628,-1.473315\H,0,0.241817,-9.244
 387,-0.794676\C,0,3.541979,1.155446,-1.18892\O,0,4.768716,1.295965,-1.
 359819\C,0,2.923334,-0.141333,-1.105335\C,0,1.577099,-0.298492,-1.2042
 01\C,0,0.640151,0.887199,-1.19164\C,-1,1.304939,2.103014,-0.547954\C,-
 1,2.666259,2.380853,-1.162348\C,0,1.001853,-1.652043,-1.477341\C,0,-0.
 426279,-1.886747,-0.980318\C,0,-1.326134,-0.683701,-1.264423\C,0,-0.71
 4552,0.539065,-0.542505\C,0,-2.770964,-0.904724,-0.834263\C,0,-3.64054
 9,0.358156,-0.968907\C,-1,-3.062706,1.447473,-0.074861\C,0,-1.624643,1
 .775951,-0.480924\C,0,-3.613163,-1.989412,-1.5271\C,0,-5.082699,-1.573
 514,-1.228001\C,0,-4.977663,-0.226435,-0.492389\C,0,-3.757171,0.865143
 ,-2.415201\O,0,-6.13222,0.581292,-0.717996\H,0,3.585574,-1.002946,-1.1
 15071\H,-1,0.430704,1.107418,-2.25144\H,0,1.412365,1.928146,0.53223\H,
 0,0.673907,2.987807,-0.666002\H,0,2.553913,2.705883,-2.207065\H,0,3.19
 9508,3.186435,-0.647772\H,0,1.68045,-2.433414,-1.116564\H,0,0.991727,-
 1.745052,-2.575646\H,0,-0.423866,-2.08317,0.10054\H,0,-0.817346,-2.788
 795,-1.460005\H,0,-1.31189,-0.486921,-2.344025\H,0,-0.517291,0.22707,0
 .497111\H,0,-2.751216,-1.149041,0.241621\H,0,-3.084349,1.112131,0.9737
 85\H,0,-3.668668,2.359713,-0.12995\H,0,-1.617183,2.279383,-1.456021\H,
 0,-1.21407,2.487822,0.245105\H,0,-3.378834,-2.995384,-1.171788\H,-1,-3
 .427167,-1.981568,-2.606716\H,0,-5.614299,-2.316538,-0.625238\H,0,-5.6
 42761,-1.42893,-2.157347\H,0,-4.901927,-0.403806,0.593031\H,0,-2.77984
 9,1.076071,-2.854046\H,0,-4.27628,0.161331,-3.071085\H,0,-4.314602,1.8
 06426,-2.434769\H,0,-5.955292,1.444775,-0.320294\O,0,0.150084,0.041858
 ,-4.424046\H,0,-0.192121,-0.851236,-4.235249\H,0,0.88912,-0.236767,-5.
 017058\O,0,-6.927854,1.67841,-3.227071\H,0,-6.368213,2.476549,-3.22265
 5\H,0,-6.687498,1.224744,-2.397962\O,-1,-1.075615,2.451522,-4.022291\H
 ,0,-0.770134,1.54926,-4.276694\H,0,-0.249886,2.943136,-3.95612\O,0,-6.
 084321,-0.593271,-4.56859\H,0,-6.85031,-1.137135,-4.356429\H,0,-6.3397
 93,0.292864,-4.232843\\Version=ES64L-G16RevC.01\State=1-A\HF=-4706.190
 4699\RMSD=3.786e-09\Dipole=-0.1047543,3.4636737,4.5660713\Quadrupole=-
 21.8297635,31.0864152,-9.2566517,-20.074857,5.0560996,-22.5827502\PG=C
 01 [X(C84H159N2O12S1)]\\@
 The archive entry for this job was punched.


 ... A MOLECULAR SYSTEM ... (PASSES) ... FROM ONE STATE OF EQUILIBRIUM 
 TO ANOTHER ... BY MEANS OF ALL POSSIBLE INTERMEDIATE PATHS, 
 BUT THE PATH MOST ECONOMICAL OF ENERGY WILL BE THE MORE OFTEN TRAVELED.

                      -- HENRY EYRING, 1945
 Job cpu time:       0 days  3 hours 20 minutes 11.6 seconds.
 Elapsed time:       0 days  0 hours  6 minutes 31.3 seconds.
 File lengths (MBytes):  RWF=   1756 Int=      0 D2E=      0 Chk=    189 Scr=      1
 Normal termination of Gaussian 16 at Tue Jul 16 07:24:40 2024.
