 Entering Gaussian System, Link 0=g16
 Initial command:
 /cm/shared/apps/spack/cpu/opt/spack/linux-centos8-zen/gcc-8.3.1/gaussian-16.C.01-po5bqktfeugvmjyga3v7eigbecnokxng/g16/l1.exe "/scratch/hklem/job_32333405/Gau-1641152.inp" -scrdir="/scratch/hklem/job_32333405/"
 Entering Link 1 = /cm/shared/apps/spack/cpu/opt/spack/linux-centos8-zen/gcc-8.3.1/gaussian-16.C.01-po5bqktfeugvmjyga3v7eigbecnokxng/g16/l1.exe PID=   1641181.
  
 Copyright (c) 1988-2019, Gaussian, Inc.  All Rights Reserved.
  
 This is part of the Gaussian(R) 16 program.  It is based on
 the Gaussian(R) 09 system (copyright 2009, Gaussian, Inc.),
 the Gaussian(R) 03 system (copyright 2003, Gaussian, Inc.),
 the Gaussian(R) 98 system (copyright 1998, Gaussian, Inc.),
 the Gaussian(R) 94 system (copyright 1995, Gaussian, Inc.),
 the Gaussian 92(TM) system (copyright 1992, Gaussian, Inc.),
 the Gaussian 90(TM) system (copyright 1990, Gaussian, Inc.),
 the Gaussian 88(TM) system (copyright 1988, Gaussian, Inc.),
 the Gaussian 86(TM) system (copyright 1986, Carnegie Mellon
 University), and the Gaussian 82(TM) system (copyright 1983,
 Carnegie Mellon University). Gaussian is a federally registered
 trademark of Gaussian, Inc.
  
 This software contains proprietary and confidential information,
 including trade secrets, belonging to Gaussian, Inc.
  
 This software is provided under written license and may be
 used, copied, transmitted, or stored only in accord with that
 written license.
  
 The following legend is applicable only to US Government
 contracts under FAR:
  
                    RESTRICTED RIGHTS LEGEND
  
 Use, reproduction and disclosure by the US Government is
 subject to restrictions as set forth in subparagraphs (a)
 and (c) of the Commercial Computer Software - Restricted
 Rights clause in FAR 52.227-19.
  
 Gaussian, Inc.
 340 Quinnipiac St., Bldg. 40, Wallingford CT 06492
  
  
 ---------------------------------------------------------------
 Warning -- This program may not be used in any manner that
 competes with the business of Gaussian, Inc. or will provide
 assistance to any competitor of Gaussian, Inc.  The licensee
 of this program is prohibited from giving any competitor of
 Gaussian, Inc. access to this program.  By using this program,
 the user acknowledges that Gaussian, Inc. is engaged in the
 business of creating and licensing software in the field of
 computational chemistry and represents and warrants to the
 licensee that it is not a competitor of Gaussian, Inc. and that
 it will not use this program in any manner prohibited above.
 ---------------------------------------------------------------
  

 Cite this work as:
 Gaussian 16, Revision C.01,
 M. J. Frisch, G. W. Trucks, H. B. Schlegel, G. E. Scuseria, 
 M. A. Robb, J. R. Cheeseman, G. Scalmani, V. Barone, 
 G. A. Petersson, H. Nakatsuji, X. Li, M. Caricato, A. V. Marenich, 
 J. Bloino, B. G. Janesko, R. Gomperts, B. Mennucci, H. P. Hratchian, 
 J. V. Ortiz, A. F. Izmaylov, J. L. Sonnenberg, D. Williams-Young, 
 F. Ding, F. Lipparini, F. Egidi, J. Goings, B. Peng, A. Petrone, 
 T. Henderson, D. Ranasinghe, V. G. Zakrzewski, J. Gao, N. Rega, 
 G. Zheng, W. Liang, M. Hada, M. Ehara, K. Toyota, R. Fukuda, 
 J. Hasegawa, M. Ishida, T. Nakajima, Y. Honda, O. Kitao, H. Nakai, 
 T. Vreven, K. Throssell, J. A. Montgomery, Jr., J. E. Peralta, 
 F. Ogliaro, M. J. Bearpark, J. J. Heyd, E. N. Brothers, K. N. Kudin, 
 V. N. Staroverov, T. A. Keith, R. Kobayashi, J. Normand, 
 K. Raghavachari, A. P. Rendell, J. C. Burant, S. S. Iyengar, 
 J. Tomasi, M. Cossi, J. M. Millam, M. Klene, C. Adamo, R. Cammi, 
 J. W. Ochterski, R. L. Martin, K. Morokuma, O. Farkas, 
 J. B. Foresman, and D. J. Fox, Gaussian, Inc., Wallingford CT, 2019.
 
 ******************************************
 Gaussian 16:  ES64L-G16RevC.01  3-Jul-2019
                16-Jul-2024 
 ******************************************
 %nprocshared=32
 Will use up to   32 processors via shared memory.
 %mem=64GB
 --------------------------
 # 6-31G(d) wb97xd prop=efg
 --------------------------
 1/38=1,172=1/1;
 2/12=2,17=6,18=5,40=1/2;
 3/5=1,6=6,7=1,11=2,25=1,30=1,74=-58/1,2,3;
 4//1;
 5/5=2,38=5/2;
 6/7=2,8=2,9=2,10=2,14=1,28=1/1,2;
 99/5=1,9=1/99;
 ----------------------------------
 19nt_mm_min_distance_cutoff4_nowat
 ----------------------------------
 Symbolic Z-matrix:
 Charge = -1 Multiplicity = 1
 H                    0     6.95957   4.06674   7.36878 
 C                    -1    6.6162    3.87206   6.34615 
 H                    0     6.48851   4.83451   5.83856 
 C                    0     7.60121   2.98598   5.5807 
 H                    0     8.58553   3.46975   5.5555 
 H                    0     7.73163   2.03685   6.11433 
 C                    0     7.12092   2.72327   4.17582 
 C                    0     7.38422   3.63145   3.14828 
 H                    0     7.98603   4.51384   3.35641 
 C                    0     6.90095   3.43261   1.86321 
 H                    0     7.12201   4.13447   1.06542 
 C                    0     6.13642   2.29921   1.58429 
 O                    0     5.70795   2.12039   0.30393 
 H                    0     5.15707   1.30098   0.22877 
 C                    0     5.84533   1.38624   2.59762 
 H                    0     5.26063   0.49868   2.38304 
 C                    0     6.34038   1.60769   3.87795 
 H                    0     6.11585   0.88575   4.6601 
 H                    0     5.63144   3.39545   6.39953 
 H                    0     1.77393   6.75987   4.59958 
 C                    -1    1.19656   6.14383   3.90089 
 H                    0     1.13611   6.68409   2.9482 
 C                    -1    1.85496   4.77193   3.69954 
 H                    0     1.90517   4.27744   4.67983 
 C                    0     1.02079   3.88255   2.7724 
 H                    0    -0.00661   3.76372   3.13632 
 H                    0     0.96986   4.31414   1.7642 
 H                    0     1.46642   2.88481   2.68399 
 C                    0     3.28512   4.90763   3.1668 
 H                    0     3.77448   3.9309    3.0756 
 H                    0     3.90223   5.52578   3.8288 
 H                    0     3.28801   5.37572   2.17353 
 H                    0     0.17901   6.04195   4.29537 
 H                    0     3.78086  -3.6006   -7.37186 
 C                    -1    3.09373  -3.67501  -6.52063 
 H                    0     3.4457   -4.46416  -5.85035 
 C                    0     3.00048  -2.3486   -5.7558 
 H                    0     2.63313  -1.54759  -6.40494 
 H                    0     4.00371  -2.0647   -5.40938 
 C                    -1    2.08282  -2.44688  -4.51973 
 O                    0     2.36924  -3.36941  -3.69744 
 O                    0     1.13479  -1.63642  -4.42356 
 H                    0     2.11051  -3.97342  -6.90232 
 H                    0     3.06261   6.86671  -5.43127 
 C                    -1    2.17109   6.76307  -4.80404 
 H                    0     1.88882   5.70502  -4.80412 
 C                    0     2.4517    7.24377  -3.37614 
 H                    0     2.70423   8.31191  -3.39281 
 H                    0     1.5401    7.14508  -2.77427 
 C                    0     3.57233   6.4531   -2.74716 
 C                    0     4.90373   6.72575  -3.07469 
 H                    -1    5.12984   7.5719   -3.72123 
 C                    0     5.94335   5.93146  -2.61366 
 H                    -1    6.97401   6.13734  -2.88461 
 C                    0     5.66916   4.82986  -1.79933 
 O                    0     6.70809   4.05943  -1.40572 
 H                    0     6.37044   3.28746  -0.90859 
 C                    0     4.34828   4.56719  -1.42742 
 H                    0     4.1401    3.73292  -0.76742 
 C                    0     3.31855   5.36744  -1.91028 
 H                    0     2.29184   5.13101  -1.63588 
 H                    0     1.35976   7.33668  -5.26969 
 H                    0    -1.67264   5.93417  -5.61922 
 C                    -1   -2.47303   5.32819  -5.18468 
 H                    0    -2.16242   4.28199  -5.15614 
 H                    0    -3.35917   5.39778  -5.82254 
 C                    0    -2.86033   5.7533   -3.76638 
 O                    0    -3.53068   5.02649  -3.04391 
 N                    -1   -2.44861   6.99676  -3.38202 
 H                    0    -1.86418   7.51971  -4.01641 
 C                    -1   -2.75848   7.61047  -2.09303 
 H                    0    -3.46147   6.94014  -1.59414 
 C                    0    -1.51776   7.85633  -1.23328 
 H                    -1   -0.8507    8.55589  -1.75848 
 H                    0    -1.84381   8.37385  -0.31945 
 C                    0    -0.71887   6.60651  -0.83802 
 H                    0    -0.35808   6.12795  -1.76016 
 C                    -1    0.49582   7.01814  -0.00192 
 H                    0     1.11506   6.15263   0.2565 
 H                    0     1.13464   7.73296  -0.53308 
 H                    0     0.17262   7.48751   0.93592 
 C                    0    -1.57759   5.5884   -0.08426 
 H                    -1   -2.05637   6.05345   0.78793 
 H                    0    -2.35743   5.16063  -0.72301 
 H                    0    -0.9601    4.76203   0.28427 
 H                    0    -3.27809   8.55989  -2.2709 
 H                    0    -7.11093   6.67032   1.6893 
 C                    -1   -6.45687   5.92801   2.16116 
 H                    0    -7.0682    5.0638    2.43608 
 C                    0    -5.31234   5.51287   1.22607 
 H                    0    -4.66991   6.39238   1.0705 
 C                    0    -4.46317   4.41264   1.86714 
 H                    0    -4.05849   4.72959   2.83546 
 H                    0    -5.07073   3.51365   2.0366 
 H                    0    -3.62365   4.12506   1.22614 
 C                    0    -5.82484   5.06822  -0.14782 
 H                    -1   -6.35113   4.10723  -0.06768 
 H                    0    -6.52734   5.79731  -0.56845 
 H                    0    -5.00522   4.94657  -0.86551 
 H                    0    -6.06416   6.36216   3.08802 
 H                    -1    0.32409  -4.52532   7.77086 
 C                    -1   -0.69943  -4.42765   7.39334 
 H                    0    -1.38124  -4.70597   8.20313 
 C                    0    -0.99228  -3.00242   6.92124 
 H                    0    -2.05193  -2.93319   6.64235 
 H                    0    -0.86371  -2.31256   7.76669 
 C                    0    -0.16481  -2.50108   5.75076 
 C                    0    -0.50356  -1.28417   5.14698 
 H                    0    -1.34823  -0.71724   5.53564 
 C                    0     0.20201  -0.80114   4.04992 
 H                    0    -0.09729   0.13673   3.58833 
 C                    0     1.27013  -1.53132   3.53022 
 H                    0     1.81294  -1.18889   2.6544 
 C                    -1    1.62685  -2.73442   4.12872 
 H                    -1    2.44085  -3.31307   3.70474 
 C                    0     0.91744  -3.20981   5.23053 
 H                    0     1.20412  -4.16249   5.66622 
 H                    0    -0.82901  -5.148     6.57817 
 H                    0    -4.5654   -0.57861   4.88293 
 C                    -1   -5.10406  -0.31929   3.96207 
 H                    -1   -5.72663   0.55951   4.16436 
 C                    0    -4.11361  -0.06245   2.82361 
 H                    0    -4.68369   0.23648   1.93015 
 C                    0    -3.15613   1.08161   3.16445 
 H                    0    -2.54369   0.82216   4.03748 
 H                    0    -3.69858   2.00501   3.39658 
 H                    0    -2.47545   1.2905    2.32991 
 C                    0    -3.34438  -1.34002   2.50043 
 H                    0    -2.79775  -1.69168   3.38255 
 H                    -1   -2.60814  -1.18525   1.70498 
 H                    0    -4.01885  -2.14391   2.18161 
 H                    0    -5.77398  -1.15286   3.72231 
 H                    0    -10.84251   2.46967   1.81427 
 C                    -1   -10.31665   3.22465   1.22177 
 H                    0    -10.74734   4.20355   1.45731 
 C                    0    -8.81639   3.21848   1.50358 
 H                    0    -8.64      3.44246   2.56358 
 H                    -1   -8.3495    4.02873   0.93328 
 C                    0    -8.08687   1.92511   1.1379 
 H                    0    -8.23087   1.67918   0.07942 
 H                    0    -7.00894   2.05419   1.29858 
 S                    0    -8.65694   0.53322   2.17165 
 C                    0    -7.73491  -0.81692   1.39285 
 H                    0    -8.02922  -0.94161   0.3472 
 H                    0    -6.65576  -0.64817   1.44769 
 H                    0    -7.97033  -1.73224   1.94059 
 H                    -1   -10.51367   3.01279   0.16463 
 H                    0    -8.16727  -4.0359    1.68918 
 C                    -1   -7.27345  -4.65673   1.81592 
 H                    0    -7.5833   -5.69935   1.69055 
 C                    0    -6.18454  -4.26431   0.81597 
 H                    -1   -5.96758  -3.19161   0.92245 
 H                    0    -6.56213  -4.39538  -0.20849 
 C                    0    -4.86547  -5.04176   0.95471 
 H                    0    -4.48462  -4.88269   1.97565 
 C                    0    -5.05513  -6.54702   0.75035 
 H                    0    -5.74249  -6.98396   1.48271 
 H                    0    -5.45207  -6.75122  -0.25298 
 H                    0    -4.09864  -7.07272   0.84175 
 C                    -1   -3.83388  -4.49777  -0.03276 
 H                    -1   -3.63242  -3.43651   0.14935 
 H                    0    -4.18636  -4.59887  -1.06559 
 H                    0    -2.87901  -5.03063   0.02795 
 H                    0    -6.9211   -4.53418   2.84741 
 H                    0    -1.76512  -6.73612   3.29061 
 C                    -1   -1.21516  -6.49863   2.37134 
 H                    0    -1.93909  -6.47026   1.54744 
 C                    0    -0.4831   -5.1629    2.48625 
 H                    0     0.24321  -5.2393    3.30734 
 C                    0     0.28443  -4.84641   1.20379 
 H                    0     0.87788  -3.93125   1.3094 
 H                    -1    0.97279  -5.65769   0.9445 
 H                    0    -0.4027   -4.71963   0.35681 
 C                    0    -1.45654  -4.0381    2.82417 
 H                    -1   -0.93374  -3.0817    2.90547 
 H                    0    -1.97516  -4.22125   3.77391 
 H                    0    -2.21464  -3.94066   2.03904 
 H                    0    -0.51875  -7.32146   2.16931 
 H                    0     4.24331  -5.59618   2.49473 
 C                    -1    5.26176  -5.51485   2.1054 
 H                    0     5.2339   -5.74424   1.03634 
 C                    0     5.81223  -4.10972   2.32986 
 H                    0     5.92574  -3.90737   3.40367 
 H                    0     6.79889  -3.98879   1.87556 
 C                    0     4.89375  -3.04217   1.77962 
 O                    0     3.68117  -3.12253   1.77135 
 O                    0     5.55118  -1.97743   1.33061 
 H                    0     4.89956  -1.3521    0.92104 
 H                    0     5.89139  -6.25847   2.60402 
 H                    0     10.68875  -2.95224  -2.88745 
 C                    -1    9.91822  -3.33223  -2.20789 
 H                    0     10.42308  -3.81177  -1.36018 
 C                    -1    8.99993  -2.21078  -1.72727 
 H                    0     9.59135  -1.45173  -1.19732 
 H                    0     8.5456   -1.70362  -2.58722 
 C                    0     7.90093  -2.70129  -0.78375 
 H                    0     8.34476  -3.31281   0.01156 
 H                    0     7.39291  -1.86896  -0.28892 
 S                    0     6.6255   -3.75143  -1.55517 
 C                    0     5.55406  -2.47869  -2.28582 
 H                    0     6.08317  -1.91084  -3.05657 
 H                    0     5.19538  -1.79585  -1.50951 
 H                    0     4.68768  -2.96961  -2.74263 
 H                    0     9.34456  -4.10017  -2.73686 
 H                    0     3.68208  -5.15564  -2.9874 
 C                    -1    3.69967  -5.72543  -2.05429 
 H                    -1    4.72487  -6.05784  -1.85385 
 C                    0     3.16448  -4.86952  -0.91358 
 H                    0     3.06177  -5.43426   0.01842 
 H                    0     2.19037  -4.44139  -1.16484 
 H                    0     3.83606  -4.03273  -0.70825 
 H                    0     3.08731  -6.62332  -2.20706 
 H                    0    -0.69403  -9.11164  -2.59259 
 C                    -1   -1.72302  -8.89017  -2.29034 
 H                    0    -2.10965  -9.74518  -1.72241 
 C                    0    -1.77096  -7.59776  -1.46155 
 H                    0    -2.80292  -7.42245  -1.12856 
 H                    0    -1.1762   -7.73264  -0.54886 
 C                    0    -1.27587  -6.3942   -2.20723 
 C                    0     0.0119   -5.91919  -2.23837 
 H                    0     0.88069  -6.28937  -1.71165 
 N                    -1    0.11648  -4.82757  -3.05521 
 H                    0     0.97822  -4.27419  -3.24249 
 C                    0    -1.12112  -4.56153  -3.57781 
 C                    0    -1.52698  -3.52607  -4.4298 
 H                    0    -0.8086   -2.78056  -4.76407 
 C                    0    -2.86485  -3.48523  -4.78301 
 H                    0    -3.21736  -2.69349  -5.4395 
 C                    0    -3.78332  -4.44526  -4.30729 
 H                    0    -4.82603  -4.37831  -4.60759 
 C                    0    -3.37572  -5.46431  -3.46394 
 H                    0    -4.09007  -6.19964  -3.0983 
 C                    0    -2.02697  -5.53163  -3.07589 
 H                    0    -2.31982  -8.78388  -3.20286 
 C                    0     2.92001   0.11763  -0.12486 
 O                    0     4.11705  -0.03365   0.20607 
 C                    0     2.04587  -0.9908   -0.364 
 C                    0     0.79791  -0.82009  -0.8788 
 C                    -1    0.17473   0.54998  -1.04614 
 C                    0     0.89992   1.60632  -0.20945 
 C                    0     2.41012   1.51525  -0.35456 
 C                    0     0.04289  -1.98185  -1.42407 
 C                    0    -1.46815  -1.93111  -1.19226 
 C                    0    -2.04514  -0.56904  -1.58009 
 C                    0    -1.34142   0.5236   -0.74444 
 C                    0    -3.55332  -0.47558  -1.37254 
 C                    0    -4.13473   0.91894  -1.6853 
 C                    0    -3.48685   1.93861  -0.75208 
 C                    0    -1.9613    1.92475  -0.89095 
 C                    0    -4.48219  -1.42693  -2.13766 
 C                    0    -5.87524  -0.75425  -2.01674 
 C                    0    -5.62377   0.64064  -1.40543 
 C                    -1   -3.95092   1.34448  -3.15272 
 O                    0    -6.54287   1.58243  -1.93272 
 H                    0     2.46117  -1.98649  -0.23777 
 H                    0     0.29184   0.79337  -2.11656 
 H                    0     0.62564   1.46778   0.84586 
 H                    0     0.57396   2.6116   -0.49195 
 H                    0     2.71536   1.80551  -1.37066 
 H                    0     2.92248   2.19029   0.33899 
 H                    0     0.46886  -2.91757  -1.0548 
 H                    0     0.26282  -1.95586  -2.512 
 H                    0    -1.68836  -2.13326  -0.13373 
 H                    -1   -1.93919  -2.72949  -1.77374 
 H                    0    -1.81729  -0.40747  -2.6442 
 H                    0    -1.45685   0.22995   0.31354 
 H                    0    -3.7336   -0.64543  -0.29601 
 H                    0    -3.75829   1.69769   0.28641 
 H                    0    -3.85348   2.95328  -0.95476 
 H                    0    -1.67719   2.35747  -1.86006 
 H                    0    -1.54432   2.58867  -0.12635 
 H                    0    -4.47023  -2.44094  -1.73593 
 H                    0    -4.16496  -1.50852  -3.18219 
 H                    0    -6.55691  -1.34196  -1.39391 
 H                    0    -6.35812  -0.62871  -2.99075 
 H                    0    -5.75109   0.58925  -0.30994 
 H                    0    -4.5311    0.71863  -3.83642 
 H                    0    -4.27319   2.38161  -3.29163 
 H                    -1   -2.90411   1.28745  -3.46347 
 H                    0    -6.22571   2.46157  -1.68777 
 
 Stoichiometry    C96H171N2O9S2(1-)
 Framework group  C1[X(C96H171N2O9S2)]
 Deg. of freedom   834
 Full point group                 C1      NOp   1
 Largest Abelian subgroup         C1      NOp   1
 Largest concise Abelian subgroup C1      NOp   1
                         Standard orientation:                         
 ---------------------------------------------------------------------
 Center     Atomic      Atomic             Coordinates (Angstroms)
 Number     Number       Type             X           Y           Z
 ---------------------------------------------------------------------
      1          1           0        6.959571    4.066742    7.368779
      2          6           0        6.616195    3.872061    6.346151
      3          1           0        6.488514    4.834505    5.838558
      4          6           0        7.601209    2.985976    5.580699
      5          1           0        8.585531    3.469750    5.555499
      6          1           0        7.731632    2.036846    6.114334
      7          6           0        7.120918    2.723268    4.175823
      8          6           0        7.384217    3.631452    3.148283
      9          1           0        7.986025    4.513844    3.356414
     10          6           0        6.900947    3.432614    1.863206
     11          1           0        7.122014    4.134468    1.065423
     12          6           0        6.136424    2.299212    1.584290
     13          8           0        5.707950    2.120386    0.303930
     14          1           0        5.157071    1.300977    0.228771
     15          6           0        5.845333    1.386235    2.597615
     16          1           0        5.260627    0.498680    2.383042
     17          6           0        6.340379    1.607694    3.877952
     18          1           0        6.115847    0.885746    4.660099
     19          1           0        5.631444    3.395446    6.399525
     20          1           0        1.773925    6.759865    4.599575
     21          6           0        1.196557    6.143826    3.900893
     22          1           0        1.136112    6.684087    2.948199
     23          6           0        1.854957    4.771927    3.699537
     24          1           0        1.905167    4.277441    4.679830
     25          6           0        1.020789    3.882549    2.772395
     26          1           0       -0.006607    3.763722    3.136315
     27          1           0        0.969864    4.314142    1.764199
     28          1           0        1.466422    2.884811    2.683992
     29          6           0        3.285122    4.907634    3.166801
     30          1           0        3.774482    3.930895    3.075605
     31          1           0        3.902225    5.525775    3.828795
     32          1           0        3.288007    5.375720    2.173534
     33          1           0        0.179011    6.041955    4.295366
     34          1           0        3.780860   -3.600600   -7.371864
     35          6           0        3.093726   -3.675012   -6.520634
     36          1           0        3.445700   -4.464157   -5.850352
     37          6           0        3.000478   -2.348600   -5.755804
     38          1           0        2.633132   -1.547591   -6.404940
     39          1           0        4.003713   -2.064697   -5.409376
     40          6           0        2.082815   -2.446882   -4.519730
     41          8           0        2.369244   -3.369411   -3.697444
     42          8           0        1.134792   -1.636416   -4.423560
     43          1           0        2.110510   -3.973417   -6.902321
     44          1           0        3.062613    6.866705   -5.431267
     45          6           0        2.171091    6.763073   -4.804037
     46          1           0        1.888816    5.705016   -4.804121
     47          6           0        2.451704    7.243768   -3.376143
     48          1           0        2.704233    8.311913   -3.392808
     49          1           0        1.540099    7.145081   -2.774269
     50          6           0        3.572329    6.453101   -2.747157
     51          6           0        4.903731    6.725748   -3.074689
     52          1           0        5.129839    7.571895   -3.721225
     53          6           0        5.943352    5.931461   -2.613655
     54          1           0        6.974007    6.137345   -2.884614
     55          6           0        5.669162    4.829856   -1.799325
     56          8           0        6.708087    4.059433   -1.405721
     57          1           0        6.370441    3.287459   -0.908586
     58          6           0        4.348279    4.567185   -1.427415
     59          1           0        4.140100    3.732923   -0.767421
     60          6           0        3.318548    5.367437   -1.910276
     61          1           0        2.291840    5.131014   -1.635884
     62          1           0        1.359764    7.336678   -5.269694
     63          1           0       -1.672639    5.934170   -5.619222
     64          6           0       -2.473030    5.328186   -5.184675
     65          1           0       -2.162416    4.281988   -5.156137
     66          1           0       -3.359170    5.397780   -5.822536
     67          6           0       -2.860327    5.753301   -3.766380
     68          8           0       -3.530681    5.026492   -3.043909
     69          7           0       -2.448609    6.996756   -3.382022
     70          1           0       -1.864179    7.519713   -4.016411
     71          6           0       -2.758483    7.610468   -2.093035
     72          1           0       -3.461472    6.940135   -1.594136
     73          6           0       -1.517759    7.856328   -1.233280
     74          1           0       -0.850695    8.555892   -1.758476
     75          1           0       -1.843807    8.373854   -0.319454
     76          6           0       -0.718874    6.606512   -0.838017
     77          1           0       -0.358078    6.127950   -1.760156
     78          6           0        0.495823    7.018144   -0.001919
     79          1           0        1.115058    6.152629    0.256497
     80          1           0        1.134642    7.732955   -0.533082
     81          1           0        0.172620    7.487507    0.935919
     82          6           0       -1.577592    5.588405   -0.084256
     83          1           0       -2.056371    6.053450    0.787932
     84          1           0       -2.357427    5.160625   -0.723007
     85          1           0       -0.960104    4.762030    0.284273
     86          1           0       -3.278094    8.559889   -2.270903
     87          1           0       -7.110927    6.670318    1.689304
     88          6           0       -6.456870    5.928008    2.161160
     89          1           0       -7.068201    5.063797    2.436078
     90          6           0       -5.312336    5.512866    1.226068
     91          1           0       -4.669913    6.392378    1.070496
     92          6           0       -4.463167    4.412641    1.867136
     93          1           0       -4.058487    4.729593    2.835464
     94          1           0       -5.070728    3.513645    2.036599
     95          1           0       -3.623650    4.125059    1.226142
     96          6           0       -5.824841    5.068221   -0.147821
     97          1           0       -6.351129    4.107226   -0.067678
     98          1           0       -6.527339    5.797313   -0.568452
     99          1           0       -5.005219    4.946569   -0.865507
    100          1           0       -6.064160    6.362164    3.088017
    101          1           0        0.324085   -4.525323    7.770864
    102          6           0       -0.699427   -4.427649    7.393338
    103          1           0       -1.381242   -4.705966    8.203134
    104          6           0       -0.992283   -3.002420    6.921243
    105          1           0       -2.051933   -2.933189    6.642348
    106          1           0       -0.863711   -2.312563    7.766689
    107          6           0       -0.164807   -2.501080    5.750760
    108          6           0       -0.503561   -1.284173    5.146982
    109          1           0       -1.348226   -0.717236    5.535643
    110          6           0        0.202008   -0.801143    4.049921
    111          1           0       -0.097288    0.136725    3.588332
    112          6           0        1.270129   -1.531319    3.530220
    113          1           0        1.812937   -1.188885    2.654401
    114          6           0        1.626846   -2.734424    4.128721
    115          1           0        2.440845   -3.313071    3.704743
    116          6           0        0.917442   -3.209813    5.230532
    117          1           0        1.204122   -4.162491    5.666219
    118          1           0       -0.829005   -5.147999    6.578166
    119          1           0       -4.565397   -0.578608    4.882933
    120          6           0       -5.104064   -0.319285    3.962070
    121          1           0       -5.726629    0.559508    4.164360
    122          6           0       -4.113606   -0.062453    2.823607
    123          1           0       -4.683694    0.236477    1.930146
    124          6           0       -3.156133    1.081607    3.164454
    125          1           0       -2.543693    0.822162    4.037481
    126          1           0       -3.698582    2.005013    3.396578
    127          1           0       -2.475447    1.290499    2.329910
    128          6           0       -3.344379   -1.340015    2.500429
    129          1           0       -2.797746   -1.691684    3.382550
    130          1           0       -2.608143   -1.185249    1.704976
    131          1           0       -4.018851   -2.143905    2.181607
    132          1           0       -5.773978   -1.152857    3.722311
    133          1           0      -10.842506    2.469673    1.814265
    134          6           0      -10.316654    3.224646    1.221766
    135          1           0      -10.747336    4.203552    1.457308
    136          6           0       -8.816390    3.218484    1.503581
    137          1           0       -8.639997    3.442459    2.563584
    138          1           0       -8.349501    4.028728    0.933280
    139          6           0       -8.086868    1.925111    1.137897
    140          1           0       -8.230873    1.679184    0.079418
    141          1           0       -7.008938    2.054193    1.298580
    142         16           0       -8.656935    0.533222    2.171655
    143          6           0       -7.734909   -0.816916    1.392853
    144          1           0       -8.029217   -0.941610    0.347203
    145          1           0       -6.655764   -0.648165    1.447686
    146          1           0       -7.970332   -1.732236    1.940590
    147          1           0      -10.513669    3.012792    0.164627
    148          1           0       -8.167271   -4.035902    1.689175
    149          6           0       -7.273453   -4.656725    1.815918
    150          1           0       -7.583299   -5.699347    1.690545
    151          6           0       -6.184539   -4.264307    0.815970
    152          1           0       -5.967576   -3.191612    0.922454
    153          1           0       -6.562131   -4.395381   -0.208485
    154          6           0       -4.865467   -5.041760    0.954714
    155          1           0       -4.484621   -4.882686    1.975649
    156          6           0       -5.055134   -6.547023    0.750353
    157          1           0       -5.742485   -6.983960    1.482708
    158          1           0       -5.452068   -6.751215   -0.252982
    159          1           0       -4.098638   -7.072719    0.841745
    160          6           0       -3.833879   -4.497769   -0.032755
    161          1           0       -3.632415   -3.436512    0.149348
    162          1           0       -4.186358   -4.598871   -1.065587
    163          1           0       -2.879005   -5.030632    0.027945
    164          1           0       -6.921104   -4.534175    2.847410
    165          1           0       -1.765115   -6.736118    3.290609
    166          6           0       -1.215159   -6.498631    2.371335
    167          1           0       -1.939093   -6.470264    1.547438
    168          6           0       -0.483101   -5.162900    2.486254
    169          1           0        0.243205   -5.239301    3.307336
    170          6           0        0.284427   -4.846408    1.203792
    171          1           0        0.877881   -3.931245    1.309401
    172          1           0        0.972792   -5.657690    0.944495
    173          1           0       -0.402702   -4.719628    0.356805
    174          6           0       -1.456537   -4.038100    2.824169
    175          1           0       -0.933742   -3.081702    2.905473
    176          1           0       -1.975156   -4.221254    3.773905
    177          1           0       -2.214644   -3.940656    2.039044
    178          1           0       -0.518751   -7.321456    2.169311
    179          1           0        4.243305   -5.596175    2.494732
    180          6           0        5.261757   -5.514850    2.105404
    181          1           0        5.233895   -5.744236    1.036343
    182          6           0        5.812228   -4.109724    2.329855
    183          1           0        5.925741   -3.907374    3.403666
    184          1           0        6.798891   -3.988791    1.875564
    185          6           0        4.893754   -3.042175    1.779618
    186          8           0        3.681170   -3.122531    1.771351
    187          8           0        5.551178   -1.977432    1.330613
    188          1           0        4.899560   -1.352104    0.921038
    189          1           0        5.891385   -6.258473    2.604022
    190          1           0       10.688754   -2.952239   -2.887446
    191          6           0        9.918224   -3.332228   -2.207885
    192          1           0       10.423082   -3.811773   -1.360175
    193          6           0        8.999925   -2.210780   -1.727272
    194          1           0        9.591351   -1.451728   -1.197322
    195          1           0        8.545596   -1.703624   -2.587222
    196          6           0        7.900934   -2.701291   -0.783754
    197          1           0        8.344758   -3.312811    0.011557
    198          1           0        7.392908   -1.868956   -0.288921
    199         16           0        6.625497   -3.751426   -1.555174
    200          6           0        5.554058   -2.478690   -2.285818
    201          1           0        6.083170   -1.910838   -3.056569
    202          1           0        5.195376   -1.795847   -1.509506
    203          1           0        4.687679   -2.969607   -2.742632
    204          1           0        9.344559   -4.100172   -2.736857
    205          1           0        3.682080   -5.155638   -2.987404
    206          6           0        3.699667   -5.725428   -2.054290
    207          1           0        4.724867   -6.057837   -1.853849
    208          6           0        3.164476   -4.869521   -0.913578
    209          1           0        3.061774   -5.434265    0.018423
    210          1           0        2.190372   -4.441391   -1.164837
    211          1           0        3.836064   -4.032730   -0.708246
    212          1           0        3.087307   -6.623316   -2.207060
    213          1           0       -0.694034   -9.111645   -2.592590
    214          6           0       -1.723018   -8.890170   -2.290336
    215          1           0       -2.109654   -9.745179   -1.722413
    216          6           0       -1.770961   -7.597761   -1.461550
    217          1           0       -2.802921   -7.422447   -1.128556
    218          1           0       -1.176197   -7.732637   -0.548857
    219          6           0       -1.275873   -6.394199   -2.207233
    220          6           0        0.011896   -5.919189   -2.238370
    221          1           0        0.880687   -6.289365   -1.711653
    222          7           0        0.116480   -4.827574   -3.055214
    223          1           0        0.978221   -4.274194   -3.242495
    224          6           0       -1.121122   -4.561529   -3.577806
    225          6           0       -1.526975   -3.526068   -4.429798
    226          1           0       -0.808595   -2.780560   -4.764067
    227          6           0       -2.864854   -3.485232   -4.783008
    228          1           0       -3.217364   -2.693489   -5.439500
    229          6           0       -3.783320   -4.445263   -4.307285
    230          1           0       -4.826034   -4.378313   -4.607593
    231          6           0       -3.375721   -5.464314   -3.463939
    232          1           0       -4.090071   -6.199643   -3.098295
    233          6           0       -2.026968   -5.531628   -3.075888
    234          1           0       -2.319819   -8.783883   -3.202864
    235          6           0        2.920009    0.117625   -0.124859
    236          8           0        4.117054   -0.033650    0.206074
    237          6           0        2.045871   -0.990801   -0.364004
    238          6           0        0.797908   -0.820089   -0.878802
    239          6           0        0.174730    0.549981   -1.046143
    240          6           0        0.899919    1.606318   -0.209447
    241          6           0        2.410119    1.515251   -0.354563
    242          6           0        0.042885   -1.981849   -1.424072
    243          6           0       -1.468147   -1.931111   -1.192255
    244          6           0       -2.045142   -0.569037   -1.580092
    245          6           0       -1.341424    0.523600   -0.744444
    246          6           0       -3.553324   -0.475579   -1.372544
    247          6           0       -4.134727    0.918936   -1.685301
    248          6           0       -3.486846    1.938610   -0.752076
    249          6           0       -1.961300    1.924752   -0.890948
    250          6           0       -4.482195   -1.426934   -2.137662
    251          6           0       -5.875237   -0.754249   -2.016743
    252          6           0       -5.623766    0.640639   -1.405427
    253          6           0       -3.950917    1.344478   -3.152721
    254          8           0       -6.542868    1.582432   -1.932722
    255          1           0        2.461167   -1.986488   -0.237768
    256          1           0        0.291844    0.793370   -2.116560
    257          1           0        0.625641    1.467778    0.845858
    258          1           0        0.573961    2.611601   -0.491951
    259          1           0        2.715360    1.805513   -1.370664
    260          1           0        2.922484    2.190291    0.338986
    261          1           0        0.468859   -2.917568   -1.054799
    262          1           0        0.262819   -1.955860   -2.512002
    263          1           0       -1.688359   -2.133257   -0.133732
    264          1           0       -1.939190   -2.729493   -1.773742
    265          1           0       -1.817293   -0.407465   -2.644197
    266          1           0       -1.456847    0.229947    0.313536
    267          1           0       -3.733599   -0.645430   -0.296007
    268          1           0       -3.758286    1.697687    0.286410
    269          1           0       -3.853477    2.953284   -0.954757
    270          1           0       -1.677187    2.357465   -1.860058
    271          1           0       -1.544323    2.588668   -0.126349
    272          1           0       -4.470229   -2.440942   -1.735927
    273          1           0       -4.164963   -1.508517   -3.182194
    274          1           0       -6.556909   -1.341962   -1.393910
    275          1           0       -6.358118   -0.628713   -2.990747
    276          1           0       -5.751088    0.589250   -0.309938
    277          1           0       -4.531098    0.718630   -3.836423
    278          1           0       -4.273191    2.381612   -3.291629
    279          1           0       -2.904108    1.287450   -3.463469
    280          1           0       -6.225707    2.461570   -1.687774
 ---------------------------------------------------------------------
 Rotational constants (GHZ):           0.0123918           0.0107878           0.0083938
 Standard basis: 6-31G(d) (6D, 7F)
 There are  1985 symmetry adapted cartesian basis functions of A   symmetry.
 There are  1985 symmetry adapted basis functions of A   symmetry.
  1985 basis functions,  3784 primitive gaussians,  1985 cartesian basis functions
   433 alpha electrons      433 beta electrons
       nuclear repulsion energy     27171.1725039873 Hartrees.
 NAtoms=  280 NActive=  280 NUniq=  280 SFac= 1.00D+00 NAtFMM=   60 NAOKFM=T Big=T
 Integral buffers will be    131072 words long.
 Raffenetti 2 integral format.
 Two-electron integral symmetry is turned on.
 Nuclear repulsion after empirical dispersion term =    27170.8313059700 Hartrees.
 One-electron integrals computed using PRISM.
 NBasis=  1985 RedAO= T EigKep=  3.46D-04  NBF=  1985
 NBsUse=  1985 1.00D-06 EigRej= -1.00D+00 NBFU=  1985
 ExpMin= 1.17D-01 ExpMax= 2.19D+04 ExpMxC= 3.30D+03 IAcc=3 IRadAn=         5 AccDes= 0.00D+00
 Harris functional with IExCor= 4639 and IRadAn=       5 diagonalized for initial guess.
 HarFok:  IExCor= 4639 AccDes= 0.00D+00 IRadAn=         5 IDoV= 1 UseB2=F ITyADJ=14
 ICtDFT=  3500011 ScaDFX=  1.000000  1.000000  1.000000  1.000000
 FoFCou: FMM=F IPFlag=           0 FMFlag=      100000 FMFlg1=        2001
         NFxFlg=           0 DoJE=T BraDBF=F KetDBF=T FulRan=T
         wScrn=  0.000000 ICntrl=       500 IOpCl=  0 I1Cent=   200000004 NGrid=           0
         NMat0=    1 NMatS0=      1 NMatT0=    0 NMatD0=    1 NMtDS0=    0 NMtDT0=    0
 Petite list used in FoFCou.
 Requested convergence on RMS density matrix=1.00D-08 within 128 cycles.
 Requested convergence on MAX density matrix=1.00D-06.
 Requested convergence on             energy=1.00D-06.
 No special actions if energy rises.
 Integral accuracy reduced to 1.0D-05 until final iterations.
 Initial convergence to 1.0D-05 achieved.  Increase integral accuracy.
 SCF Done:  E(RwB97XD) =  -5343.11721632     A.U. after   15 cycles
            NFock= 15  Conv=0.42D-08     -V/T= 2.0086
 Hyperfine terms turned off by default for NAtoms > 100.

 **********************************************************************

            Population analysis using the SCF Density.

 **********************************************************************

 Orbital symmetries:
       Occupied  (A) (A) (A) (A) (A) (A) (A) (A) (A) (A) (A) (A)
                 (A) (A) (A) (A) (A) (A) (A) (A) (A) (A) (A) (A)
                 (A) (A) (A) (A) (A) (A) (A) (A) (A) (A) (A) (A)
                 (A) (A) (A) (A) (A) (A) (A) (A) (A) (A) (A) (A)
                 (A) (A) (A) (A) (A) (A) (A) (A) (A) (A) (A) (A)
                 (A) (A) (A) (A) (A) (A) (A) (A) (A) (A) (A) (A)
                 (A) (A) (A) (A) (A) (A) (A) (A) (A) (A) (A) (A)
                 (A) (A) (A) (A) (A) (A) (A) (A) (A) (A) (A) (A)
                 (A) (A) (A) (A) (A) (A) (A) (A) (A) (A) (A) (A)
                 (A) (A) (A) (A) (A) (A) (A) (A) (A) (A) (A) (A)
                 (A) (A) (A) (A) (A) (A) (A) (A) (A) (A) (A) (A)
                 (A) (A) (A) (A) (A) (A) (A) (A) (A) (A) (A) (A)
                 (A) (A) (A) (A) (A) (A) (A) (A) (A) (A) (A) (A)
                 (A) (A) (A) (A) (A) (A) (A) (A) (A) (A) (A) (A)
                 (A) (A) (A) (A) (A) (A) (A) (A) (A) (A) (A) (A)
                 (A) (A) (A) (A) (A) (A) (A) (A) (A) (A) (A) (A)
                 (A) (A) (A) (A) (A) (A) (A) (A) (A) (A) (A) (A)
                 (A) (A) (A) (A) (A) (A) (A) (A) (A) (A) (A) (A)
                 (A) (A) (A) (A) (A) (A) (A) (A) (A) (A) (A) (A)
                 (A) (A) (A) (A) (A) (A) (A) (A) (A) (A) (A) (A)
                 (A) (A) (A) (A) (A) (A) (A) (A) (A) (A) (A) (A)
                 (A) (A) (A) (A) (A) (A) (A) (A) (A) (A) (A) (A)
                 (A) (A) (A) (A) (A) (A) (A) (A) (A) (A) (A) (A)
                 (A) (A) (A) (A) (A) (A) (A) (A) (A) (A) (A) (A)
                 (A) (A) (A) (A) (A) (A) (A) (A) (A) (A) (A) (A)
                 (A) (A) (A) (A) (A) (A) (A) (A) (A) (A) (A) (A)
                 (A) (A) (A) (A) (A) (A) (A) (A) (A) (A) (A) (A)
                 (A) (A) (A) (A) (A) (A) (A) (A) (A) (A) (A) (A)
                 (A) (A) (A) (A) (A) (A) (A) (A) (A) (A) (A) (A)
                 (A) (A) (A) (A) (A) (A) (A) (A) (A) (A) (A) (A)
                 (A) (A) (A) (A) (A) (A) (A) (A) (A) (A) (A) (A)
                 (A) (A) (A) (A) (A) (A) (A) (A) (A) (A) (A) (A)
                 (A) (A) (A) (A) (A) (A) (A) (A) (A) (A) (A) (A)
                 (A) (A) (A) (A) (A) (A) (A) (A) (A) (A) (A) (A)
                 (A) (A) (A) (A) (A) (A) (A) (A) (A) (A) (A) (A)
                 (A) (A) (A) (A) (A) (A) (A) (A) (A) (A) (A) (A)
                 (A)
       Virtual   (A) (A) (A) (A) (A) (A) (A) (A) (A) (A) (A) (A)
                 (A) (A) (A) (A) (A) (A) (A) (A) (A) (A) (A) (A)
                 (A) (A) (A) (A) (A) (A) (A) (A) (A) (A) (A) (A)
                 (A) (A) (A) (A) (A) (A) (A) (A) (A) (A) (A) (A)
                 (A) (A) (A) (A) (A) (A) (A) (A) (A) (A) (A) (A)
                 (A) (A) (A) (A) (A) (A) (A) (A) (A) (A) (A) (A)
                 (A) (A) (A) (A) (A) (A) (A) (A) (A) (A) (A) (A)
                 (A) (A) (A) (A) (A) (A) (A) (A) (A) (A) (A) (A)
                 (A) (A) (A) (A) (A) (A) (A) (A) (A) (A) (A) (A)
                 (A) (A) (A) (A) (A) (A) (A) (A) (A) (A) (A) (A)
                 (A) (A) (A) (A) (A) (A) (A) (A) (A) (A) (A) (A)
                 (A) (A) (A) (A) (A) (A) (A) (A) (A) (A) (A) (A)
                 (A) (A) (A) (A) (A) (A) (A) (A) (A) (A) (A) (A)
                 (A) (A) (A) (A) (A) (A) (A) (A) (A) (A) (A) (A)
                 (A) (A) (A) (A) (A) (A) (A) (A) (A) (A) (A) (A)
                 (A) (A) (A) (A) (A) (A) (A) (A) (A) (A) (A) (A)
                 (A) (A) (A) (A) (A) (A) (A) (A) (A) (A) (A) (A)
                 (A) (A) (A) (A) (A) (A) (A) (A) (A) (A) (A) (A)
                 (A) (A) (A) (A) (A) (A) (A) (A) (A) (A) (A) (A)
                 (A) (A) (A) (A) (A) (A) (A) (A) (A) (A) (A) (A)
                 (A) (A) (A) (A) (A) (A) (A) (A) (A) (A) (A) (A)
                 (A) (A) (A) (A) (A) (A) (A) (A) (A) (A) (A) (A)
                 (A) (A) (A) (A) (A) (A) (A) (A) (A) (A) (A) (A)
                 (A) (A) (A) (A) (A) (A) (A) (A) (A) (A) (A) (A)
                 (A) (A) (A) (A) (A) (A) (A) (A) (A) (A) (A) (A)
                 (A) (A) (A) (A) (A) (A) (A) (A) (A) (A) (A) (A)
                 (A) (A) (A) (A) (A) (A) (A) (A) (A) (A) (A) (A)
                 (A) (A) (A) (A) (A) (A) (A) (A) (A) (A) (A) (A)
                 (A) (A) (A) (A) (A) (A) (A) (A) (A) (A) (A) (A)
                 (A) (A) (A) (A) (A) (A) (A) (A) (A) (A) (A) (A)
                 (A) (A) (A) (A) (A) (A) (A) (A) (A) (A) (A) (A)
                 (A) (A) (A) (A) (A) (A) (A) (A) (A) (A) (A) (A)
                 (A) (A) (A) (A) (A) (A) (A) (A) (A) (A) (A) (A)
                 (A) (A) (A) (A) (A) (A) (A) (A) (A) (A) (A) (A)
                 (A) (A) (A) (A) (A) (A) (A) (A) (A) (A) (A) (A)
                 (A) (A) (A) (A) (A) (A) (A) (A) (A) (A) (A) (A)
                 (A) (A) (A) (A) (A) (A) (A) (A) (A) (A) (A) (A)
                 (A) (A) (A) (A) (A) (A) (A) (A) (A) (A) (A) (A)
                 (A) (A) (A) (A) (A) (A) (A) (A) (A) (A) (A) (A)
                 (A) (A) (A) (A) (A) (A) (A) (A) (A) (A) (A) (A)
                 (A) (A) (A) (A) (A) (A) (A) (A) (A) (A) (A) (A)
                 (A) (A) (A) (A) (A) (A) (A) (A) (A) (A) (A) (A)
                 (A) (A) (A) (A) (A) (A) (A) (A) (A) (A) (A) (A)
                 (A) (A) (A) (A) (A) (A) (A) (A) (A) (A) (A) (A)
                 (A) (A) (A) (A) (A) (A) (A) (A) (A) (A) (A) (A)
                 (A) (A) (A) (A) (A) (A) (A) (A) (A) (A) (A) (A)
                 (A) (A) (A) (A) (A) (A) (A) (A) (A) (A) (A) (A)
                 (A) (A) (A) (A) (A) (A) (A) (A) (A) (A) (A) (A)
                 (A) (A) (A) (A) (A) (A) (A) (A) (A) (A) (A) (A)
                 (A) (A) (A) (A) (A) (A) (A) (A) (A) (A) (A) (A)
                 (A) (A) (A) (A) (A) (A) (A) (A) (A) (A) (A) (A)
                 (A) (A) (A) (A) (A) (A) (A) (A) (A) (A) (A) (A)
                 (A) (A) (A) (A) (A) (A) (A) (A) (A) (A) (A) (A)
                 (A) (A) (A) (A) (A) (A) (A) (A) (A) (A) (A) (A)
                 (A) (A) (A) (A) (A) (A) (A) (A) (A) (A) (A) (A)
                 (A) (A) (A) (A) (A) (A) (A) (A) (A) (A) (A) (A)
                 (A) (A) (A) (A) (A) (A) (A) (A) (A) (A) (A) (A)
                 (A) (A) (A) (A) (A) (A) (A) (A) (A) (A) (A) (A)
                 (A) (A) (A) (A) (A) (A) (A) (A) (A) (A) (A) (A)
                 (A) (A) (A) (A) (A) (A) (A) (A) (A) (A) (A) (A)
                 (A) (A) (A) (A) (A) (A) (A) (A) (A) (A) (A) (A)
                 (A) (A) (A) (A) (A) (A) (A) (A) (A) (A) (A) (A)
                 (A) (A) (A) (A) (A) (A) (A) (A) (A) (A) (A) (A)
                 (A) (A) (A) (A) (A) (A) (A) (A) (A) (A) (A) (A)
                 (A) (A) (A) (A) (A) (A) (A) (A) (A) (A) (A) (A)
                 (A) (A) (A) (A) (A) (A) (A) (A) (A) (A) (A) (A)
                 (A) (A) (A) (A) (A) (A) (A) (A) (A) (A) (A) (A)
                 (A) (A) (A) (A) (A) (A) (A) (A) (A) (A) (A) (A)
                 (A) (A) (A) (A) (A) (A) (A) (A) (A) (A) (A) (A)
                 (A) (A) (A) (A) (A) (A) (A) (A) (A) (A) (A) (A)
                 (A) (A) (A) (A) (A) (A) (A) (A) (A) (A) (A) (A)
                 (A) (A) (A) (A) (A) (A) (A) (A) (A) (A) (A) (A)
                 (A) (A) (A) (A) (A) (A) (A) (A) (A) (A) (A) (A)
                 (A) (A) (A) (A) (A) (A) (A) (A) (A) (A) (A) (A)
                 (A) (A) (A) (A) (A) (A) (A) (A) (A) (A) (A) (A)
                 (A) (A) (A) (A) (A) (A) (A) (A) (A) (A) (A) (A)
                 (A) (A) (A) (A) (A) (A) (A) (A) (A) (A) (A) (A)
                 (A) (A) (A) (A) (A) (A) (A) (A) (A) (A) (A) (A)
                 (A) (A) (A) (A) (A) (A) (A) (A) (A) (A) (A) (A)
                 (A) (A) (A) (A) (A) (A) (A) (A) (A) (A) (A) (A)
                 (A) (A) (A) (A) (A) (A) (A) (A) (A) (A) (A) (A)
                 (A) (A) (A) (A) (A) (A) (A) (A) (A) (A) (A) (A)
                 (A) (A) (A) (A) (A) (A) (A) (A) (A) (A) (A) (A)
                 (A) (A) (A) (A) (A) (A) (A) (A) (A) (A) (A) (A)
                 (A) (A) (A) (A) (A) (A) (A) (A) (A) (A) (A) (A)
                 (A) (A) (A) (A) (A) (A) (A) (A) (A) (A) (A) (A)
                 (A) (A) (A) (A) (A) (A) (A) (A) (A) (A) (A) (A)
                 (A) (A) (A) (A) (A) (A) (A) (A) (A) (A) (A) (A)
                 (A) (A) (A) (A) (A) (A) (A) (A) (A) (A) (A) (A)
                 (A) (A) (A) (A) (A) (A) (A) (A) (A) (A) (A) (A)
                 (A) (A) (A) (A) (A) (A) (A) (A) (A) (A) (A) (A)
                 (A) (A) (A) (A) (A) (A) (A) (A) (A) (A) (A) (A)
                 (A) (A) (A) (A) (A) (A) (A) (A) (A) (A) (A) (A)
                 (A) (A) (A) (A) (A) (A) (A) (A) (A) (A) (A) (A)
                 (A) (A) (A) (A) (A) (A) (A) (A) (A) (A) (A) (A)
                 (A) (A) (A) (A) (A) (A) (A) (A) (A) (A) (A) (A)
                 (A) (A) (A) (A) (A) (A) (A) (A) (A) (A) (A) (A)
                 (A) (A) (A) (A) (A) (A) (A) (A) (A) (A) (A) (A)
                 (A) (A) (A) (A) (A) (A) (A) (A) (A) (A) (A) (A)
                 (A) (A) (A) (A) (A) (A) (A) (A) (A) (A) (A) (A)
                 (A) (A) (A) (A) (A) (A) (A) (A) (A) (A) (A) (A)
                 (A) (A) (A) (A) (A) (A) (A) (A) (A) (A) (A) (A)
                 (A) (A) (A) (A) (A) (A) (A) (A) (A) (A) (A) (A)
                 (A) (A) (A) (A) (A) (A) (A) (A) (A) (A) (A) (A)
                 (A) (A) (A) (A) (A) (A) (A) (A) (A) (A) (A) (A)
                 (A) (A) (A) (A) (A) (A) (A) (A) (A) (A) (A) (A)
                 (A) (A) (A) (A) (A) (A) (A) (A) (A) (A) (A) (A)
                 (A) (A) (A) (A) (A) (A) (A) (A) (A) (A) (A) (A)
                 (A) (A) (A) (A) (A) (A) (A) (A) (A) (A) (A) (A)
                 (A) (A) (A) (A) (A) (A) (A) (A) (A) (A) (A) (A)
                 (A) (A) (A) (A) (A) (A) (A) (A) (A) (A) (A) (A)
                 (A) (A) (A) (A) (A) (A) (A) (A) (A) (A) (A) (A)
                 (A) (A) (A) (A) (A) (A) (A) (A) (A) (A) (A) (A)
                 (A) (A) (A) (A) (A) (A) (A) (A) (A) (A) (A) (A)
                 (A) (A) (A) (A) (A) (A) (A) (A) (A) (A) (A) (A)
                 (A) (A) (A) (A) (A) (A) (A) (A) (A) (A) (A) (A)
                 (A) (A) (A) (A) (A) (A) (A) (A) (A) (A) (A) (A)
                 (A) (A) (A) (A) (A) (A) (A) (A) (A) (A) (A) (A)
                 (A) (A) (A) (A) (A) (A) (A) (A) (A) (A) (A) (A)
                 (A) (A) (A) (A) (A) (A) (A) (A) (A) (A) (A) (A)
                 (A) (A) (A) (A) (A) (A) (A) (A) (A) (A) (A) (A)
                 (A) (A) (A) (A) (A) (A) (A) (A) (A) (A) (A) (A)
                 (A) (A) (A) (A) (A) (A) (A) (A) (A) (A) (A) (A)
                 (A) (A) (A) (A) (A) (A) (A) (A) (A) (A) (A) (A)
                 (A) (A) (A) (A) (A) (A) (A) (A) (A) (A) (A) (A)
                 (A) (A) (A) (A) (A) (A) (A) (A) (A) (A) (A) (A)
                 (A) (A) (A) (A) (A) (A) (A) (A) (A) (A) (A) (A)
                 (A) (A) (A) (A) (A) (A) (A) (A) (A) (A) (A) (A)
                 (A) (A) (A) (A) (A) (A) (A) (A) (A) (A) (A) (A)
                 (A) (A) (A) (A)
 The electronic state is 1-A.
 Alpha  occ. eigenvalues --  -88.97200 -88.94695 -19.23314 -19.22843 -19.21844
 Alpha  occ. eigenvalues --  -19.21841 -19.20253 -19.19175 -19.18099 -19.09084
 Alpha  occ. eigenvalues --  -19.08850 -14.43883 -14.36881 -10.36260 -10.35431
 Alpha  occ. eigenvalues --  -10.33658 -10.29693 -10.29289 -10.29190 -10.27027
 Alpha  occ. eigenvalues --  -10.26800 -10.26380 -10.26188 -10.26053 -10.25926
 Alpha  occ. eigenvalues --  -10.25687 -10.25633 -10.25217 -10.24859 -10.24821
 Alpha  occ. eigenvalues --  -10.24753 -10.24449 -10.24442 -10.24428 -10.24408
 Alpha  occ. eigenvalues --  -10.24297 -10.24226 -10.24133 -10.24062 -10.24047
 Alpha  occ. eigenvalues --  -10.24034 -10.23953 -10.23913 -10.23908 -10.23859
 Alpha  occ. eigenvalues --  -10.23848 -10.23795 -10.23752 -10.23562 -10.23555
 Alpha  occ. eigenvalues --  -10.23494 -10.23442 -10.23371 -10.23345 -10.23306
 Alpha  occ. eigenvalues --  -10.23234 -10.23205 -10.23200 -10.23175 -10.23170
 Alpha  occ. eigenvalues --  -10.23114 -10.23067 -10.23053 -10.22945 -10.22893
 Alpha  occ. eigenvalues --  -10.22756 -10.22642 -10.22636 -10.22589 -10.22577
 Alpha  occ. eigenvalues --  -10.22566 -10.22556 -10.22446 -10.22441 -10.22276
 Alpha  occ. eigenvalues --  -10.22194 -10.22174 -10.22141 -10.22119 -10.22105
 Alpha  occ. eigenvalues --  -10.21982 -10.21836 -10.21724 -10.21699 -10.21699
 Alpha  occ. eigenvalues --  -10.21632 -10.21499 -10.21291 -10.21266 -10.21258
 Alpha  occ. eigenvalues --  -10.20728 -10.20636 -10.20574 -10.20475 -10.20333
 Alpha  occ. eigenvalues --  -10.20231 -10.19936 -10.19858 -10.19830 -10.19728
 Alpha  occ. eigenvalues --  -10.19385 -10.19231 -10.19167 -10.18765 -10.18746
 Alpha  occ. eigenvalues --  -10.18369 -10.17828 -10.17586 -10.17560  -7.99106
 Alpha  occ. eigenvalues --   -7.96505  -5.94156  -5.93772  -5.93075  -5.91556
 Alpha  occ. eigenvalues --   -5.91164  -5.90502  -1.12707  -1.09906  -1.09092
 Alpha  occ. eigenvalues --   -1.08663  -1.08063  -1.05470  -1.03185  -1.00203
 Alpha  occ. eigenvalues --   -0.98039  -0.96761  -0.90987  -0.90409  -0.89416
 Alpha  occ. eigenvalues --   -0.89355  -0.88998  -0.88280  -0.86821  -0.85784
 Alpha  occ. eigenvalues --   -0.85192  -0.84490  -0.84173  -0.84089  -0.83799
 Alpha  occ. eigenvalues --   -0.83557  -0.83394  -0.82664  -0.82533  -0.82381
 Alpha  occ. eigenvalues --   -0.82275  -0.81736  -0.81142  -0.81065  -0.80548
 Alpha  occ. eigenvalues --   -0.80502  -0.79736  -0.78377  -0.78292  -0.77674
 Alpha  occ. eigenvalues --   -0.77384  -0.77321  -0.77239  -0.76532  -0.75684
 Alpha  occ. eigenvalues --   -0.75534  -0.75486  -0.75318  -0.75064  -0.74952
 Alpha  occ. eigenvalues --   -0.74549  -0.73671  -0.73320  -0.73246  -0.73005
 Alpha  occ. eigenvalues --   -0.72781  -0.72715  -0.72491  -0.71891  -0.71866
 Alpha  occ. eigenvalues --   -0.71404  -0.70827  -0.70748  -0.70666  -0.70459
 Alpha  occ. eigenvalues --   -0.69614  -0.69546  -0.69157  -0.69106  -0.68788
 Alpha  occ. eigenvalues --   -0.67318  -0.67243  -0.67175  -0.66589  -0.66200
 Alpha  occ. eigenvalues --   -0.65364  -0.65224  -0.64730  -0.64633  -0.63997
 Alpha  occ. eigenvalues --   -0.63726  -0.63598  -0.62552  -0.62502  -0.61790
 Alpha  occ. eigenvalues --   -0.61464  -0.61229  -0.61123  -0.61020  -0.60759
 Alpha  occ. eigenvalues --   -0.60496  -0.60331  -0.60293  -0.60096  -0.60010
 Alpha  occ. eigenvalues --   -0.59558  -0.59108  -0.58328  -0.57985  -0.57909
 Alpha  occ. eigenvalues --   -0.57766  -0.57329  -0.56844  -0.56614  -0.56489
 Alpha  occ. eigenvalues --   -0.55616  -0.54439  -0.54397  -0.54046  -0.53556
 Alpha  occ. eigenvalues --   -0.52764  -0.52365  -0.52310  -0.51805  -0.51646
 Alpha  occ. eigenvalues --   -0.51344  -0.51133  -0.50708  -0.50455  -0.50384
 Alpha  occ. eigenvalues --   -0.50200  -0.50069  -0.49855  -0.49756  -0.49622
 Alpha  occ. eigenvalues --   -0.49430  -0.49297  -0.49244  -0.48921  -0.48870
 Alpha  occ. eigenvalues --   -0.48488  -0.48435  -0.48369  -0.48154  -0.47743
 Alpha  occ. eigenvalues --   -0.47626  -0.47537  -0.47383  -0.47238  -0.47043
 Alpha  occ. eigenvalues --   -0.47000  -0.46886  -0.46827  -0.46740  -0.46714
 Alpha  occ. eigenvalues --   -0.46637  -0.46598  -0.46360  -0.46292  -0.46210
 Alpha  occ. eigenvalues --   -0.46181  -0.46164  -0.45961  -0.45941  -0.45828
 Alpha  occ. eigenvalues --   -0.45785  -0.45506  -0.45384  -0.45061  -0.44942
 Alpha  occ. eigenvalues --   -0.44920  -0.44733  -0.44579  -0.44552  -0.44472
 Alpha  occ. eigenvalues --   -0.44413  -0.44270  -0.44103  -0.43880  -0.43692
 Alpha  occ. eigenvalues --   -0.43545  -0.43483  -0.43329  -0.43276  -0.43191
 Alpha  occ. eigenvalues --   -0.43120  -0.43064  -0.42945  -0.42914  -0.42852
 Alpha  occ. eigenvalues --   -0.42729  -0.42708  -0.42561  -0.42483  -0.42438
 Alpha  occ. eigenvalues --   -0.42222  -0.42192  -0.42127  -0.42009  -0.41803
 Alpha  occ. eigenvalues --   -0.41618  -0.41530  -0.41420  -0.41292  -0.41157
 Alpha  occ. eigenvalues --   -0.41087  -0.41017  -0.40900  -0.40825  -0.40732
 Alpha  occ. eigenvalues --   -0.40697  -0.40564  -0.40510  -0.40297  -0.40281
 Alpha  occ. eigenvalues --   -0.40220  -0.40187  -0.40067  -0.40022  -0.39840
 Alpha  occ. eigenvalues --   -0.39821  -0.39735  -0.39625  -0.39545  -0.39492
 Alpha  occ. eigenvalues --   -0.39418  -0.39402  -0.39145  -0.38884  -0.38841
 Alpha  occ. eigenvalues --   -0.38668  -0.38547  -0.38329  -0.38262  -0.38177
 Alpha  occ. eigenvalues --   -0.38091  -0.37839  -0.37707  -0.37554  -0.37438
 Alpha  occ. eigenvalues --   -0.37325  -0.37219  -0.37024  -0.36931  -0.36915
 Alpha  occ. eigenvalues --   -0.36864  -0.36799  -0.36642  -0.36603  -0.36505
 Alpha  occ. eigenvalues --   -0.36315  -0.36275  -0.36193  -0.36097  -0.36055
 Alpha  occ. eigenvalues --   -0.36025  -0.35863  -0.35822  -0.35797  -0.35704
 Alpha  occ. eigenvalues --   -0.35618  -0.35554  -0.35536  -0.35374  -0.35236
 Alpha  occ. eigenvalues --   -0.35165  -0.35131  -0.35075  -0.35051  -0.35007
 Alpha  occ. eigenvalues --   -0.34806  -0.34736  -0.34706  -0.34685  -0.34647
 Alpha  occ. eigenvalues --   -0.34604  -0.34554  -0.34464  -0.34382  -0.34309
 Alpha  occ. eigenvalues --   -0.34232  -0.34151  -0.33839  -0.33769  -0.33657
 Alpha  occ. eigenvalues --   -0.33618  -0.33197  -0.33122  -0.32791  -0.32593
 Alpha  occ. eigenvalues --   -0.32527  -0.32376  -0.32281  -0.32165  -0.31962
 Alpha  occ. eigenvalues --   -0.31909  -0.31728  -0.31549  -0.31283  -0.31136
 Alpha  occ. eigenvalues --   -0.31013  -0.30948  -0.30848  -0.30494  -0.29972
 Alpha  occ. eigenvalues --   -0.29824  -0.29301  -0.29120  -0.29017  -0.28903
 Alpha  occ. eigenvalues --   -0.28171  -0.27512  -0.26980  -0.26530  -0.26471
 Alpha  occ. eigenvalues --   -0.25968  -0.25536  -0.24932  -0.24618  -0.23706
 Alpha  occ. eigenvalues --   -0.22695  -0.22159  -0.21291  -0.20948  -0.19690
 Alpha  occ. eigenvalues --   -0.19086  -0.18711  -0.16761
 Alpha virt. eigenvalues --    0.07319   0.12971   0.13194   0.13535   0.14053
 Alpha virt. eigenvalues --    0.14377   0.14635   0.14698   0.15612   0.15914
 Alpha virt. eigenvalues --    0.16054   0.16414   0.16612   0.17776   0.18683
 Alpha virt. eigenvalues --    0.19146   0.19407   0.19495   0.20009   0.20212
 Alpha virt. eigenvalues --    0.20549   0.21034   0.21157   0.21407   0.21525
 Alpha virt. eigenvalues --    0.21907   0.22207   0.22296   0.22447   0.22499
 Alpha virt. eigenvalues --    0.22841   0.23098   0.23156   0.23297   0.23357
 Alpha virt. eigenvalues --    0.23570   0.23657   0.23914   0.23987   0.24313
 Alpha virt. eigenvalues --    0.24431   0.24552   0.24736   0.24790   0.24958
 Alpha virt. eigenvalues --    0.25072   0.25167   0.25338   0.25464   0.25605
 Alpha virt. eigenvalues --    0.25657   0.25785   0.25919   0.26072   0.26224
 Alpha virt. eigenvalues --    0.26366   0.26559   0.26578   0.26673   0.26734
 Alpha virt. eigenvalues --    0.26948   0.26991   0.27214   0.27373   0.27475
 Alpha virt. eigenvalues --    0.27518   0.27622   0.27675   0.27805   0.27915
 Alpha virt. eigenvalues --    0.27966   0.28146   0.28186   0.28284   0.28467
 Alpha virt. eigenvalues --    0.28519   0.28608   0.28719   0.28803   0.28981
 Alpha virt. eigenvalues --    0.29010   0.29166   0.29209   0.29286   0.29421
 Alpha virt. eigenvalues --    0.29451   0.29548   0.29637   0.29724   0.29752
 Alpha virt. eigenvalues --    0.29872   0.29994   0.30042   0.30080   0.30193
 Alpha virt. eigenvalues --    0.30320   0.30366   0.30516   0.30589   0.30713
 Alpha virt. eigenvalues --    0.30802   0.30808   0.30957   0.31052   0.31125
 Alpha virt. eigenvalues --    0.31232   0.31332   0.31381   0.31491   0.31652
 Alpha virt. eigenvalues --    0.31696   0.31796   0.31871   0.31918   0.31961
 Alpha virt. eigenvalues --    0.32048   0.32090   0.32153   0.32213   0.32390
 Alpha virt. eigenvalues --    0.32408   0.32479   0.32484   0.32615   0.32771
 Alpha virt. eigenvalues --    0.32927   0.33010   0.33109   0.33213   0.33302
 Alpha virt. eigenvalues --    0.33325   0.33423   0.33453   0.33521   0.33538
 Alpha virt. eigenvalues --    0.33714   0.33745   0.33953   0.34006   0.34157
 Alpha virt. eigenvalues --    0.34220   0.34427   0.34481   0.34511   0.34533
 Alpha virt. eigenvalues --    0.34648   0.34702   0.34744   0.34951   0.35023
 Alpha virt. eigenvalues --    0.35102   0.35153   0.35259   0.35358   0.35494
 Alpha virt. eigenvalues --    0.35559   0.35591   0.35746   0.35823   0.35862
 Alpha virt. eigenvalues --    0.36065   0.36111   0.36260   0.36392   0.36510
 Alpha virt. eigenvalues --    0.36624   0.36691   0.36809   0.36899   0.36990
 Alpha virt. eigenvalues --    0.37108   0.37170   0.37274   0.37377   0.37392
 Alpha virt. eigenvalues --    0.37490   0.37611   0.37656   0.37731   0.37832
 Alpha virt. eigenvalues --    0.37942   0.37965   0.38090   0.38135   0.38324
 Alpha virt. eigenvalues --    0.38397   0.38436   0.38579   0.38737   0.38890
 Alpha virt. eigenvalues --    0.38994   0.39046   0.39100   0.39205   0.39341
 Alpha virt. eigenvalues --    0.39442   0.39535   0.39689   0.39871   0.39967
 Alpha virt. eigenvalues --    0.40092   0.40270   0.40370   0.40530   0.40580
 Alpha virt. eigenvalues --    0.40635   0.40884   0.41057   0.41155   0.41181
 Alpha virt. eigenvalues --    0.41364   0.41533   0.41662   0.41713   0.41839
 Alpha virt. eigenvalues --    0.41977   0.42047   0.42159   0.42339   0.42485
 Alpha virt. eigenvalues --    0.42669   0.42726   0.42844   0.42987   0.43093
 Alpha virt. eigenvalues --    0.43291   0.43577   0.43679   0.43802   0.43886
 Alpha virt. eigenvalues --    0.44066   0.44228   0.44427   0.44527   0.44786
 Alpha virt. eigenvalues --    0.44963   0.45164   0.45188   0.45291   0.45487
 Alpha virt. eigenvalues --    0.45566   0.46007   0.46168   0.46321   0.46412
 Alpha virt. eigenvalues --    0.46667   0.46886   0.46908   0.46982   0.47240
 Alpha virt. eigenvalues --    0.47545   0.47586   0.47976   0.48197   0.48317
 Alpha virt. eigenvalues --    0.48461   0.48713   0.48815   0.48912   0.49543
 Alpha virt. eigenvalues --    0.49686   0.50016   0.50451   0.50767   0.50931
 Alpha virt. eigenvalues --    0.51185   0.51556   0.51638   0.51837   0.52214
 Alpha virt. eigenvalues --    0.52412   0.52939   0.53350   0.53623   0.53922
 Alpha virt. eigenvalues --    0.54113   0.54178   0.55135   0.55565   0.56068
 Alpha virt. eigenvalues --    0.56436   0.57015   0.57614   0.57713   0.58611
 Alpha virt. eigenvalues --    0.59189   0.59530   0.60247   0.60610   0.60756
 Alpha virt. eigenvalues --    0.61668   0.62211   0.62489   0.62581   0.62791
 Alpha virt. eigenvalues --    0.63200   0.63253   0.63423   0.63609   0.63685
 Alpha virt. eigenvalues --    0.63731   0.64025   0.64234   0.64310   0.64652
 Alpha virt. eigenvalues --    0.64713   0.64825   0.64928   0.65182   0.65306
 Alpha virt. eigenvalues --    0.65366   0.65472   0.65564   0.65683   0.65818
 Alpha virt. eigenvalues --    0.65943   0.66196   0.66212   0.66443   0.66692
 Alpha virt. eigenvalues --    0.66826   0.66897   0.66969   0.67226   0.67458
 Alpha virt. eigenvalues --    0.67535   0.67737   0.67869   0.67954   0.68083
 Alpha virt. eigenvalues --    0.68167   0.68217   0.68439   0.68527   0.68612
 Alpha virt. eigenvalues --    0.68639   0.68833   0.68927   0.69013   0.69138
 Alpha virt. eigenvalues --    0.69187   0.69519   0.69668   0.69844   0.69945
 Alpha virt. eigenvalues --    0.70065   0.70260   0.70391   0.70471   0.70741
 Alpha virt. eigenvalues --    0.70896   0.71034   0.71178   0.71308   0.71579
 Alpha virt. eigenvalues --    0.71620   0.72000   0.72082   0.72150   0.72363
 Alpha virt. eigenvalues --    0.72391   0.72550   0.72659   0.72781   0.72825
 Alpha virt. eigenvalues --    0.73011   0.73151   0.73188   0.73260   0.73434
 Alpha virt. eigenvalues --    0.73573   0.73830   0.73874   0.73991   0.74096
 Alpha virt. eigenvalues --    0.74242   0.74314   0.74353   0.74609   0.74708
 Alpha virt. eigenvalues --    0.74871   0.75023   0.75075   0.75101   0.75253
 Alpha virt. eigenvalues --    0.75397   0.75420   0.75742   0.75766   0.75964
 Alpha virt. eigenvalues --    0.76104   0.76171   0.76437   0.76571   0.76659
 Alpha virt. eigenvalues --    0.76907   0.76984   0.77138   0.77194   0.77398
 Alpha virt. eigenvalues --    0.77501   0.77715   0.77779   0.77915   0.78039
 Alpha virt. eigenvalues --    0.78102   0.78195   0.78257   0.78578   0.78745
 Alpha virt. eigenvalues --    0.78883   0.78973   0.79051   0.79196   0.79471
 Alpha virt. eigenvalues --    0.79571   0.79678   0.79897   0.80044   0.80261
 Alpha virt. eigenvalues --    0.80352   0.80545   0.80636   0.80816   0.80864
 Alpha virt. eigenvalues --    0.80906   0.80962   0.81209   0.81367   0.81507
 Alpha virt. eigenvalues --    0.81631   0.81782   0.82022   0.82150   0.82310
 Alpha virt. eigenvalues --    0.82395   0.82554   0.82638   0.82831   0.82942
 Alpha virt. eigenvalues --    0.83016   0.83081   0.83186   0.83327   0.83450
 Alpha virt. eigenvalues --    0.83545   0.83593   0.83683   0.83800   0.84022
 Alpha virt. eigenvalues --    0.84245   0.84363   0.84491   0.84594   0.84751
 Alpha virt. eigenvalues --    0.84872   0.84987   0.85012   0.85132   0.85347
 Alpha virt. eigenvalues --    0.85574   0.85637   0.85937   0.86129   0.86284
 Alpha virt. eigenvalues --    0.86385   0.86558   0.86715   0.86799   0.86847
 Alpha virt. eigenvalues --    0.87073   0.87292   0.87396   0.87609   0.87762
 Alpha virt. eigenvalues --    0.87871   0.88039   0.88173   0.88407   0.88488
 Alpha virt. eigenvalues --    0.88683   0.88881   0.89081   0.89177   0.89461
 Alpha virt. eigenvalues --    0.89563   0.89636   0.89660   0.89928   0.90238
 Alpha virt. eigenvalues --    0.90546   0.90646   0.90865   0.90999   0.91060
 Alpha virt. eigenvalues --    0.91227   0.91262   0.91461   0.91482   0.91687
 Alpha virt. eigenvalues --    0.91955   0.92028   0.92301   0.92514   0.92587
 Alpha virt. eigenvalues --    0.92775   0.93073   0.93226   0.93388   0.93534
 Alpha virt. eigenvalues --    0.93594   0.93768   0.93971   0.94216   0.94553
 Alpha virt. eigenvalues --    0.94929   0.94997   0.95150   0.95397   0.95548
 Alpha virt. eigenvalues --    0.95970   0.96039   0.96334   0.96473   0.96587
 Alpha virt. eigenvalues --    0.96892   0.96966   0.97092   0.97195   0.97396
 Alpha virt. eigenvalues --    0.97746   0.97844   0.97941   0.98118   0.98187
 Alpha virt. eigenvalues --    0.98272   0.98433   0.98511   0.98574   0.98868
 Alpha virt. eigenvalues --    0.99042   0.99194   0.99302   0.99451   0.99618
 Alpha virt. eigenvalues --    0.99635   0.99721   0.99976   1.00041   1.00213
 Alpha virt. eigenvalues --    1.00402   1.00477   1.00594   1.00674   1.00783
 Alpha virt. eigenvalues --    1.00920   1.01132   1.01260   1.01376   1.01423
 Alpha virt. eigenvalues --    1.01627   1.01789   1.01962   1.02100   1.02181
 Alpha virt. eigenvalues --    1.02284   1.02327   1.02501   1.02728   1.02837
 Alpha virt. eigenvalues --    1.03008   1.03082   1.03248   1.03335   1.03398
 Alpha virt. eigenvalues --    1.03611   1.03676   1.03746   1.03812   1.03883
 Alpha virt. eigenvalues --    1.04065   1.04243   1.04314   1.04391   1.04467
 Alpha virt. eigenvalues --    1.04650   1.04669   1.04759   1.04882   1.04940
 Alpha virt. eigenvalues --    1.05089   1.05150   1.05231   1.05316   1.05385
 Alpha virt. eigenvalues --    1.05575   1.05746   1.05796   1.05897   1.06016
 Alpha virt. eigenvalues --    1.06098   1.06157   1.06318   1.06528   1.06602
 Alpha virt. eigenvalues --    1.06626   1.06649   1.06755   1.06997   1.07032
 Alpha virt. eigenvalues --    1.07056   1.07142   1.07294   1.07337   1.07444
 Alpha virt. eigenvalues --    1.07663   1.07831   1.07856   1.07969   1.08095
 Alpha virt. eigenvalues --    1.08216   1.08358   1.08522   1.08642   1.08690
 Alpha virt. eigenvalues --    1.08834   1.09001   1.09052   1.09126   1.09299
 Alpha virt. eigenvalues --    1.09368   1.09431   1.09522   1.09692   1.09784
 Alpha virt. eigenvalues --    1.09920   1.10027   1.10072   1.10217   1.10225
 Alpha virt. eigenvalues --    1.10373   1.10469   1.10515   1.10604   1.10756
 Alpha virt. eigenvalues --    1.10826   1.10855   1.11154   1.11253   1.11338
 Alpha virt. eigenvalues --    1.11564   1.11712   1.11810   1.11977   1.12082
 Alpha virt. eigenvalues --    1.12156   1.12270   1.12420   1.12471   1.12685
 Alpha virt. eigenvalues --    1.12769   1.13002   1.13117   1.13232   1.13374
 Alpha virt. eigenvalues --    1.13488   1.13674   1.13826   1.13877   1.13998
 Alpha virt. eigenvalues --    1.14101   1.14312   1.14496   1.14549   1.14649
 Alpha virt. eigenvalues --    1.14759   1.14936   1.15023   1.15084   1.15169
 Alpha virt. eigenvalues --    1.15412   1.15454   1.15595   1.15827   1.15980
 Alpha virt. eigenvalues --    1.16091   1.16151   1.16378   1.16636   1.16727
 Alpha virt. eigenvalues --    1.16766   1.17050   1.17135   1.17238   1.17382
 Alpha virt. eigenvalues --    1.17468   1.17762   1.17900   1.18023   1.18231
 Alpha virt. eigenvalues --    1.18378   1.18582   1.18711   1.18960   1.19071
 Alpha virt. eigenvalues --    1.19157   1.19337   1.19376   1.19639   1.19802
 Alpha virt. eigenvalues --    1.20038   1.20173   1.20321   1.20565   1.20928
 Alpha virt. eigenvalues --    1.20988   1.21231   1.21466   1.21609   1.21726
 Alpha virt. eigenvalues --    1.22056   1.22209   1.22366   1.22488   1.22617
 Alpha virt. eigenvalues --    1.22762   1.23328   1.23394   1.23443   1.23560
 Alpha virt. eigenvalues --    1.23888   1.24020   1.24194   1.24501   1.24921
 Alpha virt. eigenvalues --    1.25166   1.25359   1.25677   1.26193   1.26263
 Alpha virt. eigenvalues --    1.26731   1.26867   1.26961   1.27194   1.27345
 Alpha virt. eigenvalues --    1.27614   1.27722   1.27870   1.28339   1.28461
 Alpha virt. eigenvalues --    1.28710   1.28895   1.28974   1.29371   1.29505
 Alpha virt. eigenvalues --    1.29699   1.29923   1.29975   1.30278   1.30675
 Alpha virt. eigenvalues --    1.30805   1.31114   1.31435   1.31558   1.31809
 Alpha virt. eigenvalues --    1.32032   1.32346   1.32458   1.32631   1.32950
 Alpha virt. eigenvalues --    1.33110   1.33393   1.33539   1.33776   1.34048
 Alpha virt. eigenvalues --    1.34219   1.34370   1.35223   1.35296   1.35480
 Alpha virt. eigenvalues --    1.36010   1.36445   1.36631   1.36820   1.36982
 Alpha virt. eigenvalues --    1.37006   1.37188   1.37652   1.37812   1.38277
 Alpha virt. eigenvalues --    1.38504   1.38786   1.39291   1.39576   1.39852
 Alpha virt. eigenvalues --    1.40071   1.40200   1.40471   1.40622   1.40902
 Alpha virt. eigenvalues --    1.40964   1.41466   1.41562   1.41755   1.42039
 Alpha virt. eigenvalues --    1.42319   1.42790   1.43332   1.43442   1.43470
 Alpha virt. eigenvalues --    1.43718   1.44003   1.44443   1.45048   1.45299
 Alpha virt. eigenvalues --    1.45480   1.45905   1.46035   1.46211   1.46494
 Alpha virt. eigenvalues --    1.46799   1.47650   1.48161   1.48265   1.48778
 Alpha virt. eigenvalues --    1.49124   1.49448   1.49672   1.49783   1.50308
 Alpha virt. eigenvalues --    1.50516   1.50866   1.51133   1.51518   1.51802
 Alpha virt. eigenvalues --    1.51982   1.52309   1.52436   1.52664   1.52849
 Alpha virt. eigenvalues --    1.53309   1.53786   1.53986   1.54442   1.54603
 Alpha virt. eigenvalues --    1.54675   1.55019   1.55131   1.55617   1.56077
 Alpha virt. eigenvalues --    1.56156   1.56837   1.56956   1.57103   1.57405
 Alpha virt. eigenvalues --    1.57450   1.57616   1.57808   1.57931   1.58311
 Alpha virt. eigenvalues --    1.58458   1.58579   1.58869   1.59029   1.59244
 Alpha virt. eigenvalues --    1.59473   1.59566   1.59908   1.59965   1.60024
 Alpha virt. eigenvalues --    1.60191   1.60534   1.60861   1.61003   1.61033
 Alpha virt. eigenvalues --    1.61059   1.61269   1.61469   1.61520   1.61625
 Alpha virt. eigenvalues --    1.61666   1.61938   1.61985   1.62110   1.62205
 Alpha virt. eigenvalues --    1.62351   1.62598   1.62884   1.62919   1.62964
 Alpha virt. eigenvalues --    1.63498   1.63671   1.63697   1.63827   1.64549
 Alpha virt. eigenvalues --    1.65024   1.65152   1.65276   1.65552   1.65795
 Alpha virt. eigenvalues --    1.66020   1.66101   1.66200   1.66493   1.66508
 Alpha virt. eigenvalues --    1.67025   1.67129   1.67663   1.67939   1.68133
 Alpha virt. eigenvalues --    1.68408   1.68767   1.68993   1.69329   1.69492
 Alpha virt. eigenvalues --    1.69799   1.70237   1.71257   1.71570   1.71975
 Alpha virt. eigenvalues --    1.72480   1.73035   1.73426   1.73462   1.74115
 Alpha virt. eigenvalues --    1.75162   1.75215   1.75472   1.76085   1.76382
 Alpha virt. eigenvalues --    1.76478   1.77169   1.77460   1.77662   1.78030
 Alpha virt. eigenvalues --    1.78393   1.78902   1.79356   1.80087   1.80154
 Alpha virt. eigenvalues --    1.80447   1.80642   1.81489   1.81688   1.81823
 Alpha virt. eigenvalues --    1.82263   1.83265   1.83495   1.83607   1.83794
 Alpha virt. eigenvalues --    1.84145   1.84550   1.84820   1.85320   1.85683
 Alpha virt. eigenvalues --    1.85968   1.86398   1.86508   1.86590   1.86729
 Alpha virt. eigenvalues --    1.86817   1.86922   1.87046   1.87328   1.87511
 Alpha virt. eigenvalues --    1.87931   1.88236   1.88354   1.88497   1.88790
 Alpha virt. eigenvalues --    1.88993   1.89093   1.89275   1.89732   1.89906
 Alpha virt. eigenvalues --    1.90211   1.90271   1.90450   1.90741   1.90888
 Alpha virt. eigenvalues --    1.91136   1.91266   1.91482   1.91957   1.92452
 Alpha virt. eigenvalues --    1.92651   1.93143   1.93431   1.93551   1.93614
 Alpha virt. eigenvalues --    1.93869   1.93900   1.94037   1.94194   1.94534
 Alpha virt. eigenvalues --    1.94863   1.95603   1.95738   1.95968   1.96228
 Alpha virt. eigenvalues --    1.96585   1.96819   1.96984   1.97201   1.97422
 Alpha virt. eigenvalues --    1.97540   1.97601   1.97822   1.97874   1.98065
 Alpha virt. eigenvalues --    1.98270   1.98888   1.99004   1.99098   1.99192
 Alpha virt. eigenvalues --    1.99370   1.99877   1.99936   2.00111   2.00163
 Alpha virt. eigenvalues --    2.00910   2.01027   2.01168   2.01376   2.01874
 Alpha virt. eigenvalues --    2.02596   2.03244   2.03358   2.03884   2.03958
 Alpha virt. eigenvalues --    2.04090   2.04188   2.04331   2.04381   2.04569
 Alpha virt. eigenvalues --    2.04794   2.05111   2.05314   2.05639   2.05817
 Alpha virt. eigenvalues --    2.05991   2.06146   2.06861   2.07009   2.07791
 Alpha virt. eigenvalues --    2.08081   2.08192   2.08205   2.08241   2.08634
 Alpha virt. eigenvalues --    2.08656   2.08790   2.08966   2.09015   2.09064
 Alpha virt. eigenvalues --    2.09367   2.09481   2.09566   2.09676   2.09682
 Alpha virt. eigenvalues --    2.09961   2.10055   2.10116   2.10260   2.10360
 Alpha virt. eigenvalues --    2.10528   2.10636   2.10664   2.10813   2.10958
 Alpha virt. eigenvalues --    2.11146   2.11473   2.11628   2.12084   2.12206
 Alpha virt. eigenvalues --    2.12547   2.12561   2.12784   2.13061   2.13289
 Alpha virt. eigenvalues --    2.13387   2.13564   2.13689   2.13874   2.13938
 Alpha virt. eigenvalues --    2.14052   2.14146   2.14406   2.14581   2.14833
 Alpha virt. eigenvalues --    2.15107   2.15142   2.15226   2.15341   2.15345
 Alpha virt. eigenvalues --    2.15440   2.16047   2.16125   2.16543   2.16764
 Alpha virt. eigenvalues --    2.16841   2.16936   2.17202   2.17236   2.17380
 Alpha virt. eigenvalues --    2.17469   2.17584   2.18038   2.18230   2.18274
 Alpha virt. eigenvalues --    2.18768   2.18885   2.19132   2.19272   2.19321
 Alpha virt. eigenvalues --    2.19667   2.19822   2.20156   2.20361   2.20441
 Alpha virt. eigenvalues --    2.20560   2.20864   2.21068   2.21316   2.21362
 Alpha virt. eigenvalues --    2.21748   2.21965   2.22268   2.22302   2.22715
 Alpha virt. eigenvalues --    2.22831   2.23016   2.23239   2.23333   2.23510
 Alpha virt. eigenvalues --    2.23992   2.24254   2.24441   2.24446   2.24642
 Alpha virt. eigenvalues --    2.25177   2.25557   2.25901   2.26181   2.26593
 Alpha virt. eigenvalues --    2.26814   2.27395   2.27642   2.27709   2.27847
 Alpha virt. eigenvalues --    2.27937   2.28041   2.28208   2.28383   2.28528
 Alpha virt. eigenvalues --    2.28661   2.28869   2.29171   2.29317   2.29426
 Alpha virt. eigenvalues --    2.29582   2.29631   2.29967   2.30276   2.30580
 Alpha virt. eigenvalues --    2.30781   2.30832   2.31116   2.31401   2.31610
 Alpha virt. eigenvalues --    2.31683   2.31889   2.32533   2.32760   2.33101
 Alpha virt. eigenvalues --    2.33572   2.33618   2.34156   2.34452   2.34554
 Alpha virt. eigenvalues --    2.35068   2.35151   2.35677   2.36080   2.36293
 Alpha virt. eigenvalues --    2.37212   2.37377   2.37500   2.37779   2.38343
 Alpha virt. eigenvalues --    2.38590   2.38638   2.38735   2.38851   2.38940
 Alpha virt. eigenvalues --    2.39148   2.39262   2.39648   2.39755   2.39856
 Alpha virt. eigenvalues --    2.40159   2.40258   2.40382   2.40581   2.40734
 Alpha virt. eigenvalues --    2.40762   2.40810   2.40849   2.41107   2.41182
[...]
  105 Atom       -0.283410      0.136350      0.147060
  106 Atom       -0.283916      0.137649      0.146267
  107 Atom       -0.267552      0.088576      0.178977
  108 Atom       -0.221586      0.073051      0.148536
  109 Atom       -0.299527      0.139197      0.160330
  110 Atom       -0.266252      0.104746      0.161506
  111 Atom       -0.301461      0.141628      0.159832
  112 Atom       -0.274899      0.128124      0.146776
  113 Atom       -0.300467      0.143130      0.157336
  114 Atom       -0.309362      0.143310      0.166052
  115 Atom       -0.294514      0.141048      0.153465
  116 Atom       -0.241935      0.092867      0.149068
  117 Atom       -0.303133      0.141425      0.161708
  118 Atom       -0.289663      0.142926      0.146737
  119 Atom       -0.289079      0.141244      0.147835
  120 Atom       -0.026868      0.008030      0.018838
  121 Atom       -0.290583      0.141410      0.149173
  122 Atom       -0.024796     -0.000769      0.025565
  123 Atom       -0.277658      0.136861      0.140797
  124 Atom       -0.018680      0.007211      0.011469
  125 Atom       -0.289678      0.141779      0.147899
  126 Atom       -0.291134      0.142687      0.148447
  127 Atom       -0.288966      0.141776      0.147190
  128 Atom       -0.031116      0.006969      0.024148
  129 Atom       -0.287053      0.139759      0.147295
  130 Atom       -0.291753      0.142278      0.149475
  131 Atom       -0.289454      0.141289      0.148165
  132 Atom       -0.291308      0.141900      0.149408
  133 Atom       -0.290796      0.141333      0.149463
  134 Atom       -0.044152      0.010299      0.033852
  135 Atom       -0.293526      0.143451      0.150075
  136 Atom       -0.059739      0.011444      0.048295
  137 Atom       -0.283062      0.138668      0.144394
  138 Atom       -0.284882      0.138414      0.146468
  139 Atom       -0.217374      0.075896      0.141478
  140 Atom       -0.276027      0.131405      0.144623
  141 Atom       -0.282915      0.135767      0.147148
  142 Atom       -2.299870     -0.554773      2.854643
  143 Atom       -0.211058      0.097892      0.113166
  144 Atom       -0.291422      0.141015      0.150407
  145 Atom       -0.290566      0.140639      0.149926
  146 Atom       -0.294252      0.140715      0.153536
  147 Atom       -0.290645      0.141494      0.149151
  148 Atom       -0.292925      0.144903      0.148022
  149 Atom       -0.016144      0.003074      0.013071
  150 Atom       -0.293182      0.144647      0.148535
  151 Atom       -0.037477      0.006253      0.031224
  152 Atom       -0.281634      0.136982      0.144652
  153 Atom       -0.281608      0.137732      0.143876
  154 Atom       -0.032057     -0.001384      0.033441
  155 Atom       -0.275946      0.137070      0.138876
  156 Atom       -0.018116      0.003628      0.014487
  157 Atom       -0.293545      0.144540      0.149005
  158 Atom       -0.288389      0.141298      0.147092
  159 Atom       -0.290531      0.142381      0.148150
  160 Atom       -0.041733      0.011175      0.030559
  161 Atom       -0.290122      0.142216      0.147906
  162 Atom       -0.284877      0.139327      0.145550
  163 Atom       -0.289138      0.140817      0.148320
  164 Atom       -0.290280      0.143037      0.147243
  165 Atom       -0.291588      0.143470      0.148118
  166 Atom       -0.006571      0.000830      0.005740
  167 Atom       -0.288768      0.141225      0.147543
  168 Atom       -0.034032     -0.000557      0.034590
  169 Atom       -0.281670      0.140319      0.141351
  170 Atom       -0.037122      0.005964      0.031158
  171 Atom       -0.287262      0.139998      0.147264
  172 Atom       -0.293832      0.143266      0.150566
  173 Atom       -0.282956      0.137057      0.145900
  174 Atom       -0.031254     -0.009652      0.040906
  175 Atom       -0.289753      0.141941      0.147813
  176 Atom       -0.292452      0.142366      0.150086
  177 Atom       -0.289523      0.141413      0.148110
  178 Atom       -0.291499      0.143528      0.147971
  179 Atom       -0.292783      0.141475      0.151309
  180 Atom       -0.088635      0.026929      0.061706
  181 Atom       -0.288181      0.139809      0.148372
  182 Atom       -0.064911      0.002266      0.062645
  183 Atom       -0.284718      0.137410      0.147308
  184 Atom       -0.290209      0.140532      0.149677
  185 Atom       -0.404395      0.035885      0.368510
  186 Atom       -0.769893     -0.694223      1.464116
  187 Atom       -1.258774      0.387799      0.870975
  188 Atom       -0.312938      0.139037      0.173900
  189 Atom       -0.294763      0.143184      0.151579
  190 Atom       -0.294006      0.144090      0.149916
  191 Atom       -0.037893     -0.002510      0.040403
  192 Atom       -0.290860      0.141662      0.149198
  193 Atom       -0.036485     -0.003847      0.040332
  194 Atom       -0.283993      0.139030      0.144963
  195 Atom       -0.285968      0.139202      0.146766
  196 Atom       -0.196258      0.059412      0.136846
  197 Atom       -0.286796      0.137854      0.148942
  198 Atom       -0.285091      0.137082      0.148009
  199 Atom       -2.271127     -0.489997      2.761124
  200 Atom       -0.244296      0.091110      0.153185
  201 Atom       -0.294812      0.141673      0.153139
  202 Atom       -0.288695      0.138567      0.150128
  203 Atom       -0.270020      0.128420      0.141599
  204 Atom       -0.288583      0.143136      0.145447
  205 Atom       -0.281395      0.137145      0.144250
  206 Atom       -0.054089     -0.019623      0.073712
  207 Atom       -0.291899      0.142840      0.149059
  208 Atom       -0.040805      0.007961      0.032844
  209 Atom       -0.295483      0.146413      0.149070
  210 Atom       -0.294964      0.140846      0.154117
  211 Atom       -0.296820      0.146070      0.150750
  212 Atom       -0.292214      0.141116      0.151099
  213 Atom       -0.292674      0.143279      0.149395
  214 Atom       -0.032823      0.007800      0.025023
  215 Atom       -0.292042      0.143688      0.148353
  216 Atom       -0.041944      0.000854      0.041090
  217 Atom       -0.283705      0.140570      0.143136
  218 Atom       -0.285150      0.141168      0.143982
  219 Atom       -0.060653      0.000553      0.060100
  220 Atom       -0.127271     -0.083000      0.210271
  221 Atom       -0.310221      0.142744      0.167477
  222 Atom       -0.421291     -0.106636      0.527927
  223 Atom       -0.249403      0.099869      0.149533
  224 Atom       -0.145568     -0.082673      0.228241
  225 Atom       -0.254455      0.083697      0.170758
  226 Atom       -0.279583      0.131482      0.148101
  227 Atom       -0.206169      0.071316      0.134853
  228 Atom       -0.305434      0.142830      0.162604
  229 Atom       -0.192806      0.063286      0.129520
  230 Atom       -0.306217      0.142086      0.164131
  231 Atom       -0.210362      0.065565      0.144797
  232 Atom       -0.303940      0.143384      0.160556
  233 Atom       -0.192602      0.084451      0.108151
  234 Atom       -0.291758      0.142857      0.148901
  235 Atom       -0.561290      0.160353      0.400937
  236 Atom       -0.902499     -0.472260      1.374759
  237 Atom       -0.133600      0.010005      0.123595
  238 Atom       -0.572538      0.235810      0.336728
  239 Atom       -0.043421      0.017536      0.025885
  240 Atom       -0.047743      0.005619      0.042124
  241 Atom       -0.041145      0.003511      0.037634
  242 Atom       -0.123405      0.010951      0.112455
  243 Atom       -0.048260     -0.026485      0.074745
  244 Atom       -0.039986      0.009884      0.030102
  245 Atom       -0.052343      0.014150      0.038193
  246 Atom       -0.022267      0.006747      0.015520
  247 Atom       -0.025821      0.000499      0.025322
  248 Atom       -0.029536      0.001294      0.028242
  249 Atom       -0.022880     -0.002584      0.025465
  250 Atom       -0.082948      0.014568      0.068380
  251 Atom       -0.047116      0.001481      0.045635
  252 Atom       -0.320595      0.154025      0.166570
  253 Atom       -0.044691      0.015687      0.029004
  254 Atom       -1.608738     -0.154513      1.763251
  255 Atom       -0.292206      0.130137      0.162070
  256 Atom       -0.267921      0.132445      0.135477
  257 Atom       -0.280110      0.135888      0.144222
  258 Atom       -0.288978      0.140932      0.148046
  259 Atom       -0.277923      0.135461      0.142462
  260 Atom       -0.283814      0.138155      0.145659
  261 Atom       -0.289227      0.135354      0.153873
  262 Atom       -0.227929      0.109259      0.118670
  263 Atom       -0.280110      0.137178      0.142932
  264 Atom       -0.281257      0.137582      0.143675
  265 Atom       -0.273649      0.135451      0.138198
  266 Atom       -0.269280      0.134166      0.135114
  267 Atom       -0.266872      0.130341      0.136531
  268 Atom       -0.279101      0.136752      0.142350
  269 Atom       -0.281958      0.136173      0.145785
  270 Atom       -0.282208      0.139326      0.142883
  271 Atom       -0.288262      0.141023      0.147239
  272 Atom       -0.293374      0.143989      0.149385
  273 Atom       -0.286869      0.140548      0.146321
  274 Atom       -0.292481      0.144211      0.148270
  275 Atom       -0.290966      0.144690      0.146277
  276 Atom       -0.267762      0.127609      0.140154
  277 Atom       -0.294746      0.141347      0.153399
  278 Atom       -0.286069      0.136105      0.149963
  279 Atom       -0.294408      0.143102      0.151306
  280 Atom       -0.448368      0.196148      0.252220
 -----------------------------------------------------
 Unable to Open any file for archive entry.
 1\1\GINC-EXP-5-49\SP\RwB97XD\6-31G(d)\C96H171N2O9S2(1-)\HKLEM\16-Jul-2
 024\0\\# 6-31G(d) wb97xd prop=efg\\19nt_mm_min_distance_cutoff4_nowat\
 \-1,1\H,0,6.959571,4.066742,7.368779\C,-1,6.616195,3.872061,6.346151\H
 ,0,6.488514,4.834505,5.838558\C,0,7.601209,2.985976,5.580699\H,0,8.585
 531,3.46975,5.555499\H,0,7.731632,2.036846,6.114334\C,0,7.120918,2.723
 268,4.175823\C,0,7.384217,3.631452,3.148283\H,0,7.986025,4.513844,3.35
 6414\C,0,6.900947,3.432614,1.863206\H,0,7.122014,4.134468,1.065423\C,0
 ,6.136424,2.299212,1.58429\O,0,5.70795,2.120386,0.30393\H,0,5.157071,1
 .300977,0.228771\C,0,5.845333,1.386235,2.597615\H,0,5.260627,0.49868,2
 .383042\C,0,6.340379,1.607694,3.877952\H,0,6.115847,0.885746,4.660099\
 H,0,5.631444,3.395446,6.399525\H,0,1.773925,6.759865,4.599575\C,-1,1.1
 96557,6.143826,3.900893\H,0,1.136112,6.684087,2.948199\C,-1,1.854957,4
 .771927,3.699537\H,0,1.905167,4.277441,4.67983\C,0,1.020789,3.882549,2
 .772395\H,0,-0.006607,3.763722,3.136315\H,0,0.969864,4.314142,1.764199
 \H,0,1.466422,2.884811,2.683992\C,0,3.285122,4.907634,3.166801\H,0,3.7
 74482,3.930895,3.075605\H,0,3.902225,5.525775,3.828795\H,0,3.288007,5.
 37572,2.173534\H,0,0.179011,6.041955,4.295366\H,0,3.78086,-3.6006,-7.3
 71864\C,-1,3.093726,-3.675012,-6.520634\H,0,3.4457,-4.464157,-5.850352
 \C,0,3.000478,-2.3486,-5.755804\H,0,2.633132,-1.547591,-6.40494\H,0,4.
 003713,-2.064697,-5.409376\C,-1,2.082815,-2.446882,-4.51973\O,0,2.3692
 44,-3.369411,-3.697444\O,0,1.134792,-1.636416,-4.42356\H,0,2.11051,-3.
 973417,-6.902321\H,0,3.062613,6.866705,-5.431267\C,-1,2.171091,6.76307
 3,-4.804037\H,0,1.888816,5.705016,-4.804121\C,0,2.451704,7.243768,-3.3
 76143\H,0,2.704233,8.311913,-3.392808\H,0,1.540099,7.145081,-2.774269\
 C,0,3.572329,6.453101,-2.747157\C,0,4.903731,6.725748,-3.074689\H,-1,5
 .129839,7.571895,-3.721225\C,0,5.943352,5.931461,-2.613655\H,-1,6.9740
 07,6.137345,-2.884614\C,0,5.669162,4.829856,-1.799325\O,0,6.708087,4.0
 59433,-1.405721\H,0,6.370441,3.287459,-0.908586\C,0,4.348279,4.567185,
 -1.427415\H,0,4.1401,3.732923,-0.767421\C,0,3.318548,5.367437,-1.91027
 6\H,0,2.29184,5.131014,-1.635884\H,0,1.359764,7.336678,-5.269694\H,0,-
 1.672639,5.93417,-5.619222\C,-1,-2.47303,5.328186,-5.184675\H,0,-2.162
 416,4.281988,-5.156137\H,0,-3.35917,5.39778,-5.822536\C,0,-2.860327,5.
 753301,-3.76638\O,0,-3.530681,5.026492,-3.043909\N,-1,-2.448609,6.9967
 56,-3.382022\H,0,-1.864179,7.519713,-4.016411\C,-1,-2.758483,7.610468,
 -2.093035\H,0,-3.461472,6.940135,-1.594136\C,0,-1.517759,7.856328,-1.2
 3328\H,-1,-0.850695,8.555892,-1.758476\H,0,-1.843807,8.373854,-0.31945
 4\C,0,-0.718874,6.606512,-0.838017\H,0,-0.358078,6.12795,-1.760156\C,-
 1,0.495823,7.018144,-0.001919\H,0,1.115058,6.152629,0.256497\H,0,1.134
 642,7.732955,-0.533082\H,0,0.17262,7.487507,0.935919\C,0,-1.577592,5.5
 88405,-0.084256\H,-1,-2.056371,6.05345,0.787932\H,0,-2.357427,5.160625
 ,-0.723007\H,0,-0.960104,4.76203,0.284273\H,0,-3.278094,8.559889,-2.27
 0903\H,0,-7.110927,6.670318,1.689304\C,-1,-6.45687,5.928008,2.16116\H,
 0,-7.068201,5.063797,2.436078\C,0,-5.312336,5.512866,1.226068\H,0,-4.6
 69913,6.392378,1.070496\C,0,-4.463167,4.412641,1.867136\H,0,-4.058487,
 4.729593,2.835464\H,0,-5.070728,3.513645,2.036599\H,0,-3.62365,4.12505
 9,1.226142\C,0,-5.824841,5.068221,-0.147821\H,-1,-6.351129,4.107226,-0
 .067678\H,0,-6.527339,5.797313,-0.568452\H,0,-5.005219,4.946569,-0.865
 507\H,0,-6.06416,6.362164,3.088017\H,-1,0.324085,-4.525323,7.770864\C,
 -1,-0.699427,-4.427649,7.393338\H,0,-1.381242,-4.705966,8.203134\C,0,-
 0.992283,-3.00242,6.921243\H,0,-2.051933,-2.933189,6.642348\H,0,-0.863
 711,-2.312563,7.766689\C,0,-0.164807,-2.50108,5.75076\C,0,-0.503561,-1
 .284173,5.146982\H,0,-1.348226,-0.717236,5.535643\C,0,0.202008,-0.8011
 43,4.049921\H,0,-0.097288,0.136725,3.588332\C,0,1.270129,-1.531319,3.5
 3022\H,0,1.812937,-1.188885,2.654401\C,-1,1.626846,-2.734424,4.128721\
 H,-1,2.440845,-3.313071,3.704743\C,0,0.917442,-3.209813,5.230532\H,0,1
 .204122,-4.162491,5.666219\H,0,-0.829005,-5.147999,6.578166\H,0,-4.565
 397,-0.578608,4.882933\C,-1,-5.104064,-0.319285,3.96207\H,-1,-5.726629
 ,0.559508,4.16436\C,0,-4.113606,-0.062453,2.823607\H,0,-4.683694,0.236
 477,1.930146\C,0,-3.156133,1.081607,3.164454\H,0,-2.543693,0.822162,4.
 037481\H,0,-3.698582,2.005013,3.396578\H,0,-2.475447,1.290499,2.32991\
 C,0,-3.344379,-1.340015,2.500429\H,0,-2.797746,-1.691684,3.38255\H,-1,
 -2.608143,-1.185249,1.704976\H,0,-4.018851,-2.143905,2.181607\H,0,-5.7
 73978,-1.152857,3.722311\H,0,-10.842506,2.469673,1.814265\C,-1,-10.316
 654,3.224646,1.221766\H,0,-10.747336,4.203552,1.457308\C,0,-8.81639,3.
 218484,1.503581\H,0,-8.639997,3.442459,2.563584\H,-1,-8.349501,4.02872
 8,0.93328\C,0,-8.086868,1.925111,1.137897\H,0,-8.230873,1.679184,0.079
 418\H,0,-7.008938,2.054193,1.29858\S,0,-8.656935,0.533222,2.171655\C,0
 ,-7.734909,-0.816916,1.392853\H,0,-8.029217,-0.94161,0.347203\H,0,-6.6
 55764,-0.648165,1.447686\H,0,-7.970332,-1.732236,1.94059\H,-1,-10.5136
 69,3.012792,0.164627\H,0,-8.167271,-4.035902,1.689175\C,-1,-7.273453,-
 4.656725,1.815918\H,0,-7.583299,-5.699347,1.690545\C,0,-6.184539,-4.26
 4307,0.81597\H,-1,-5.967576,-3.191612,0.922454\H,0,-6.562131,-4.395381
 ,-0.208485\C,0,-4.865467,-5.04176,0.954714\H,0,-4.484621,-4.882686,1.9
 75649\C,0,-5.055134,-6.547023,0.750353\H,0,-5.742485,-6.98396,1.482708
 \H,0,-5.452068,-6.751215,-0.252982\H,0,-4.098638,-7.072719,0.841745\C,
 -1,-3.833879,-4.497769,-0.032755\H,-1,-3.632415,-3.436512,0.149348\H,0
 ,-4.186358,-4.598871,-1.065587\H,0,-2.879005,-5.030632,0.027945\H,0,-6
 .921104,-4.534175,2.84741\H,0,-1.765115,-6.736118,3.290609\C,-1,-1.215
 159,-6.498631,2.371335\H,0,-1.939093,-6.470264,1.547438\C,0,-0.483101,
 -5.1629,2.486254\H,0,0.243205,-5.239301,3.307336\C,0,0.284427,-4.84640
 8,1.203792\H,0,0.877881,-3.931245,1.309401\H,-1,0.972792,-5.65769,0.94
 4495\H,0,-0.402702,-4.719628,0.356805\C,0,-1.456537,-4.0381,2.824169\H
 ,-1,-0.933742,-3.081702,2.905473\H,0,-1.975156,-4.221254,3.773905\H,0,
 -2.214644,-3.940656,2.039044\H,0,-0.518751,-7.321456,2.169311\H,0,4.24
 3305,-5.596175,2.494732\C,-1,5.261757,-5.51485,2.105404\H,0,5.233895,-
 5.744236,1.036343\C,0,5.812228,-4.109724,2.329855\H,0,5.925741,-3.9073
 74,3.403666\H,0,6.798891,-3.988791,1.875564\C,0,4.893754,-3.042175,1.7
 79618\O,0,3.68117,-3.122531,1.771351\O,0,5.551178,-1.977432,1.330613\H
 ,0,4.89956,-1.352104,0.921038\H,0,5.891385,-6.258473,2.604022\H,0,10.6
 88754,-2.952239,-2.887446\C,-1,9.918224,-3.332228,-2.207885\H,0,10.423
 082,-3.811773,-1.360175\C,-1,8.999925,-2.21078,-1.727272\H,0,9.591351,
 -1.451728,-1.197322\H,0,8.545596,-1.703624,-2.587222\C,0,7.900934,-2.7
 01291,-0.783754\H,0,8.344758,-3.312811,0.011557\H,0,7.392908,-1.868956
 ,-0.288921\S,0,6.625497,-3.751426,-1.555174\C,0,5.554058,-2.47869,-2.2
 85818\H,0,6.08317,-1.910838,-3.056569\H,0,5.195376,-1.795847,-1.509506
 \H,0,4.687679,-2.969607,-2.742632\H,0,9.344559,-4.100172,-2.736857\H,0
 ,3.68208,-5.155638,-2.987404\C,-1,3.699667,-5.725428,-2.05429\H,-1,4.7
 24867,-6.057837,-1.853849\C,0,3.164476,-4.869521,-0.913578\H,0,3.06177
 4,-5.434265,0.018423\H,0,2.190372,-4.441391,-1.164837\H,0,3.836064,-4.
 03273,-0.708246\H,0,3.087307,-6.623316,-2.20706\H,0,-0.694034,-9.11164
 5,-2.59259\C,-1,-1.723018,-8.89017,-2.290336\H,0,-2.109654,-9.745179,-
 1.722413\C,0,-1.770961,-7.597761,-1.46155\H,0,-2.802921,-7.422447,-1.1
 28556\H,0,-1.176197,-7.732637,-0.548857\C,0,-1.275873,-6.394199,-2.207
 233\C,0,0.011896,-5.919189,-2.23837\H,0,0.880687,-6.289365,-1.711653\N
 ,-1,0.11648,-4.827574,-3.055214\H,0,0.978221,-4.274194,-3.242495\C,0,-
 1.121122,-4.561529,-3.577806\C,0,-1.526975,-3.526068,-4.429798\H,0,-0.
 808595,-2.78056,-4.764067\C,0,-2.864854,-3.485232,-4.783008\H,0,-3.217
 364,-2.693489,-5.4395\C,0,-3.78332,-4.445263,-4.307285\H,0,-4.826034,-
 4.378313,-4.607593\C,0,-3.375721,-5.464314,-3.463939\H,0,-4.090071,-6.
 199643,-3.098295\C,0,-2.026968,-5.531628,-3.075888\H,0,-2.319819,-8.78
 3883,-3.202864\C,0,2.920009,0.117625,-0.124859\O,0,4.117054,-0.03365,0
 .206074\C,0,2.045871,-0.990801,-0.364004\C,0,0.797908,-0.820089,-0.878
 802\C,-1,0.17473,0.549981,-1.046143\C,0,0.899919,1.606318,-0.209447\C,
 0,2.410119,1.515251,-0.354563\C,0,0.042885,-1.981849,-1.424072\C,0,-1.
 468147,-1.931111,-1.192255\C,0,-2.045142,-0.569037,-1.580092\C,0,-1.34
 1424,0.5236,-0.744444\C,0,-3.553324,-0.475579,-1.372544\C,0,-4.134727,
 0.918936,-1.685301\C,0,-3.486846,1.93861,-0.752076\C,0,-1.9613,1.92475
 2,-0.890948\C,0,-4.482195,-1.426934,-2.137662\C,0,-5.875237,-0.754249,
 -2.016743\C,0,-5.623766,0.640639,-1.405427\C,-1,-3.950917,1.344478,-3.
 152721\O,0,-6.542868,1.582432,-1.932722\H,0,2.461167,-1.986488,-0.2377
 68\H,0,0.291844,0.79337,-2.11656\H,0,0.625641,1.467778,0.845858\H,0,0.
 573961,2.611601,-0.491951\H,0,2.71536,1.805513,-1.370664\H,0,2.922484,
 2.190291,0.338986\H,0,0.468859,-2.917568,-1.054799\H,0,0.262819,-1.955
 86,-2.512002\H,0,-1.688359,-2.133257,-0.133732\H,-1,-1.93919,-2.729493
 ,-1.773742\H,0,-1.817293,-0.407465,-2.644197\H,0,-1.456847,0.229947,0.
 313536\H,0,-3.733599,-0.64543,-0.296007\H,0,-3.758286,1.697687,0.28641
 \H,0,-3.853477,2.953284,-0.954757\H,0,-1.677187,2.357465,-1.860058\H,0
 ,-1.544323,2.588668,-0.126349\H,0,-4.470229,-2.440942,-1.735927\H,0,-4
 .164963,-1.508517,-3.182194\H,0,-6.556909,-1.341962,-1.39391\H,0,-6.35
 8118,-0.628713,-2.990747\H,0,-5.751088,0.58925,-0.309938\H,0,-4.531098
 ,0.71863,-3.836423\H,0,-4.273191,2.381612,-3.291629\H,-1,-2.904108,1.2
 8745,-3.463469\H,0,-6.225707,2.46157,-1.687774\\Version=ES64L-G16RevC.
 01\State=1-A\HF=-5343.1172163\RMSD=4.214e-09\Dipole=-1.6650565,5.72891
 83,3.475015\Quadrupole=-43.953244,23.8832723,20.0699717,-6.9450348,20.
 2053772,-49.1016757\PG=C01 [X(C96H171N2O9S2)]\\@
 The archive entry for this job was punched.


 I FIND THAT THE THREE TRULY GREAT TIMES FOR THINKING THOUGHTS
 ARE WHEN I AM STANDING IN THE SHOWER, SITTING ON THE JOHN, OR WALKING.

                                    -- COLIN FLETCHER
 Job cpu time:       0 days  4 hours  3 minutes 13.0 seconds.
 Elapsed time:       0 days  0 hours  7 minutes 53.9 seconds.
 File lengths (MBytes):  RWF=   2117 Int=      0 D2E=      0 Chk=    228 Scr=      1
 Normal termination of Gaussian 16 at Tue Jul 16 07:26:04 2024.
