 Entering Gaussian System, Link 0=g16
 Initial command:
 /cm/shared/apps/spack/cpu/opt/spack/linux-centos8-zen/gcc-8.3.1/gaussian-16.C.01-po5bqktfeugvmjyga3v7eigbecnokxng/g16/l1.exe "/scratch/hklem/job_32846260/Gau-1438544.inp" -scrdir="/scratch/hklem/job_32846260/"
 Entering Link 1 = /cm/shared/apps/spack/cpu/opt/spack/linux-centos8-zen/gcc-8.3.1/gaussian-16.C.01-po5bqktfeugvmjyga3v7eigbecnokxng/g16/l1.exe PID=   1438545.
  
 Copyright (c) 1988-2019, Gaussian, Inc.  All Rights Reserved.
  
 This is part of the Gaussian(R) 16 program.  It is based on
 the Gaussian(R) 09 system (copyright 2009, Gaussian, Inc.),
 the Gaussian(R) 03 system (copyright 2003, Gaussian, Inc.),
 the Gaussian(R) 98 system (copyright 1998, Gaussian, Inc.),
 the Gaussian(R) 94 system (copyright 1995, Gaussian, Inc.),
 the Gaussian 92(TM) system (copyright 1992, Gaussian, Inc.),
 the Gaussian 90(TM) system (copyright 1990, Gaussian, Inc.),
 the Gaussian 88(TM) system (copyright 1988, Gaussian, Inc.),
 the Gaussian 86(TM) system (copyright 1986, Carnegie Mellon
 University), and the Gaussian 82(TM) system (copyright 1983,
 Carnegie Mellon University). Gaussian is a federally registered
 trademark of Gaussian, Inc.
  
 This software contains proprietary and confidential information,
 including trade secrets, belonging to Gaussian, Inc.
  
 This software is provided under written license and may be
 used, copied, transmitted, or stored only in accord with that
 written license.
  
 The following legend is applicable only to US Government
 contracts under FAR:
  
                    RESTRICTED RIGHTS LEGEND
  
 Use, reproduction and disclosure by the US Government is
 subject to restrictions as set forth in subparagraphs (a)
 and (c) of the Commercial Computer Software - Restricted
 Rights clause in FAR 52.227-19.
  
 Gaussian, Inc.
 340 Quinnipiac St., Bldg. 40, Wallingford CT 06492
  
  
 ---------------------------------------------------------------
 Warning -- This program may not be used in any manner that
 competes with the business of Gaussian, Inc. or will provide
 assistance to any competitor of Gaussian, Inc.  The licensee
 of this program is prohibited from giving any competitor of
 Gaussian, Inc. access to this program.  By using this program,
 the user acknowledges that Gaussian, Inc. is engaged in the
 business of creating and licensing software in the field of
 computational chemistry and represents and warrants to the
 licensee that it is not a competitor of Gaussian, Inc. and that
 it will not use this program in any manner prohibited above.
 ---------------------------------------------------------------
  

 Cite this work as:
 Gaussian 16, Revision C.01,
 M. J. Frisch, G. W. Trucks, H. B. Schlegel, G. E. Scuseria, 
 M. A. Robb, J. R. Cheeseman, G. Scalmani, V. Barone, 
 G. A. Petersson, H. Nakatsuji, X. Li, M. Caricato, A. V. Marenich, 
 J. Bloino, B. G. Janesko, R. Gomperts, B. Mennucci, H. P. Hratchian, 
 J. V. Ortiz, A. F. Izmaylov, J. L. Sonnenberg, D. Williams-Young, 
 F. Ding, F. Lipparini, F. Egidi, J. Goings, B. Peng, A. Petrone, 
 T. Henderson, D. Ranasinghe, V. G. Zakrzewski, J. Gao, N. Rega, 
 G. Zheng, W. Liang, M. Hada, M. Ehara, K. Toyota, R. Fukuda, 
 J. Hasegawa, M. Ishida, T. Nakajima, Y. Honda, O. Kitao, H. Nakai, 
 T. Vreven, K. Throssell, J. A. Montgomery, Jr., J. E. Peralta, 
 F. Ogliaro, M. J. Bearpark, J. J. Heyd, E. N. Brothers, K. N. Kudin, 
 V. N. Staroverov, T. A. Keith, R. Kobayashi, J. Normand, 
 K. Raghavachari, A. P. Rendell, J. C. Burant, S. S. Iyengar, 
 J. Tomasi, M. Cossi, J. M. Millam, M. Klene, C. Adamo, R. Cammi, 
 J. W. Ochterski, R. L. Martin, K. Morokuma, O. Farkas, 
 J. B. Foresman, and D. J. Fox, Gaussian, Inc., Wallingford CT, 2019.
 
 ******************************************
 Gaussian 16:  ES64L-G16RevC.01  3-Jul-2019
                 7-Aug-2024 
 ******************************************
 %nprocshared=12
 Will use up to   12 processors via shared memory.
 %mem=24GB
 ------------------------
 # 6-31G* wB97XD prop=efg
 ------------------------
 1/38=1,172=1/1;
 2/12=2,17=6,18=5,40=1/2;
 3/5=1,6=6,7=1,11=2,25=1,30=1,74=-58/1,2,3;
 4//1;
 5/5=2,38=5/2;
 6/7=2,8=2,9=2,10=2,14=1,28=1/1,2;
 99/5=1,9=1/99;
 ---------------------------------------------------
 19nt_mm_min_distance_cutoff4_from_cutoff6_nowat_efg
 ---------------------------------------------------
 Symbolic Z-matrix:
 Charge = -1 Multiplicity = 1
 H                    -8.562    -7.359    -3.047 
 C                    -8.127    -6.359    -2.919 
 H                    -8.353    -5.775    -3.815 
 C                    -8.738    -5.68     -1.68 
 H                    -9.823    -5.623    -1.818 
 H                    -8.574    -6.298    -0.788 
 C                    -8.165    -4.304    -1.456 
 C                    -8.703    -3.178    -2.083 
 H                    -9.595    -3.279    -2.697 
 C                    -8.128    -1.923    -1.927 
 H                    -8.555    -1.046    -2.403 
 C                    -6.984    -1.787    -1.145 
 O                    -6.412    -0.558    -1.026 
 H                    -5.793    -0.543    -0.242 
 C                    -6.43     -2.895    -0.507 
 H                    -5.547    -2.784     0.115 
 C                    -7.029    -4.137    -0.665 
 H                    -6.595    -4.998    -0.166 
 H                    -7.041    -6.444    -2.893 
 H                    -3.414    -4.86     -5.235 
 C                    -2.51     -4.267    -5.06 
 H                    -2.691    -3.257    -5.448 
 C                    -2.18     -4.214    -3.562 
 H                    -2.022    -5.246    -3.216 
 C                    -0.897    -3.422    -3.307 
 H                    -0.038    -3.849    -3.838 
 H                    -1.017    -2.39     -3.651 
 H                    -0.652    -3.385    -2.239 
 C                    -3.342    -3.63     -2.754 
 H                    -3.092    -3.583    -1.686 
 H                    -4.25     -4.23     -2.87 
 H                    -3.574    -2.609    -3.089 
 H                    -1.684    -4.705    -5.634 
 H                    -4.991     7.303     4.483 
 C                    -4.207     6.543     4.368 
 H                    -4.261     5.882     5.236 
 C                    -4.448     5.745     3.087 
 H                    -4.397     6.419     2.224 
 H                    -5.457     5.315     3.091 
 C                    -3.432     4.608     2.865 
 O                    -2.474     4.547     3.691 
 O                    -3.62      3.839     1.896 
 H                    -3.258     7.078     4.321 
 H                    -3.417     5.426    -5.706 
 C                    -3.006     4.453    -5.973 
 H                    -2.472     4.016    -5.118 
 C                    -4.098     3.491    -6.45 
 H                    -4.702     3.987    -7.219 
 H                    -3.599     2.644    -6.937 
 C                    -4.963     2.986    -5.321 
 C                    -6.181     3.585    -4.995 
 H                    -6.568     4.39     -5.617 
 C                    -6.918     3.175    -3.889 
 H                    -7.861     3.648    -3.635 
 C                    -6.44      2.136    -3.093 
 O                    -7.165     1.77     -2.006 
 H                    -6.86      0.906    -1.639 
 C                    -5.247     1.493    -3.427 
 H                    -4.903     0.654    -2.83 
 C                    -4.521     1.927    -4.526 
 H                    -3.585     1.428    -4.77 
 H                    -2.27      4.623    -6.766 
 H                     1.206     5.295    -5.158 
 C                     1.598     4.64     -4.379 
 H                     0.823     4.527    -3.617 
 H                     2.474     5.091    -3.905 
 C                     2.039     3.236    -4.814 
 O                     2.806     2.596    -4.107 
 N                     1.5       2.766    -5.965 
 H                     0.877     3.389    -6.461 
 C                     1.802     1.467    -6.557 
 H                     2.548     0.998    -5.91 
 C                     0.544     0.598    -6.664 
 H                    -0.123     1.042    -7.418 
 H                     0.847    -0.376    -7.064 
 C                    -0.229     0.419    -5.353 
 H                    -0.545     1.414    -5.005 
 C                    -1.489    -0.411    -5.609 
 H                    -2.086    -0.521    -4.696 
 H                    -2.125     0.047    -6.376 
 H                    -1.227    -1.419    -5.954 
 C                     0.635    -0.207    -4.258 
 H                     1.056    -1.164    -4.591 
 H                     1.459     0.451    -3.963 
 H                     0.038    -0.405    -3.362 
 H                     2.241     1.577    -7.549 
 H                     5.578    -2.632    -5.604 
 C                     5.211    -2.915    -4.613 
 H                     6.036    -2.864    -3.894 
 C                     4.089    -1.944    -4.181 
 H                     3.251    -2.075    -4.879 
 C                     3.597    -2.217    -2.756 
 H                     3.149    -3.21     -2.649 
 H                     4.427    -2.156    -2.041 
 H                     2.846    -1.474    -2.465 
 C                     4.597    -0.506    -4.31 
 H                     5.447    -0.335    -3.638 
 H                     4.927    -0.287    -5.332 
 H                     3.822     0.221    -4.045 
 H                     4.876    -3.949    -4.697 
 H                    -1.934    -7.253     6.418 
 C                    -1.175    -7.516     5.673 
 H                    -0.894    -8.563     5.828 
 C                    -1.705    -7.295     4.248 
 H                    -0.937    -7.599     3.526 
 H                    -2.567    -7.955     4.081 
 C                    -2.116    -5.865     3.971 
 C                    -1.378    -5.046     3.113 
 H                    -0.486    -5.444     2.631 
 C                    -1.771    -3.732     2.858 
 H                    -1.191    -3.111     2.181 
 C                    -2.901    -3.21      3.476 
 H                    -3.218    -2.188     3.298 
 C                    -3.63     -4.007     4.356 
 H                    -4.483    -3.578     4.873 
 C                    -3.249    -5.324     4.588 
 H                    -3.837    -5.945     5.261 
 H                    -0.296    -6.891     5.859 
 H                     3.2      -4.544     2.664 
 C                     3.546    -4.446     1.631 
 H                     3.263    -5.343     1.071 
 C                     2.906    -3.208     0.968 
 H                     3.421    -3.039     0.013 
 C                     1.432    -3.472     0.669 
 H                     0.888    -3.696     1.595 
 H                     1.323    -4.321    -0.012 
 H                     0.961    -2.597     0.203 
 C                     3.062    -1.958     1.833 
 H                     2.534    -2.081     2.788 
 H                     2.643    -1.081     1.329 
 H                     4.109    -1.744     2.057 
 H                     4.632    -4.365     1.662 
 H                     8.708    -2.785    -1.017 
 C                     9.017    -2.09     -1.798 
 H                     9.171    -2.644    -2.735 
 C                     7.945    -1.01     -2.058 
 H                     7.061    -1.52     -2.444 
 H                     8.292    -0.368    -2.878 
 C                     7.539    -0.144    -0.854 
 H                     8.398     0.085    -0.214 
 H                     7.144     0.816    -1.202 
 S                     6.235    -0.901     0.191 
 C                     7.112    -1.151     1.756 
 H                     8.089    -1.601     1.564 
 H                     7.24     -0.209     2.297 
 H                     6.523    -1.852     2.354 
 H                     9.997    -1.698    -1.524 
 H                     6.289    -2.955     5.384 
 C                     5.669    -2.278     5.98 
 H                     6.296    -1.836     6.763 
 C                     5.023    -1.227     5.085 
 H                     4.537    -1.747     4.253 
 H                     5.803    -0.595     4.633 
 C                     4.       -0.318     5.779 
 H                     3.194    -0.956     6.174 
 C                     4.608     0.454     6.952 
 H                     4.966    -0.215     7.744 
 H                     5.458     1.062     6.614 
 H                     3.87      1.132     7.393 
 C                     3.385     0.648     4.766 
 H                     2.936     0.104     3.928 
 H                     4.159     1.308     4.353 
 H                     2.612     1.279     5.218 
 H                     4.903    -2.885     6.478 
 H                     0.457    -3.01      7.405 
 C                    -0.472    -2.464     7.612 
 H                    -0.208    -1.571     8.192 
 C                    -1.191    -2.084     6.316 
 H                    -1.415    -3.013     5.776 
 C                    -2.516    -1.383     6.619 
 H                    -3.069    -1.14      5.707 
 H                    -3.165    -2.015     7.238 
 H                    -2.338    -0.449     7.169 
 C                    -0.309    -1.218     5.411 
 H                    -0.812    -1.024     4.455 
 H                     0.646    -1.711     5.192 
 H                    -0.091    -0.248     5.876 
 H                    -1.104    -3.1       8.242 
 H                    -6.704    -2.942     6.102 
 C                    -6.887    -1.899     6.381 
 H                    -5.955    -1.492     6.782 
 C                    -7.347    -1.089     5.175 
 H                    -8.247    -1.512     4.716 
 H                    -7.59     -0.057     5.458 
 C                    -6.266    -0.99      4.129 
 O                    -5.078    -1.085     4.372 
 O                    -6.738    -0.783     2.908 
 H                    -5.961    -0.669     2.301 
 H                    -7.645    -1.887     7.17 
 H                    -12.175    3.103     3.721 
 C                    -11.231    2.576     3.901 
 H                    -11.45     1.687     4.505 
 C                    -10.556    2.186     2.584 
 H                    -11.229    1.534     2.009 
 H                    -10.381    3.072     1.965 
 C                    -9.229     1.447     2.764 
 H                    -9.35      0.611     3.463 
 H                    -8.907     1.019     1.811 
 S                    -7.844     2.477     3.38 
 C                    -6.857     2.62      1.859 
 H                    -7.4       3.189     1.101 
 H                    -6.622     1.622     1.476 
 H                    -5.911     3.125     2.086 
 H                    -10.583    3.235     4.49 
 H                    -5.904     2.942     6.48 
 C                    -5.118     2.181     6.526 
 H                    -5.587     1.232     6.813 
 C                    -4.403     2.054     5.183 
 H                    -3.652     1.256     5.209 
 H                    -3.903     2.985     4.905 
 H                    -5.109     1.809     4.385 
 H                    -4.424     2.465     7.327 
 H                    -0.803     2.67      10.019 
 C                     0.194     2.238     9.881 
 H                     0.409     1.581     10.731 
 C                     0.265     1.475     8.552 
 H                     1.251     1.001     8.454 
 H                    -0.466     0.657     8.569 
 C                    -0.003     2.347     7.363 
 C                    -1.186     2.45      6.675 
 H                    -2.109     1.907     6.826 
 N                    -1.092     3.389     5.684 
 H                    -1.788     3.658     4.976 
 C                     0.17      3.911     5.698 
 C                     0.735     4.874     4.854 
 H                     0.142     5.309     4.055 
 C                     2.052     5.228     5.093 
 H                     2.53      5.968     4.457 
 C                     2.79      4.636     6.14 
 H                     3.822     4.938     6.296 
 C                     2.224     3.68      6.966 
 H                     2.804     3.235     7.771 
 C                     0.891     3.292     6.748 
 H                     0.916     3.063     9.894 
 C                    -3.721    -0.056     0.898 
 O                    -4.878    -0.514     1.049 
 C                    -2.91      0.343     2.001 
 C                    -1.727     0.989     1.806 
 C                    -1.1       1.117     0.435 
 C                    -1.698     0.123    -0.56 
 C                    -3.214     0.145    -0.503 
 C                    -1.071     1.701     2.938 
 C                     0.458     1.745     2.888 
 C                     0.964     2.101     1.489 
 C                     0.439     1.026     0.512 
 C                     2.481     2.2       1.408 
 C                     3.006     2.408    -0.026 
 C                     2.598     1.206    -0.877 
 C                     1.075     1.044    -0.889 
 C                     3.201     3.29      2.214 
 C                     4.597     3.386     1.537 
 C                     4.514     2.508     0.27 
 C                     2.518     3.714    -0.678 
 O                     5.306     3.055    -0.775 
 H                    -3.349     0.26      2.991 
 H                    -1.355     2.139     0.102 
 H                    -1.333    -0.888    -0.328 
 H                    -1.37      0.357    -1.576 
 H                    -3.588     1.127    -0.83 
 H                    -3.661    -0.613    -1.156 
 H                    -1.422     1.295     3.891 
 H                    -1.48      2.728     2.889 
 H                     0.869     0.768     3.176 
 H                     0.816     2.466     3.626 
 H                     0.531     3.074     1.212 
 H                     0.689     0.049     0.961 
 H                     2.886     1.23      1.743 
 H                     3.064     0.3      -0.464 
 H                     2.951     1.31     -1.911 
 H                     0.626     1.845    -1.493 
 H                     0.831     0.107    -1.4 
 H                     3.258     3.059     3.28 
 H                     2.657     4.238     2.135 
 H                     5.398     3.042     2.199 
 H                     4.841     4.412     1.245 
 H                     4.875     1.497     0.504 
 H                     2.895     4.599    -0.158 
 H                     2.872     3.76     -1.713 
 H                     1.426     3.782    -0.695 
 H                     5.045     2.609    -1.591 
 
 Stoichiometry    C96H171N2O9S2(1-)
 Framework group  C1[X(C96H171N2O9S2)]
 Deg. of freedom   834
 Full point group                 C1      NOp   1
 Largest Abelian subgroup         C1      NOp   1
 Largest concise Abelian subgroup C1      NOp   1
                         Standard orientation:                         
 ---------------------------------------------------------------------
 Center     Atomic      Atomic             Coordinates (Angstroms)
 Number     Number       Type             X           Y           Z
 ---------------------------------------------------------------------
      1          1           0        7.210507    5.202514    6.967557
      2          6           0        6.759665    4.969629    5.993845
      3          1           0        6.888002    5.840117    5.345209
      4          6           0        7.458361    3.745071    5.375975
      5          1           0        8.524672    3.972502    5.272182
      6          1           0        7.392387    2.886248    6.056088
      7          6           0        6.867706    3.379260    4.038368
      8          6           0        7.314802    3.972644    2.855808
      9          1           0        8.151243    4.667162    2.885352
     10          6           0        6.719635    3.682463    1.634515
     11          1           0        7.076896    4.133049    0.713987
     12          6           0        5.646216    2.796727    1.589820
     13          8           0        5.051504    2.545347    0.391942
     14          1           0        4.504485    1.711393    0.449677
     15          6           0        5.183644    2.189798    2.755706
     16          1           0        4.356583    1.487431    2.716395
     17          6           0        5.802149    2.483166    3.963065
     18          1           0        5.439498    2.008027    4.869379
     19          1           0        5.683216    4.855332    6.118305
     20          1           0        1.817764    6.760781    4.513098
     21          6           0        0.916013    6.468133    3.964743
     22          1           0        1.032302    6.800876    2.925915
     23          6           0        0.719098    4.947022    4.020947
     24          1           0        0.622615    4.659513    5.078176
     25          6           0       -0.558674    4.528460    3.292605
     26          1           0       -1.448677    5.010695    3.713930
     27          1           0       -0.499846    4.810684    2.236836
     28          1           0       -0.708725    3.443192    3.333800
     29          6           0        1.930826    4.205100    3.450481
     30          1           0        1.775506    3.118719    3.481878
     31          1           0        2.842009    4.439930    4.009517
     32          1           0        2.102283    4.488844    2.402348
     33          1           0        0.055363    6.996717    4.393084
     34          1           0        3.897531   -3.587322   -7.039233
     35          6           0        3.128885   -3.489429   -6.261364
     36          1           0        3.279073   -4.302562   -5.547559
     37          6           0        3.278184   -2.141118   -5.557365
     38          1           0        3.131048   -1.333576   -6.283914
     39          1           0        4.295640   -2.028340   -5.163586
     40          6           0        2.280024   -1.931400   -4.402374
     41          8           0        1.401439   -2.831350   -4.254251
     42          8           0        2.403450   -0.899758   -3.705132
     43          1           0        2.164284   -3.561394   -6.764754
     44          1           0        1.479245    6.530548   -5.775539
     45          6           0        1.074653    6.826347   -4.808198
     46          1           0        0.631740    5.959901   -4.298052
     47          6           0        2.147478    7.460531   -3.918089
     48          1           0        2.666011    8.243567   -4.483925
     49          1           0        1.632042    7.958797   -3.087646
     50          6           0        3.123770    6.447759   -3.371246
     51          6           0        4.347962    6.188742   -3.990006
     52          1           0        4.654516    6.785858   -4.846835
     53          6           0        5.192004    5.181272   -3.534921
     54          1           0        6.139671    4.978514   -4.023090
     55          6           0        4.817136    4.419213   -2.430221
     56          8           0        5.646259    3.426597   -2.019833
     57          1           0        5.400393    3.094051   -1.123633
     58          6           0        3.618404    4.691339   -1.768977
     59          1           0        3.353430    4.125111   -0.881373
     60          6           0        2.785238    5.691176   -2.247925
     61          1           0        1.846186    5.886369   -1.733421
     62          1           0        0.266426    7.539111   -5.003600
     63          1           0       -3.070942    5.593658   -5.447461
     64          6           0       -3.372884    4.829877   -4.729827
     65          1           0       -2.530245    4.147436   -4.594652
     66          1           0       -4.216038    4.252123   -5.118087
     67          6           0       -3.809726    5.319323   -3.342551
     68          8           0       -4.491862    4.593547   -2.631442
     69          7           0       -3.361730    6.542004   -2.967621
     70          1           0       -2.803708    7.046726   -3.643004
     71          6           0       -3.677198    7.192424   -1.700142
     72          1           0       -4.348742    6.516490   -1.164205
     73          6           0       -2.408915    7.466948   -0.884502
     74          1           0       -1.824809    8.244074   -1.399708
     75          1           0       -2.717776    7.904376    0.071399
     76          6           0       -1.517535    6.243160   -0.647701
     77          1           0       -1.200966    5.857117   -1.628384
     78          6           0       -0.261643    6.663301    0.119277
     79          1           0        0.417114    5.815132    0.267518
     80          1           0        0.290034    7.449707   -0.409653
     81          1           0       -0.523804    7.051931    1.111230
     82          6           0       -2.262157    5.122379    0.078098
     83          1           0       -2.683039    5.481822    1.025536
     84          1           0       -3.075483    4.712988   -0.530067
     85          1           0       -1.582348    4.297083    0.312992
     86          1           0       -4.205672    8.132821   -1.859054
     87          1           0       -7.232505    6.195999    2.581811
     88          6           0       -6.770765    5.262098    2.915704
     89          1           0       -7.529708    4.472430    2.940514
     90          6           0       -5.643563    4.864131    1.936220
     91          1           0       -4.867480    5.639489    1.992103
     92          6           0       -5.019077    3.509040    2.284018
     93          1           0       -4.534603    3.509008    3.265591
     94          1           0       -5.783646    2.722234    2.298770
     95          1           0       -4.267143    3.234510    1.535714
     96          6           0       -6.202693    4.850599    0.511531
     97          1           0       -6.994201    4.097325    0.414484
     98          1           0       -6.628487    5.822868    0.238150
     99          1           0       -5.428710    4.605079   -0.223349
    100          1           0       -6.414582    5.444883    3.929686
    101          1           0        1.449989   -4.787142    7.709889
    102          6           0        0.635744   -4.094672    7.950232
    103          1           0        0.400256   -4.201997    9.014291
    104          6           0        1.030290   -2.647373    7.618531
    105          1           0        0.210323   -1.975759    7.901575
    106          1           0        1.892887   -2.361769    8.235694
    107          6           0        1.373204   -2.433524    6.160029
    108          6           0        0.538302   -1.700409    5.313241
    109          1           0       -0.381045   -1.271708    5.709989
    110          6           0        0.868631   -1.502110    3.972484
    111          1           0        0.212895   -0.921735    3.329408
    112          6           0        2.033413   -2.053754    3.452600
    113          1           0        2.303426   -1.918747    2.410716
    114          6           0        2.860669   -2.811010    4.279195
    115          1           0        3.743396   -3.279987    3.855175
    116          6           0        2.540331   -2.985205    5.621027
    117          1           0        3.203676   -3.560909    6.263563
    118          1           0       -0.241070   -4.398257    7.369806
    119          1           0       -4.074161   -1.685459    4.943576
    120          6           0       -4.513338   -0.695427    4.790708
    121          1           0       -4.255237   -0.053357    5.638899
    122          6           0       -3.971153   -0.065018    3.490541
    123          1           0       -4.573723    0.828003    3.277858
    124          6           0       -2.522511    0.377987    3.682779
    125          1           0       -1.892044   -0.479959    3.947409
    126          1           0       -2.449803    1.121962    4.481314
    127          1           0       -2.120496    0.822586    2.763357
    128          6           0       -4.085977   -1.023187    2.305725
    129          1           0       -3.471804   -1.918204    2.472079
    130          1           0       -3.739171   -0.545466    1.383654
    131          1           0       -5.114704   -1.351203    2.143527
    132          1           0       -5.594178   -0.825969    4.749948
    133          1           0       -9.936506    1.375742    3.142503
    134          6           0      -10.333832    2.077971    2.409377
    135          1           0      -10.554324    3.033530    2.906257
    136          6           0       -9.321110    2.356048    1.277896
    137          1           0       -8.460449    2.851039    1.730442
    138          1           0       -9.758193    3.097342    0.596416
    139          6           0       -8.835074    1.135788    0.478431
    140          1           0       -9.640077    0.409599    0.321775
    141          1           0       -8.500711    1.450739   -0.515418
    142         16           0       -7.421835    0.261711    1.255757
    143          6           0       -8.148567   -1.352873    1.637633
    144          1           0       -9.125244   -1.216250    2.108091
    145          1           0       -8.255348   -1.965666    0.737904
    146          1           0       -7.488565   -1.848514    2.355033
    147          1           0      -11.296592    1.693983    2.070576
    148          1           0       -6.954074   -4.764844    3.644066
    149          6           0       -6.303526   -5.349401    2.986019
    150          1           0       -6.871038   -6.212057    2.618136
    151          6           0       -5.770547   -4.475184    1.857029
    152          1           0       -5.345501   -3.570763    2.304443
    153          1           0       -6.605721   -4.136540    1.224628
    154          6           0       -4.716812   -5.137934    0.959895
    155          1           0       -3.860644   -5.417262    1.593660
    156          6           0       -5.240346   -6.408980    0.287636
    157          1           0       -5.506874   -7.181781    1.018889
    158          1           0       -6.134379   -6.188086   -0.310961
    159          1           0       -4.486125   -6.829310   -0.385626
    160          6           0       -4.222711   -4.143352   -0.090924
    161          1           0       -3.834337   -3.234548    0.381328
    162          1           0       -5.049260   -3.844852   -0.748920
    163          1           0       -3.431296   -4.568386   -0.717824
    164          1           0       -5.478929   -5.736678    3.596973
    165          1           0       -0.966372   -6.263777    3.626404
    166          6           0       -0.038948   -6.425994    3.062865
    167          1           0       -0.276237   -7.086021    2.219299
    168          6           0        0.550607   -5.101310    2.574382
    169          1           0        0.752676   -4.482064    3.457853
    170          6           0        1.876314   -5.335110    1.848660
    171          1           0        2.338727   -4.397186    1.527608
    172          1           0        2.595910   -5.851104    2.496516
    173          1           0        1.720785   -5.960643    0.959244
    174          6           0       -0.433212   -4.337168    1.682702
    175          1           0       -0.023064   -3.356522    1.409402
    176          1           0       -1.389132   -4.168879    2.193515
    177          1           0       -0.637170   -4.884134    0.753252
    178          1           0        0.664818   -6.954124    3.716021
    179          1           0        6.045394   -4.351991    3.223200
    180          6           0        6.222013   -4.684254    2.194810
    181          1           0        5.317897   -5.191323    1.847638
    182          6           0        6.549179   -3.500700    1.292425
    183          1           0        7.416746   -2.937675    1.652898
    184          1           0        6.786212   -3.830986    0.273166
    185          6           0        5.377041   -2.561589    1.163432
    186          8           0        4.218623   -2.899736    1.315560
    187          8           0        5.732386   -1.321129    0.861002
    188          1           0        4.901507   -0.792987    0.734990
    189          1           0        7.046486   -5.403495    2.207680
    190          1           0       11.104621   -1.921364   -3.151696
    191          6           0       10.196116   -2.146382   -2.581388
    192          1           0       10.493751   -2.667321   -1.663165
    193          6           0        9.418348   -0.869480   -2.254566
    194          1           0       10.056267   -0.195304   -1.665327
    195          1           0        9.163273   -0.329611   -3.172313
    196          6           0        8.134698   -1.113331   -1.459436
    197          1           0        8.341666   -1.740795   -0.584455
    198          1           0        7.741850   -0.165004   -1.083375
    199         16           0        6.780535   -1.915710   -2.398059
    200          6           0        5.658472   -0.499324   -2.605140
    201          1           0        6.115125    0.262528   -3.240926
    202          1           0        5.419523   -0.071262   -1.626578
    203          1           0        4.722093   -0.841323   -3.060881
    204          1           0        9.584127   -2.832780   -3.177571
    205          1           0        5.111109   -5.196744   -2.592111
    206          6           0        4.354814   -5.258976   -1.802695
    207          1           0        4.874917   -5.439078   -0.854018
    208          6           0        3.527248   -3.977566   -1.738445
    209          1           0        2.805099   -4.014370   -0.914657
    210          1           0        2.977605   -3.807876   -2.667500
    211          1           0        4.166341   -3.106528   -1.570765
    212          1           0        3.726799   -6.134604   -2.009493
    213          1           0        0.355045   -9.138318   -1.911995
    214          6           0       -0.637267   -9.058324   -1.455274
    215          1           0       -0.756615   -9.877179   -0.737217
    216          6           0       -0.803886   -7.691754   -0.778387
    217          1           0       -1.780467   -7.647709   -0.277561
    218          1           0       -0.050753   -7.589665    0.012905
    219          6           0       -0.668173   -6.545967   -1.734777
    220          6           0        0.445471   -5.766507   -1.923675
    221          1           0        1.393665   -5.799621   -1.404627
    222          7           0        0.236424   -4.853475   -2.921327
    223          1           0        0.858589   -4.107666   -3.260032
    224          6           0       -1.034002   -5.012344   -3.396829
    225          6           0       -1.699613   -4.287913   -4.392366
    226          1           0       -1.192922   -3.471871   -4.898937
    227          6           0       -2.999900   -4.663774   -4.683757
    228          1           0       -3.553904   -4.123382   -5.446408
    229          6           0       -3.624333   -5.728224   -3.999398
    230          1           0       -4.646735   -5.993329   -4.254307
    231          6           0       -2.959531   -6.435152   -3.012049
    232          1           0       -3.452454   -7.255351   -2.495570
    233          6           0       -1.640457   -6.076466   -2.685944
    234          1           0       -1.378977   -9.189925   -2.251908
    235          6           0        2.528740    0.365477    0.110718
    236          8           0        3.707431    0.346893    0.536810
    237          6           0        1.807738   -0.828275   -0.187014
    238          6           0        0.593772   -0.780984   -0.802546
    239          6           0       -0.156098    0.518571   -0.997501
    240          6           0        0.379773    1.626911   -0.091913
    241          6           0        1.893550    1.700303   -0.163189
    242          6           0        0.020550   -2.011369   -1.415958
    243          6           0       -1.507470   -2.097329   -1.409591
    244          6           0       -2.146001   -0.774931   -1.837979
    245          6           0       -1.678851    0.314686   -0.847887
    246          6           0       -3.666433   -0.832774   -1.888900
    247          6           0       -4.322681    0.532813   -2.171306
    248          6           0       -3.957116    1.495672   -1.042265
    249          6           0       -2.437143    1.650748   -0.934781
    250          6           0       -4.343368   -1.770371   -2.898259
    251          6           0       -5.796231   -1.225141   -2.989218
    252          6           0       -5.800664    0.100979   -2.198998
    253          6           0       -3.932832    1.134482   -3.533252
    254          8           0       -6.698031    1.033744   -2.784813
    255          1           0        2.335247   -1.768518   -0.055158
    256          1           0        0.038407    0.802254   -2.047306
    257          1           0        0.066450    1.433321    0.944196
    258          1           0       -0.043934    2.592371   -0.379933
    259          1           0        2.208232    1.991065   -1.176877
    260          1           0        2.302614    2.439595    0.534590
    261          1           0        0.466565   -2.900535   -0.961315
    262          1           0        0.393484   -1.996934   -2.457650
    263          1           0       -1.862603   -2.352878   -0.402134
    264          1           0       -1.819290   -2.910868   -2.068053
    265          1           0       -1.767871   -0.528134   -2.841501
    266          1           0       -1.859375   -0.086914    0.164417
    267          1           0       -4.011617   -1.134993   -0.885574
    268          1           0       -4.357962    1.106289   -0.095553
    269          1           0       -4.403526    2.485683   -1.200937
    270          1           0       -2.067145    2.235625   -1.788618
    271          1           0       -2.212350    2.243449   -0.042144
    272          1           0       -4.298615   -2.819136   -2.596506
    273          1           0       -3.836393   -1.709039   -3.867844
    274          1           0       -6.524841   -1.929246   -2.575038
    275          1           0       -6.095009   -1.025776   -4.022882
    276          1           0       -6.109826   -0.094252   -1.162899
    277          1           0       -4.287727    0.524828   -4.368791
    278          1           0       -4.378637    2.129339   -3.634113
    279          1           0       -2.849114    1.241509   -3.640383
    280          1           0       -6.497731    1.897714   -2.402283
 ---------------------------------------------------------------------
 Rotational constants (GHZ):           0.0124826           0.0105436           0.0085783
 Standard basis: 6-31G(d) (6D, 7F)
 There are  1985 symmetry adapted cartesian basis functions of A   symmetry.
 There are  1985 symmetry adapted basis functions of A   symmetry.
  1985 basis functions,  3784 primitive gaussians,  1985 cartesian basis functions
   433 alpha electrons      433 beta electrons
       nuclear repulsion energy     27077.1897198839 Hartrees.
 NAtoms=  280 NActive=  280 NUniq=  280 SFac= 1.00D+00 NAtFMM=   60 NAOKFM=T Big=T
 Integral buffers will be    131072 words long.
 Raffenetti 2 integral format.
 Two-electron integral symmetry is turned on.
 Nuclear repulsion after empirical dispersion term =    27076.8689170403 Hartrees.
 One-electron integrals computed using PRISM.
 NBasis=  1985 RedAO= T EigKep=  3.60D-04  NBF=  1985
 NBsUse=  1985 1.00D-06 EigRej= -1.00D+00 NBFU=  1985
 ExpMin= 1.17D-01 ExpMax= 2.19D+04 ExpMxC= 3.30D+03 IAcc=3 IRadAn=         5 AccDes= 0.00D+00
 Harris functional with IExCor= 4639 and IRadAn=       5 diagonalized for initial guess.
 HarFok:  IExCor= 4639 AccDes= 0.00D+00 IRadAn=         5 IDoV= 1 UseB2=F ITyADJ=14
 ICtDFT=  3500011 ScaDFX=  1.000000  1.000000  1.000000  1.000000
 FoFCou: FMM=F IPFlag=           0 FMFlag=      100000 FMFlg1=        2001
         NFxFlg=           0 DoJE=T BraDBF=F KetDBF=T FulRan=T
         wScrn=  0.000000 ICntrl=       500 IOpCl=  0 I1Cent=   200000004 NGrid=           0
         NMat0=    1 NMatS0=      1 NMatT0=    0 NMatD0=    1 NMtDS0=    0 NMtDT0=    0
 Petite list used in FoFCou.
 Requested convergence on RMS density matrix=1.00D-08 within 128 cycles.
 Requested convergence on MAX density matrix=1.00D-06.
 Requested convergence on             energy=1.00D-06.
 No special actions if energy rises.
 Integral accuracy reduced to 1.0D-05 until final iterations.
 Initial convergence to 1.0D-05 achieved.  Increase integral accuracy.
 SCF Done:  E(RwB97XD) =  -5343.08092478     A.U. after   15 cycles
            NFock= 15  Conv=0.36D-08     -V/T= 2.0086
 Hyperfine terms turned off by default for NAtoms > 100.

 **********************************************************************

            Population analysis using the SCF Density.

 **********************************************************************

 Orbital symmetries:
       Occupied  (A) (A) (A) (A) (A) (A) (A) (A) (A) (A) (A) (A)
                 (A) (A) (A) (A) (A) (A) (A) (A) (A) (A) (A) (A)
                 (A) (A) (A) (A) (A) (A) (A) (A) (A) (A) (A) (A)
                 (A) (A) (A) (A) (A) (A) (A) (A) (A) (A) (A) (A)
                 (A) (A) (A) (A) (A) (A) (A) (A) (A) (A) (A) (A)
                 (A) (A) (A) (A) (A) (A) (A) (A) (A) (A) (A) (A)
                 (A) (A) (A) (A) (A) (A) (A) (A) (A) (A) (A) (A)
                 (A) (A) (A) (A) (A) (A) (A) (A) (A) (A) (A) (A)
                 (A) (A) (A) (A) (A) (A) (A) (A) (A) (A) (A) (A)
                 (A) (A) (A) (A) (A) (A) (A) (A) (A) (A) (A) (A)
                 (A) (A) (A) (A) (A) (A) (A) (A) (A) (A) (A) (A)
                 (A) (A) (A) (A) (A) (A) (A) (A) (A) (A) (A) (A)
                 (A) (A) (A) (A) (A) (A) (A) (A) (A) (A) (A) (A)
                 (A) (A) (A) (A) (A) (A) (A) (A) (A) (A) (A) (A)
                 (A) (A) (A) (A) (A) (A) (A) (A) (A) (A) (A) (A)
                 (A) (A) (A) (A) (A) (A) (A) (A) (A) (A) (A) (A)
                 (A) (A) (A) (A) (A) (A) (A) (A) (A) (A) (A) (A)
                 (A) (A) (A) (A) (A) (A) (A) (A) (A) (A) (A) (A)
                 (A) (A) (A) (A) (A) (A) (A) (A) (A) (A) (A) (A)
                 (A) (A) (A) (A) (A) (A) (A) (A) (A) (A) (A) (A)
                 (A) (A) (A) (A) (A) (A) (A) (A) (A) (A) (A) (A)
                 (A) (A) (A) (A) (A) (A) (A) (A) (A) (A) (A) (A)
                 (A) (A) (A) (A) (A) (A) (A) (A) (A) (A) (A) (A)
                 (A) (A) (A) (A) (A) (A) (A) (A) (A) (A) (A) (A)
                 (A) (A) (A) (A) (A) (A) (A) (A) (A) (A) (A) (A)
                 (A) (A) (A) (A) (A) (A) (A) (A) (A) (A) (A) (A)
                 (A) (A) (A) (A) (A) (A) (A) (A) (A) (A) (A) (A)
                 (A) (A) (A) (A) (A) (A) (A) (A) (A) (A) (A) (A)
                 (A) (A) (A) (A) (A) (A) (A) (A) (A) (A) (A) (A)
                 (A) (A) (A) (A) (A) (A) (A) (A) (A) (A) (A) (A)
                 (A) (A) (A) (A) (A) (A) (A) (A) (A) (A) (A) (A)
                 (A) (A) (A) (A) (A) (A) (A) (A) (A) (A) (A) (A)
                 (A) (A) (A) (A) (A) (A) (A) (A) (A) (A) (A) (A)
                 (A) (A) (A) (A) (A) (A) (A) (A) (A) (A) (A) (A)
                 (A) (A) (A) (A) (A) (A) (A) (A) (A) (A) (A) (A)
                 (A) (A) (A) (A) (A) (A) (A) (A) (A) (A) (A) (A)
                 (A)
       Virtual   (A) (A) (A) (A) (A) (A) (A) (A) (A) (A) (A) (A)
                 (A) (A) (A) (A) (A) (A) (A) (A) (A) (A) (A) (A)
                 (A) (A) (A) (A) (A) (A) (A) (A) (A) (A) (A) (A)
                 (A) (A) (A) (A) (A) (A) (A) (A) (A) (A) (A) (A)
                 (A) (A) (A) (A) (A) (A) (A) (A) (A) (A) (A) (A)
                 (A) (A) (A) (A) (A) (A) (A) (A) (A) (A) (A) (A)
                 (A) (A) (A) (A) (A) (A) (A) (A) (A) (A) (A) (A)
                 (A) (A) (A) (A) (A) (A) (A) (A) (A) (A) (A) (A)
                 (A) (A) (A) (A) (A) (A) (A) (A) (A) (A) (A) (A)
                 (A) (A) (A) (A) (A) (A) (A) (A) (A) (A) (A) (A)
                 (A) (A) (A) (A) (A) (A) (A) (A) (A) (A) (A) (A)
                 (A) (A) (A) (A) (A) (A) (A) (A) (A) (A) (A) (A)
                 (A) (A) (A) (A) (A) (A) (A) (A) (A) (A) (A) (A)
                 (A) (A) (A) (A) (A) (A) (A) (A) (A) (A) (A) (A)
                 (A) (A) (A) (A) (A) (A) (A) (A) (A) (A) (A) (A)
                 (A) (A) (A) (A) (A) (A) (A) (A) (A) (A) (A) (A)
                 (A) (A) (A) (A) (A) (A) (A) (A) (A) (A) (A) (A)
                 (A) (A) (A) (A) (A) (A) (A) (A) (A) (A) (A) (A)
                 (A) (A) (A) (A) (A) (A) (A) (A) (A) (A) (A) (A)
                 (A) (A) (A) (A) (A) (A) (A) (A) (A) (A) (A) (A)
                 (A) (A) (A) (A) (A) (A) (A) (A) (A) (A) (A) (A)
                 (A) (A) (A) (A) (A) (A) (A) (A) (A) (A) (A) (A)
                 (A) (A) (A) (A) (A) (A) (A) (A) (A) (A) (A) (A)
                 (A) (A) (A) (A) (A) (A) (A) (A) (A) (A) (A) (A)
                 (A) (A) (A) (A) (A) (A) (A) (A) (A) (A) (A) (A)
                 (A) (A) (A) (A) (A) (A) (A) (A) (A) (A) (A) (A)
                 (A) (A) (A) (A) (A) (A) (A) (A) (A) (A) (A) (A)
                 (A) (A) (A) (A) (A) (A) (A) (A) (A) (A) (A) (A)
                 (A) (A) (A) (A) (A) (A) (A) (A) (A) (A) (A) (A)
                 (A) (A) (A) (A) (A) (A) (A) (A) (A) (A) (A) (A)
                 (A) (A) (A) (A) (A) (A) (A) (A) (A) (A) (A) (A)
                 (A) (A) (A) (A) (A) (A) (A) (A) (A) (A) (A) (A)
                 (A) (A) (A) (A) (A) (A) (A) (A) (A) (A) (A) (A)
                 (A) (A) (A) (A) (A) (A) (A) (A) (A) (A) (A) (A)
                 (A) (A) (A) (A) (A) (A) (A) (A) (A) (A) (A) (A)
                 (A) (A) (A) (A) (A) (A) (A) (A) (A) (A) (A) (A)
                 (A) (A) (A) (A) (A) (A) (A) (A) (A) (A) (A) (A)
                 (A) (A) (A) (A) (A) (A) (A) (A) (A) (A) (A) (A)
                 (A) (A) (A) (A) (A) (A) (A) (A) (A) (A) (A) (A)
                 (A) (A) (A) (A) (A) (A) (A) (A) (A) (A) (A) (A)
                 (A) (A) (A) (A) (A) (A) (A) (A) (A) (A) (A) (A)
                 (A) (A) (A) (A) (A) (A) (A) (A) (A) (A) (A) (A)
                 (A) (A) (A) (A) (A) (A) (A) (A) (A) (A) (A) (A)
                 (A) (A) (A) (A) (A) (A) (A) (A) (A) (A) (A) (A)
                 (A) (A) (A) (A) (A) (A) (A) (A) (A) (A) (A) (A)
                 (A) (A) (A) (A) (A) (A) (A) (A) (A) (A) (A) (A)
                 (A) (A) (A) (A) (A) (A) (A) (A) (A) (A) (A) (A)
                 (A) (A) (A) (A) (A) (A) (A) (A) (A) (A) (A) (A)
                 (A) (A) (A) (A) (A) (A) (A) (A) (A) (A) (A) (A)
                 (A) (A) (A) (A) (A) (A) (A) (A) (A) (A) (A) (A)
                 (A) (A) (A) (A) (A) (A) (A) (A) (A) (A) (A) (A)
                 (A) (A) (A) (A) (A) (A) (A) (A) (A) (A) (A) (A)
                 (A) (A) (A) (A) (A) (A) (A) (A) (A) (A) (A) (A)
                 (A) (A) (A) (A) (A) (A) (A) (A) (A) (A) (A) (A)
                 (A) (A) (A) (A) (A) (A) (A) (A) (A) (A) (A) (A)
                 (A) (A) (A) (A) (A) (A) (A) (A) (A) (A) (A) (A)
                 (A) (A) (A) (A) (A) (A) (A) (A) (A) (A) (A) (A)
                 (A) (A) (A) (A) (A) (A) (A) (A) (A) (A) (A) (A)
                 (A) (A) (A) (A) (A) (A) (A) (A) (A) (A) (A) (A)
                 (A) (A) (A) (A) (A) (A) (A) (A) (A) (A) (A) (A)
                 (A) (A) (A) (A) (A) (A) (A) (A) (A) (A) (A) (A)
                 (A) (A) (A) (A) (A) (A) (A) (A) (A) (A) (A) (A)
                 (A) (A) (A) (A) (A) (A) (A) (A) (A) (A) (A) (A)
                 (A) (A) (A) (A) (A) (A) (A) (A) (A) (A) (A) (A)
                 (A) (A) (A) (A) (A) (A) (A) (A) (A) (A) (A) (A)
                 (A) (A) (A) (A) (A) (A) (A) (A) (A) (A) (A) (A)
                 (A) (A) (A) (A) (A) (A) (A) (A) (A) (A) (A) (A)
                 (A) (A) (A) (A) (A) (A) (A) (A) (A) (A) (A) (A)
                 (A) (A) (A) (A) (A) (A) (A) (A) (A) (A) (A) (A)
                 (A) (A) (A) (A) (A) (A) (A) (A) (A) (A) (A) (A)
                 (A) (A) (A) (A) (A) (A) (A) (A) (A) (A) (A) (A)
                 (A) (A) (A) (A) (A) (A) (A) (A) (A) (A) (A) (A)
                 (A) (A) (A) (A) (A) (A) (A) (A) (A) (A) (A) (A)
                 (A) (A) (A) (A) (A) (A) (A) (A) (A) (A) (A) (A)
                 (A) (A) (A) (A) (A) (A) (A) (A) (A) (A) (A) (A)
                 (A) (A) (A) (A) (A) (A) (A) (A) (A) (A) (A) (A)
                 (A) (A) (A) (A) (A) (A) (A) (A) (A) (A) (A) (A)
                 (A) (A) (A) (A) (A) (A) (A) (A) (A) (A) (A) (A)
                 (A) (A) (A) (A) (A) (A) (A) (A) (A) (A) (A) (A)
                 (A) (A) (A) (A) (A) (A) (A) (A) (A) (A) (A) (A)
                 (A) (A) (A) (A) (A) (A) (A) (A) (A) (A) (A) (A)
                 (A) (A) (A) (A) (A) (A) (A) (A) (A) (A) (A) (A)
                 (A) (A) (A) (A) (A) (A) (A) (A) (A) (A) (A) (A)
                 (A) (A) (A) (A) (A) (A) (A) (A) (A) (A) (A) (A)
                 (A) (A) (A) (A) (A) (A) (A) (A) (A) (A) (A) (A)
                 (A) (A) (A) (A) (A) (A) (A) (A) (A) (A) (A) (A)
                 (A) (A) (A) (A) (A) (A) (A) (A) (A) (A) (A) (A)
                 (A) (A) (A) (A) (A) (A) (A) (A) (A) (A) (A) (A)
                 (A) (A) (A) (A) (A) (A) (A) (A) (A) (A) (A) (A)
                 (A) (A) (A) (A) (A) (A) (A) (A) (A) (A) (A) (A)
                 (A) (A) (A) (A) (A) (A) (A) (A) (A) (A) (A) (A)
                 (A) (A) (A) (A) (A) (A) (A) (A) (A) (A) (A) (A)
                 (A) (A) (A) (A) (A) (A) (A) (A) (A) (A) (A) (A)
                 (A) (A) (A) (A) (A) (A) (A) (A) (A) (A) (A) (A)
                 (A) (A) (A) (A) (A) (A) (A) (A) (A) (A) (A) (A)
                 (A) (A) (A) (A) (A) (A) (A) (A) (A) (A) (A) (A)
                 (A) (A) (A) (A) (A) (A) (A) (A) (A) (A) (A) (A)
                 (A) (A) (A) (A) (A) (A) (A) (A) (A) (A) (A) (A)
                 (A) (A) (A) (A) (A) (A) (A) (A) (A) (A) (A) (A)
                 (A) (A) (A) (A) (A) (A) (A) (A) (A) (A) (A) (A)
                 (A) (A) (A) (A) (A) (A) (A) (A) (A) (A) (A) (A)
                 (A) (A) (A) (A) (A) (A) (A) (A) (A) (A) (A) (A)
                 (A) (A) (A) (A) (A) (A) (A) (A) (A) (A) (A) (A)
                 (A) (A) (A) (A) (A) (A) (A) (A) (A) (A) (A) (A)
                 (A) (A) (A) (A) (A) (A) (A) (A) (A) (A) (A) (A)
                 (A) (A) (A) (A) (A) (A) (A) (A) (A) (A) (A) (A)
                 (A) (A) (A) (A) (A) (A) (A) (A) (A) (A) (A) (A)
                 (A) (A) (A) (A) (A) (A) (A) (A) (A) (A) (A) (A)
                 (A) (A) (A) (A) (A) (A) (A) (A) (A) (A) (A) (A)
                 (A) (A) (A) (A) (A) (A) (A) (A) (A) (A) (A) (A)
                 (A) (A) (A) (A) (A) (A) (A) (A) (A) (A) (A) (A)
                 (A) (A) (A) (A) (A) (A) (A) (A) (A) (A) (A) (A)
                 (A) (A) (A) (A) (A) (A) (A) (A) (A) (A) (A) (A)
                 (A) (A) (A) (A) (A) (A) (A) (A) (A) (A) (A) (A)
                 (A) (A) (A) (A) (A) (A) (A) (A) (A) (A) (A) (A)
                 (A) (A) (A) (A) (A) (A) (A) (A) (A) (A) (A) (A)
                 (A) (A) (A) (A) (A) (A) (A) (A) (A) (A) (A) (A)
                 (A) (A) (A) (A) (A) (A) (A) (A) (A) (A) (A) (A)
                 (A) (A) (A) (A) (A) (A) (A) (A) (A) (A) (A) (A)
                 (A) (A) (A) (A) (A) (A) (A) (A) (A) (A) (A) (A)
                 (A) (A) (A) (A) (A) (A) (A) (A) (A) (A) (A) (A)
                 (A) (A) (A) (A) (A) (A) (A) (A) (A) (A) (A) (A)
                 (A) (A) (A) (A) (A) (A) (A) (A) (A) (A) (A) (A)
                 (A) (A) (A) (A) (A) (A) (A) (A) (A) (A) (A) (A)
                 (A) (A) (A) (A) (A) (A) (A) (A) (A) (A) (A) (A)
                 (A) (A) (A) (A) (A) (A) (A) (A) (A) (A) (A) (A)
                 (A) (A) (A) (A) (A) (A) (A) (A) (A) (A) (A) (A)
                 (A) (A) (A) (A) (A) (A) (A) (A) (A) (A) (A) (A)
                 (A) (A) (A) (A) (A) (A) (A) (A) (A) (A) (A) (A)
                 (A) (A) (A) (A)
 The electronic state is 1-A.
 Alpha  occ. eigenvalues --  -88.97990 -88.93723 -19.22469 -19.21748 -19.21272
 Alpha  occ. eigenvalues --  -19.19431 -19.19109 -19.19006 -19.17369 -19.08112
 Alpha  occ. eigenvalues --  -19.07103 -14.43825 -14.37165 -10.35983 -10.34637
 Alpha  occ. eigenvalues --  -10.33080 -10.29279 -10.28985 -10.28013 -10.27291
 Alpha  occ. eigenvalues --  -10.26958 -10.26444 -10.25562 -10.25488 -10.25383
 Alpha  occ. eigenvalues --  -10.25343 -10.25342 -10.24991 -10.24705 -10.24469
 Alpha  occ. eigenvalues --  -10.24424 -10.24351 -10.24195 -10.24133 -10.24021
 Alpha  occ. eigenvalues --  -10.23938 -10.23861 -10.23787 -10.23759 -10.23751
 Alpha  occ. eigenvalues --  -10.23716 -10.23678 -10.23564 -10.23563 -10.23520
 Alpha  occ. eigenvalues --  -10.23467 -10.23336 -10.23297 -10.23183 -10.23097
 Alpha  occ. eigenvalues --  -10.23094 -10.23061 -10.23050 -10.23026 -10.22998
 Alpha  occ. eigenvalues --  -10.22931 -10.22908 -10.22822 -10.22817 -10.22773
 Alpha  occ. eigenvalues --  -10.22683 -10.22628 -10.22558 -10.22557 -10.22487
 Alpha  occ. eigenvalues --  -10.22485 -10.22445 -10.22435 -10.22403 -10.22385
 Alpha  occ. eigenvalues --  -10.22378 -10.22321 -10.22223 -10.22090 -10.22070
 Alpha  occ. eigenvalues --  -10.22046 -10.21980 -10.21935 -10.21863 -10.21793
 Alpha  occ. eigenvalues --  -10.21597 -10.21589 -10.21535 -10.21380 -10.21333
 Alpha  occ. eigenvalues --  -10.21289 -10.21064 -10.21044 -10.20975 -10.20971
 Alpha  occ. eigenvalues --  -10.20741 -10.20708 -10.20446 -10.20310 -10.20310
 Alpha  occ. eigenvalues --  -10.20292 -10.20207 -10.20135 -10.20003 -10.19966
 Alpha  occ. eigenvalues --  -10.19780 -10.19663 -10.19372 -10.19222 -10.19001
 Alpha  occ. eigenvalues --  -10.18951 -10.17377 -10.17048 -10.16872  -7.99804
 Alpha  occ. eigenvalues --   -7.95556  -5.94867  -5.94468  -5.93778  -5.90605
 Alpha  occ. eigenvalues --   -5.90218  -5.89551  -1.11910  -1.09544  -1.09051
 Alpha  occ. eigenvalues --   -1.07807  -1.05751  -1.04268  -1.02349  -0.98890
 Alpha  occ. eigenvalues --   -0.98187  -0.97279  -0.89988  -0.89651  -0.89172
 Alpha  occ. eigenvalues --   -0.88711  -0.88335  -0.87676  -0.86639  -0.86061
 Alpha  occ. eigenvalues --   -0.84603  -0.84599  -0.84293  -0.84188  -0.84065
 Alpha  occ. eigenvalues --   -0.83074  -0.82606  -0.82248  -0.82105  -0.81843
 Alpha  occ. eigenvalues --   -0.81796  -0.81382  -0.81076  -0.80964  -0.80850
 Alpha  occ. eigenvalues --   -0.80839  -0.79210  -0.78145  -0.77315  -0.77034
 Alpha  occ. eigenvalues --   -0.76978  -0.76963  -0.76780  -0.76592  -0.75730
 Alpha  occ. eigenvalues --   -0.75334  -0.75320  -0.74936  -0.74651  -0.74585
 Alpha  occ. eigenvalues --   -0.74363  -0.74021  -0.73268  -0.73189  -0.72962
 Alpha  occ. eigenvalues --   -0.72556  -0.72429  -0.72037  -0.71998  -0.71956
 Alpha  occ. eigenvalues --   -0.71752  -0.71386  -0.70557  -0.70043  -0.69959
 Alpha  occ. eigenvalues --   -0.69476  -0.69033  -0.68929  -0.68857  -0.68718
 Alpha  occ. eigenvalues --   -0.67158  -0.66673  -0.66529  -0.66335  -0.66147
 Alpha  occ. eigenvalues --   -0.65303  -0.64811  -0.64199  -0.64042  -0.63792
 Alpha  occ. eigenvalues --   -0.63459  -0.63080  -0.62587  -0.62113  -0.61867
 Alpha  occ. eigenvalues --   -0.61554  -0.61123  -0.61048  -0.60729  -0.60713
 Alpha  occ. eigenvalues --   -0.60163  -0.59953  -0.59817  -0.59749  -0.59586
 Alpha  occ. eigenvalues --   -0.59477  -0.59019  -0.58315  -0.57953  -0.57724
 Alpha  occ. eigenvalues --   -0.57444  -0.56749  -0.56427  -0.56279  -0.55650
 Alpha  occ. eigenvalues --   -0.55054  -0.54825  -0.54393  -0.53535  -0.53082
 Alpha  occ. eigenvalues --   -0.52493  -0.52194  -0.51991  -0.51728  -0.51192
 Alpha  occ. eigenvalues --   -0.50992  -0.50577  -0.50470  -0.50125  -0.50068
 Alpha  occ. eigenvalues --   -0.49825  -0.49666  -0.49622  -0.49537  -0.49206
 Alpha  occ. eigenvalues --   -0.49075  -0.48969  -0.48929  -0.48845  -0.48788
 Alpha  occ. eigenvalues --   -0.48641  -0.48153  -0.47929  -0.47795  -0.47613
 Alpha  occ. eigenvalues --   -0.47542  -0.47360  -0.47198  -0.46813  -0.46785
 Alpha  occ. eigenvalues --   -0.46700  -0.46579  -0.46509  -0.46414  -0.46312
 Alpha  occ. eigenvalues --   -0.46247  -0.46198  -0.46151  -0.46110  -0.46073
 Alpha  occ. eigenvalues --   -0.45952  -0.45800  -0.45714  -0.45665  -0.45504
 Alpha  occ. eigenvalues --   -0.45276  -0.45191  -0.45106  -0.45046  -0.44803
 Alpha  occ. eigenvalues --   -0.44649  -0.44602  -0.44527  -0.44447  -0.44277
 Alpha  occ. eigenvalues --   -0.44219  -0.44119  -0.44006  -0.43710  -0.43582
 Alpha  occ. eigenvalues --   -0.43363  -0.43296  -0.43274  -0.43128  -0.43058
 Alpha  occ. eigenvalues --   -0.42931  -0.42823  -0.42772  -0.42717  -0.42509
 Alpha  occ. eigenvalues --   -0.42266  -0.42165  -0.42142  -0.41987  -0.41782
 Alpha  occ. eigenvalues --   -0.41745  -0.41721  -0.41644  -0.41617  -0.41533
 Alpha  occ. eigenvalues --   -0.41503  -0.41276  -0.41116  -0.41053  -0.41039
 Alpha  occ. eigenvalues --   -0.40997  -0.40857  -0.40839  -0.40810  -0.40775
 Alpha  occ. eigenvalues --   -0.40705  -0.40557  -0.40444  -0.40379  -0.40334
 Alpha  occ. eigenvalues --   -0.40156  -0.40056  -0.39871  -0.39628  -0.39565
 Alpha  occ. eigenvalues --   -0.39522  -0.39428  -0.39208  -0.39022  -0.38966
 Alpha  occ. eigenvalues --   -0.38934  -0.38894  -0.38768  -0.38714  -0.38544
 Alpha  occ. eigenvalues --   -0.38481  -0.38423  -0.38345  -0.38171  -0.37982
 Alpha  occ. eigenvalues --   -0.37832  -0.37734  -0.37606  -0.37380  -0.37233
 Alpha  occ. eigenvalues --   -0.37195  -0.37102  -0.37068  -0.36792  -0.36674
 Alpha  occ. eigenvalues --   -0.36596  -0.36488  -0.36423  -0.36338  -0.36140
 Alpha  occ. eigenvalues --   -0.36062  -0.35972  -0.35945  -0.35803  -0.35704
 Alpha  occ. eigenvalues --   -0.35640  -0.35586  -0.35550  -0.35525  -0.35413
 Alpha  occ. eigenvalues --   -0.35352  -0.35280  -0.35266  -0.35175  -0.35082
 Alpha  occ. eigenvalues --   -0.34981  -0.34918  -0.34909  -0.34841  -0.34806
 Alpha  occ. eigenvalues --   -0.34669  -0.34643  -0.34560  -0.34411  -0.34250
 Alpha  occ. eigenvalues --   -0.34203  -0.34163  -0.34127  -0.33905  -0.33769
 Alpha  occ. eigenvalues --   -0.33688  -0.33445  -0.33417  -0.33205  -0.33157
 Alpha  occ. eigenvalues --   -0.33056  -0.32874  -0.32667  -0.32635  -0.32498
 Alpha  occ. eigenvalues --   -0.32417  -0.32232  -0.32139  -0.32125  -0.31912
 Alpha  occ. eigenvalues --   -0.31812  -0.31599  -0.31465  -0.31374  -0.31007
 Alpha  occ. eigenvalues --   -0.30758  -0.30476  -0.30445  -0.30021  -0.29429
 Alpha  occ. eigenvalues --   -0.29172  -0.29004  -0.28912  -0.28528  -0.28407
 Alpha  occ. eigenvalues --   -0.27649  -0.26858  -0.26421  -0.26247  -0.25575
 Alpha  occ. eigenvalues --   -0.25505  -0.25377  -0.25285  -0.24362  -0.23814
 Alpha  occ. eigenvalues --   -0.22444  -0.20925  -0.20315  -0.19565  -0.19486
 Alpha  occ. eigenvalues --   -0.18741  -0.17440  -0.17163
 Alpha virt. eigenvalues --    0.07910   0.13314   0.13915   0.14050   0.14266
 Alpha virt. eigenvalues --    0.14828   0.14901   0.15095   0.15547   0.15601
 Alpha virt. eigenvalues --    0.16738   0.17408   0.17439   0.18316   0.19021
 Alpha virt. eigenvalues --    0.19092   0.19460   0.19560   0.19859   0.20432
 Alpha virt. eigenvalues --    0.20703   0.20941   0.21347   0.21383   0.21557
 Alpha virt. eigenvalues --    0.21682   0.22124   0.22160   0.22441   0.22702
 Alpha virt. eigenvalues --    0.23029   0.23162   0.23280   0.23602   0.23814
 Alpha virt. eigenvalues --    0.23973   0.24041   0.24173   0.24272   0.24449
 Alpha virt. eigenvalues --    0.24603   0.24818   0.24984   0.25082   0.25168
 Alpha virt. eigenvalues --    0.25324   0.25558   0.25716   0.25735   0.25886
 Alpha virt. eigenvalues --    0.25938   0.26095   0.26151   0.26287   0.26432
 Alpha virt. eigenvalues --    0.26493   0.26664   0.26784   0.26898   0.27005
 Alpha virt. eigenvalues --    0.27122   0.27212   0.27260   0.27314   0.27528
 Alpha virt. eigenvalues --    0.27608   0.27629   0.27811   0.28047   0.28086
 Alpha virt. eigenvalues --    0.28312   0.28405   0.28462   0.28494   0.28603
 Alpha virt. eigenvalues --    0.28640   0.28875   0.28901   0.29043   0.29061
 Alpha virt. eigenvalues --    0.29065   0.29221   0.29367   0.29388   0.29519
 Alpha virt. eigenvalues --    0.29598   0.29653   0.29746   0.29932   0.29961
 Alpha virt. eigenvalues --    0.30048   0.30086   0.30228   0.30281   0.30300
 Alpha virt. eigenvalues --    0.30487   0.30566   0.30684   0.30882   0.30936
 Alpha virt. eigenvalues --    0.31035   0.31109   0.31237   0.31273   0.31357
 Alpha virt. eigenvalues --    0.31428   0.31470   0.31519   0.31547   0.31600
 Alpha virt. eigenvalues --    0.31644   0.31696   0.31833   0.31878   0.31939
 Alpha virt. eigenvalues --    0.32067   0.32180   0.32330   0.32387   0.32407
 Alpha virt. eigenvalues --    0.32519   0.32615   0.32704   0.32763   0.32815
 Alpha virt. eigenvalues --    0.32937   0.33011   0.33072   0.33153   0.33268
 Alpha virt. eigenvalues --    0.33334   0.33369   0.33505   0.33658   0.33757
 Alpha virt. eigenvalues --    0.33774   0.33843   0.33995   0.34096   0.34127
 Alpha virt. eigenvalues --    0.34230   0.34270   0.34295   0.34461   0.34526
 Alpha virt. eigenvalues --    0.34610   0.34650   0.34772   0.34789   0.34900
 Alpha virt. eigenvalues --    0.35073   0.35218   0.35296   0.35423   0.35513
 Alpha virt. eigenvalues --    0.35566   0.35649   0.35732   0.35855   0.35909
 Alpha virt. eigenvalues --    0.36012   0.36208   0.36315   0.36372   0.36378
 Alpha virt. eigenvalues --    0.36483   0.36698   0.36723   0.36872   0.36928
 Alpha virt. eigenvalues --    0.36964   0.37067   0.37263   0.37396   0.37430
 Alpha virt. eigenvalues --    0.37521   0.37665   0.37795   0.37822   0.37851
 Alpha virt. eigenvalues --    0.37913   0.37977   0.38412   0.38437   0.38505
 Alpha virt. eigenvalues --    0.38617   0.38749   0.38820   0.38933   0.39088
 Alpha virt. eigenvalues --    0.39225   0.39303   0.39427   0.39502   0.39624
 Alpha virt. eigenvalues --    0.39736   0.39835   0.39890   0.39970   0.40209
 Alpha virt. eigenvalues --    0.40343   0.40367   0.40530   0.40631   0.40674
 Alpha virt. eigenvalues --    0.40734   0.40849   0.40978   0.41075   0.41209
 Alpha virt. eigenvalues --    0.41290   0.41329   0.41515   0.41740   0.41789
 Alpha virt. eigenvalues --    0.41928   0.42099   0.42287   0.42312   0.42416
 Alpha virt. eigenvalues --    0.42494   0.42723   0.42801   0.43048   0.43171
 Alpha virt. eigenvalues --    0.43210   0.43294   0.43442   0.43564   0.43776
 Alpha virt. eigenvalues --    0.44113   0.44184   0.44333   0.44453   0.44512
 Alpha virt. eigenvalues --    0.44658   0.44736   0.44857   0.44934   0.45481
 Alpha virt. eigenvalues --    0.45748   0.45879   0.45947   0.46206   0.46426
 Alpha virt. eigenvalues --    0.46653   0.46983   0.47066   0.47315   0.47580
 Alpha virt. eigenvalues --    0.47768   0.47818   0.48156   0.48463   0.48577
 Alpha virt. eigenvalues --    0.48972   0.49137   0.49351   0.49435   0.49940
 Alpha virt. eigenvalues --    0.50152   0.50289   0.50637   0.50807   0.51073
 Alpha virt. eigenvalues --    0.51427   0.51626   0.51922   0.52117   0.52644
 Alpha virt. eigenvalues --    0.53308   0.53620   0.53875   0.54130   0.54456
 Alpha virt. eigenvalues --    0.54939   0.55734   0.55823   0.57262   0.57337
 Alpha virt. eigenvalues --    0.57885   0.58177   0.58425   0.59257   0.59554
 Alpha virt. eigenvalues --    0.59881   0.60798   0.61427   0.61491   0.61904
 Alpha virt. eigenvalues --    0.62531   0.62831   0.63011   0.63236   0.63515
 Alpha virt. eigenvalues --    0.63575   0.63682   0.64087   0.64276   0.64424
 Alpha virt. eigenvalues --    0.64508   0.64682   0.64732   0.64806   0.64949
 Alpha virt. eigenvalues --    0.64995   0.65022   0.65196   0.65480   0.65561
 Alpha virt. eigenvalues --    0.65709   0.65801   0.65994   0.66079   0.66242
 Alpha virt. eigenvalues --    0.66286   0.66363   0.66531   0.66641   0.66784
 Alpha virt. eigenvalues --    0.66796   0.67046   0.67075   0.67244   0.67406
 Alpha virt. eigenvalues --    0.67432   0.67622   0.67809   0.67962   0.68041
 Alpha virt. eigenvalues --    0.68121   0.68343   0.68394   0.68474   0.68573
 Alpha virt. eigenvalues --    0.68638   0.68821   0.68919   0.69002   0.69216
 Alpha virt. eigenvalues --    0.69307   0.69499   0.69624   0.69862   0.70044
 Alpha virt. eigenvalues --    0.70197   0.70320   0.70432   0.70590   0.70630
 Alpha virt. eigenvalues --    0.70686   0.70871   0.71108   0.71143   0.71297
 Alpha virt. eigenvalues --    0.71519   0.71597   0.71784   0.71888   0.72088
 Alpha virt. eigenvalues --    0.72190   0.72356   0.72478   0.72647   0.72789
 Alpha virt. eigenvalues --    0.72966   0.73065   0.73172   0.73319   0.73477
 Alpha virt. eigenvalues --    0.73482   0.73697   0.73870   0.73941   0.74158
 Alpha virt. eigenvalues --    0.74366   0.74531   0.74715   0.74742   0.74844
 Alpha virt. eigenvalues --    0.74990   0.75095   0.75360   0.75426   0.75523
 Alpha virt. eigenvalues --    0.75544   0.75710   0.75845   0.75929   0.75984
 Alpha virt. eigenvalues --    0.76147   0.76322   0.76348   0.76428   0.76516
 Alpha virt. eigenvalues --    0.76597   0.76748   0.76879   0.77116   0.77216
 Alpha virt. eigenvalues --    0.77256   0.77489   0.77615   0.77645   0.77708
 Alpha virt. eigenvalues --    0.77838   0.78131   0.78221   0.78240   0.78428
 Alpha virt. eigenvalues --    0.78530   0.78822   0.79010   0.79256   0.79365
 Alpha virt. eigenvalues --    0.79556   0.79698   0.79857   0.80002   0.80044
 Alpha virt. eigenvalues --    0.80298   0.80354   0.80406   0.80542   0.80641
 Alpha virt. eigenvalues --    0.80850   0.80942   0.81020   0.81138   0.81176
 Alpha virt. eigenvalues --    0.81333   0.81436   0.81740   0.81767   0.81992
 Alpha virt. eigenvalues --    0.82219   0.82313   0.82511   0.82584   0.82656
 Alpha virt. eigenvalues --    0.82804   0.82886   0.83043   0.83208   0.83344
 Alpha virt. eigenvalues --    0.83510   0.83566   0.83692   0.83738   0.83986
 Alpha virt. eigenvalues --    0.84110   0.84178   0.84234   0.84391   0.84630
 Alpha virt. eigenvalues --    0.84656   0.84773   0.84838   0.84901   0.85264
 Alpha virt. eigenvalues --    0.85362   0.85454   0.85666   0.85864   0.86088
 Alpha virt. eigenvalues --    0.86203   0.86295   0.86349   0.86415   0.86506
 Alpha virt. eigenvalues --    0.86738   0.87081   0.87261   0.87301   0.87480
 Alpha virt. eigenvalues --    0.87514   0.87792   0.88002   0.88130   0.88272
 Alpha virt. eigenvalues --    0.88564   0.88770   0.88972   0.89182   0.89280
 Alpha virt. eigenvalues --    0.89434   0.89752   0.89808   0.89967   0.90066
 Alpha virt. eigenvalues --    0.90153   0.90479   0.90569   0.90679   0.90828
 Alpha virt. eigenvalues --    0.90907   0.91061   0.91382   0.91530   0.91733
 Alpha virt. eigenvalues --    0.91771   0.91948   0.92351   0.92531   0.92584
 Alpha virt. eigenvalues --    0.92681   0.92822   0.92895   0.92909   0.93070
 Alpha virt. eigenvalues --    0.93292   0.93358   0.93513   0.93730   0.93979
 Alpha virt. eigenvalues --    0.94180   0.94409   0.94589   0.94713   0.94835
 Alpha virt. eigenvalues --    0.95122   0.95376   0.95628   0.95811   0.95954
 Alpha virt. eigenvalues --    0.96367   0.96441   0.96570   0.97049   0.97202
 Alpha virt. eigenvalues --    0.97216   0.97435   0.97500   0.97730   0.97823
 Alpha virt. eigenvalues --    0.97953   0.98098   0.98214   0.98443   0.98750
 Alpha virt. eigenvalues --    0.98822   0.99114   0.99273   0.99367   0.99469
 Alpha virt. eigenvalues --    0.99715   0.99759   0.99829   0.99978   1.00015
 Alpha virt. eigenvalues --    1.00102   1.00192   1.00328   1.00551   1.00615
 Alpha virt. eigenvalues --    1.00642   1.00873   1.01050   1.01151   1.01162
 Alpha virt. eigenvalues --    1.01437   1.01511   1.01778   1.01919   1.02152
 Alpha virt. eigenvalues --    1.02231   1.02377   1.02503   1.02608   1.02720
 Alpha virt. eigenvalues --    1.02833   1.02972   1.03057   1.03158   1.03335
 Alpha virt. eigenvalues --    1.03506   1.03630   1.03724   1.03748   1.03879
 Alpha virt. eigenvalues --    1.03942   1.04086   1.04174   1.04234   1.04277
 Alpha virt. eigenvalues --    1.04415   1.04500   1.04517   1.04648   1.04804
 Alpha virt. eigenvalues --    1.04931   1.05076   1.05127   1.05187   1.05304
 Alpha virt. eigenvalues --    1.05395   1.05454   1.05488   1.05601   1.05673
 Alpha virt. eigenvalues --    1.05776   1.05877   1.05914   1.06054   1.06215
 Alpha virt. eigenvalues --    1.06285   1.06452   1.06578   1.06692   1.06755
 Alpha virt. eigenvalues --    1.06988   1.07037   1.07132   1.07256   1.07301
 Alpha virt. eigenvalues --    1.07506   1.07564   1.07688   1.07924   1.08022
 Alpha virt. eigenvalues --    1.08100   1.08215   1.08263   1.08366   1.08475
 Alpha virt. eigenvalues --    1.08512   1.08738   1.08794   1.08987   1.09102
 Alpha virt. eigenvalues --    1.09197   1.09342   1.09436   1.09553   1.09738
 Alpha virt. eigenvalues --    1.09869   1.09932   1.09965   1.10056   1.10199
 Alpha virt. eigenvalues --    1.10279   1.10335   1.10380   1.10500   1.10579
 Alpha virt. eigenvalues --    1.10708   1.10821   1.10885   1.11077   1.11142
 Alpha virt. eigenvalues --    1.11225   1.11411   1.11590   1.11720   1.11768
 Alpha virt. eigenvalues --    1.11830   1.12009   1.12139   1.12197   1.12307
 Alpha virt. eigenvalues --    1.12455   1.12585   1.12687   1.12721   1.12752
 Alpha virt. eigenvalues --    1.12829   1.12985   1.13159   1.13349   1.13529
 Alpha virt. eigenvalues --    1.13614   1.13673   1.13882   1.14058   1.14145
 Alpha virt. eigenvalues --    1.14221   1.14331   1.14529   1.14832   1.14859
 Alpha virt. eigenvalues --    1.14938   1.15128   1.15284   1.15330   1.15449
 Alpha virt. eigenvalues --    1.15616   1.15802   1.15857   1.16136   1.16244
 Alpha virt. eigenvalues --    1.16288   1.16462   1.16503   1.16578   1.16683
 Alpha virt. eigenvalues --    1.16704   1.16911   1.17026   1.17259   1.17437
 Alpha virt. eigenvalues --    1.17510   1.17600   1.17956   1.18068   1.18322
 Alpha virt. eigenvalues --    1.18516   1.18610   1.18986   1.19090   1.19196
 Alpha virt. eigenvalues --    1.19322   1.19487   1.19528   1.19775   1.19981
 Alpha virt. eigenvalues --    1.20065   1.20235   1.20394   1.20481   1.20578
 Alpha virt. eigenvalues --    1.20725   1.20948   1.21450   1.21737   1.21871
 Alpha virt. eigenvalues --    1.21898   1.22171   1.22582   1.22774   1.22883
 Alpha virt. eigenvalues --    1.23204   1.23237   1.23476   1.23563   1.23637
 Alpha virt. eigenvalues --    1.23702   1.23992   1.24198   1.24515   1.24827
 Alpha virt. eigenvalues --    1.24919   1.25079   1.25383   1.25589   1.25797
 Alpha virt. eigenvalues --    1.25860   1.26128   1.26537   1.26777   1.26966
 Alpha virt. eigenvalues --    1.27254   1.27560   1.27880   1.28405   1.28477
 Alpha virt. eigenvalues --    1.28791   1.29043   1.29253   1.29371   1.29619
 Alpha virt. eigenvalues --    1.29835   1.29903   1.30112   1.30227   1.30763
 Alpha virt. eigenvalues --    1.30975   1.31217   1.31529   1.31798   1.32049
 Alpha virt. eigenvalues --    1.32217   1.32293   1.32762   1.33050   1.33287
 Alpha virt. eigenvalues --    1.33568   1.33763   1.34119   1.34227   1.34820
 Alpha virt. eigenvalues --    1.35086   1.35260   1.35722   1.35977   1.36165
 Alpha virt. eigenvalues --    1.36396   1.36745   1.37152   1.37203   1.37609
 Alpha virt. eigenvalues --    1.37757   1.37927   1.38065   1.38357   1.38525
 Alpha virt. eigenvalues --    1.38955   1.39196   1.39612   1.39950   1.40168
 Alpha virt. eigenvalues --    1.40423   1.40853   1.41078   1.41345   1.41643
 Alpha virt. eigenvalues --    1.41923   1.42129   1.42387   1.42457   1.42816
 Alpha virt. eigenvalues --    1.42939   1.42986   1.43420   1.43598   1.43861
 Alpha virt. eigenvalues --    1.44199   1.44821   1.45422   1.45919   1.46292
 Alpha virt. eigenvalues --    1.46538   1.47221   1.47770   1.48266   1.48546
 Alpha virt. eigenvalues --    1.48799   1.49202   1.49824   1.50526   1.50834
 Alpha virt. eigenvalues --    1.51166   1.51447   1.52035   1.52328   1.52375
 Alpha virt. eigenvalues --    1.52586   1.53236   1.53322   1.53602   1.53756
 Alpha virt. eigenvalues --    1.54060   1.54351   1.54636   1.54824   1.55192
 Alpha virt. eigenvalues --    1.55725   1.55855   1.56111   1.56373   1.56450
 Alpha virt. eigenvalues --    1.56763   1.57011   1.57119   1.57173   1.57385
 Alpha virt. eigenvalues --    1.57513   1.57833   1.58302   1.58526   1.58641
 Alpha virt. eigenvalues --    1.59076   1.59206   1.59281   1.59521   1.59669
 Alpha virt. eigenvalues --    1.59795   1.59920   1.60152   1.60381   1.60502
 Alpha virt. eigenvalues --    1.60593   1.60707   1.60833   1.60863   1.60918
 Alpha virt. eigenvalues --    1.61001   1.61186   1.61287   1.61413   1.61702
 Alpha virt. eigenvalues --    1.61761   1.62027   1.62188   1.62458   1.62731
 Alpha virt. eigenvalues --    1.62854   1.63187   1.63380   1.63722   1.63921
 Alpha virt. eigenvalues --    1.64229   1.64346   1.64641   1.64889   1.64977
 Alpha virt. eigenvalues --    1.65206   1.65451   1.65637   1.65775   1.65967
 Alpha virt. eigenvalues --    1.66048   1.66061   1.66229   1.66537   1.66923
 Alpha virt. eigenvalues --    1.67111   1.67198   1.67360   1.67426   1.67661
 Alpha virt. eigenvalues --    1.68169   1.68370   1.68784   1.69015   1.69690
 Alpha virt. eigenvalues --    1.69779   1.70185   1.70265   1.70919   1.70962
 Alpha virt. eigenvalues --    1.71091   1.71529   1.71847   1.72290   1.72840
 Alpha virt. eigenvalues --    1.74268   1.74702   1.75331   1.76079   1.76460
 Alpha virt. eigenvalues --    1.76768   1.77317   1.77364   1.77451   1.77839
 Alpha virt. eigenvalues --    1.78184   1.78538   1.79537   1.80085   1.80428
 Alpha virt. eigenvalues --    1.80513   1.80614   1.80891   1.81384   1.82191
 Alpha virt. eigenvalues --    1.82675   1.83277   1.83387   1.83835   1.84220
 Alpha virt. eigenvalues --    1.84445   1.84966   1.84987   1.85311   1.85589
 Alpha virt. eigenvalues --    1.85766   1.86188   1.86313   1.86917   1.87036
 Alpha virt. eigenvalues --    1.87103   1.87374   1.87414   1.87748   1.87826
 Alpha virt. eigenvalues --    1.87978   1.88203   1.88373   1.88478   1.89129
 Alpha virt. eigenvalues --    1.89246   1.89365   1.89545   1.89978   1.90225
 Alpha virt. eigenvalues --    1.90619   1.90636   1.90731   1.90826   1.91323
 Alpha virt. eigenvalues --    1.91784   1.92380   1.92503   1.92584   1.93123
 Alpha virt. eigenvalues --    1.93332   1.93549   1.93755   1.93877   1.94175
 Alpha virt. eigenvalues --    1.94508   1.94724   1.94878   1.94899   1.95081
 Alpha virt. eigenvalues --    1.95171   1.95539   1.95866   1.96090   1.96550
 Alpha virt. eigenvalues --    1.96630   1.96715   1.97020   1.97181   1.97202
 Alpha virt. eigenvalues --    1.97642   1.97738   1.97854   1.98029   1.98080
 Alpha virt. eigenvalues --    1.98310   1.98900   1.99031   1.99481   1.99618
 Alpha virt. eigenvalues --    1.99932   2.00085   2.00393   2.00695   2.00777
 Alpha virt. eigenvalues --    2.01251   2.01482   2.02125   2.02386   2.02778
 Alpha virt. eigenvalues --    2.03178   2.03333   2.03558   2.03642   2.03794
 Alpha virt. eigenvalues --    2.04032   2.04334   2.04414   2.04791   2.04839
 Alpha virt. eigenvalues --    2.05262   2.05521   2.05635   2.05694   2.06041
 Alpha virt. eigenvalues --    2.06477   2.06592   2.06634   2.07291   2.07315
 Alpha virt. eigenvalues --    2.07916   2.07969   2.08181   2.08436   2.08533
 Alpha virt. eigenvalues --    2.08617   2.08717   2.08866   2.08932   2.09134
 Alpha virt. eigenvalues --    2.09222   2.09421   2.09466   2.09528   2.09811
 Alpha virt. eigenvalues --    2.09937   2.10087   2.10185   2.10215   2.10293
 Alpha virt. eigenvalues --    2.10574   2.10676   2.10937   2.11248   2.11343
 Alpha virt. eigenvalues --    2.11678   2.11759   2.11799   2.11856   2.12011
 Alpha virt. eigenvalues --    2.12190   2.12437   2.12614   2.12999   2.13117
 Alpha virt. eigenvalues --    2.13462   2.13498   2.13706   2.13799   2.13927
 Alpha virt. eigenvalues --    2.14064   2.14223   2.14476   2.14636   2.14665
 Alpha virt. eigenvalues --    2.14965   2.15487   2.15617   2.15781   2.15903
 Alpha virt. eigenvalues --    2.15945   2.16225   2.16241   2.16467   2.16676
 Alpha virt. eigenvalues --    2.16832   2.17056   2.17572   2.17634   2.17856
 Alpha virt. eigenvalues --    2.18045   2.18090   2.18331   2.18539   2.18565
 Alpha virt. eigenvalues --    2.18923   2.19060   2.19202   2.19344   2.19715
 Alpha virt. eigenvalues --    2.19937   2.20038   2.20252   2.20659   2.20689
 Alpha virt. eigenvalues --    2.20742   2.20990   2.21242   2.21457   2.21613
 Alpha virt. eigenvalues --    2.21969   2.22589   2.22602   2.23031   2.23139
 Alpha virt. eigenvalues --    2.23312   2.23417   2.23650   2.23838   2.23966
 Alpha virt. eigenvalues --    2.24181   2.24254   2.24406   2.24804   2.24929
 Alpha virt. eigenvalues --    2.25042   2.25548   2.25809   2.25943   2.26036
 Alpha virt. eigenvalues --    2.26081   2.26383   2.26521   2.26673   2.27169
 Alpha virt. eigenvalues --    2.27536   2.27699   2.27829   2.28052   2.28354
 Alpha virt. eigenvalues --    2.28657   2.28683   2.28846   2.29128   2.29175
 Alpha virt. eigenvalues --    2.29439   2.29667   2.30049   2.30241   2.30311
 Alpha virt. eigenvalues --    2.30446   2.30848   2.31045   2.31223   2.31420
 Alpha virt. eigenvalues --    2.31986   2.32088   2.32501   2.32577   2.32605
 Alpha virt. eigenvalues --    2.33389   2.33597   2.33693   2.33804   2.34456
 Alpha virt. eigenvalues --    2.35038   2.35227   2.35379   2.35543   2.35976
 Alpha virt. eigenvalues --    2.36604   2.36970   2.37877   2.38178   2.38305
 Alpha virt. eigenvalues --    2.38569   2.38747   2.39035   2.39093   2.39272
 Alpha virt. eigenvalues --    2.39403   2.39521   2.39650   2.39817   2.39970
 Alpha virt. eigenvalues --    2.40133   2.40465   2.40725   2.40763   2.40921
 Alpha virt. eigenvalues --    2.41118   2.41243   2.41358   2.41487   2.41812
 Alpha virt. eigenvalues --    2.41902   2.41920   2.42005   2.42205   2.42472
 Alpha virt. eigenvalues --    2.42563   2.42670   2.42755   2.42885   2.42937
 Alpha virt. eigenvalues --    2.43176   2.43376   2.43659   2.43905   2.43965
 Alpha virt. eigenvalues --    2.44040   2.44094   2.44244   2.44379   2.44765
 Alpha virt. eigenvalues --    2.44957   2.45094   2.45188   2.45460   2.45602
 Alpha virt. eigenvalues --    2.45951   2.45988   2.46116   2.46197   2.46528
 Alpha virt. eigenvalues --    2.46735   2.46836   2.47054   2.47135   2.47273
 Alpha virt. eigenvalues --    2.47509   2.47562   2.47703   2.48107   2.48200
 Alpha virt. eigenvalues --    2.48397   2.48584   2.48890   2.49170   2.49461
 Alpha virt. eigenvalues --    2.49516   2.50063   2.50274   2.50418   2.50686
 Alpha virt. eigenvalues --    2.50830   2.50908   2.50965   2.51023   2.51226
 Alpha virt. eigenvalues --    2.51350   2.51634   2.51698   2.52135   2.52467
 Alpha virt. eigenvalues --    2.52999   2.53031   2.53369   2.53808   2.54050
 Alpha virt. eigenvalues --    2.54349   2.54625   2.54930   2.55161   2.55299
 Alpha virt. eigenvalues --    2.55544   2.55851   2.56452   2.57113   2.57667
 Alpha virt. eigenvalues --    2.57719   2.57820   2.58201   2.58534   2.58748
 Alpha virt. eigenvalues --    2.58998   2.60150   2.60407   2.60732   2.61374
 Alpha virt. eigenvalues --    2.62032   2.63195   2.63457   2.63768   2.64548
 Alpha virt. eigenvalues --    2.65279   2.65390   2.65474   2.65769   2.65805
 Alpha virt. eigenvalues --    2.65946   2.66527   2.66552   2.66695   2.66945
 Alpha virt. eigenvalues --    2.67011   2.67355   2.67541   2.67793   2.68156
 Alpha virt. eigenvalues --    2.68173   2.68439   2.68949   2.69179   2.69579
 Alpha virt. eigenvalues --    2.69815   2.70119   2.70709   2.70764   2.70966
 Alpha virt. eigenvalues --    2.71335   2.71498   2.72001   2.72027   2.72531
[...]
   56 Atom       -1.529513      0.255249      1.274265
   57 Atom       -0.327188      0.143632      0.183556
   58 Atom       -0.171152      0.059768      0.111383
   59 Atom       -0.301526      0.138525      0.163001
   60 Atom       -0.248933      0.086973      0.161960
   61 Atom       -0.299638      0.139728      0.159910
   62 Atom       -0.295312      0.145497      0.149815
   63 Atom       -0.299564      0.143017      0.156547
   64 Atom       -0.077370      0.027422      0.049947
   65 Atom       -0.293965      0.142134      0.151831
   66 Atom       -0.290944      0.141178      0.149766
   67 Atom       -0.377247      0.103996      0.273251
   68 Atom       -0.902116     -0.551482      1.453598
   69 Atom       -0.465664     -0.437313      0.902978
   70 Atom       -0.385950      0.157081      0.228869
   71 Atom       -0.295610      0.101928      0.193682
   72 Atom       -0.277927      0.133141      0.144786
   73 Atom       -0.034298      0.015731      0.018567
   74 Atom       -0.280037      0.135943      0.144094
   75 Atom       -0.288021      0.140217      0.147803
   76 Atom       -0.034906     -0.009112      0.044018
   77 Atom       -0.276508      0.136891      0.139616
   78 Atom       -0.020945      0.009379      0.011566
   79 Atom       -0.288895      0.142323      0.146572
   80 Atom       -0.289732      0.142061      0.147671
   81 Atom       -0.287805      0.140684      0.147121
   82 Atom       -0.047120      0.000799      0.046321
   83 Atom       -0.289359      0.140862      0.148497
   84 Atom       -0.280250      0.137107      0.143143
   85 Atom       -0.291489      0.141890      0.149599
   86 Atom       -0.293859      0.139358      0.154500
   87 Atom       -0.295187      0.144902      0.150285
   88 Atom       -0.019251      0.004020      0.015231
   89 Atom       -0.292414      0.142783      0.149631
   90 Atom       -0.031360     -0.001728      0.033088
   91 Atom       -0.282967      0.141145      0.141822
   92 Atom       -0.035407      0.011813      0.023594
   93 Atom       -0.294881      0.144398      0.150483
   94 Atom       -0.283782      0.137493      0.146289
   95 Atom       -0.289356      0.140596      0.148761
   96 Atom       -0.034856     -0.010663      0.045519
   97 Atom       -0.290497      0.141207      0.149291
   98 Atom       -0.292938      0.143647      0.149291
   99 Atom       -0.281778      0.139974      0.141804
  100 Atom       -0.302797      0.149710      0.153087
  101 Atom       -0.291219      0.141551      0.149669
  102 Atom       -0.049942      0.018135      0.031807
  103 Atom       -0.293647      0.143943      0.149705
  104 Atom       -0.033170     -0.010387      0.043557
  105 Atom       -0.285246      0.139059      0.146186
  106 Atom       -0.284096      0.140422      0.143674
  107 Atom       -0.261872      0.089736      0.172136
  108 Atom       -0.233844      0.079749      0.154095
  109 Atom       -0.298789      0.138882      0.159907
  110 Atom       -0.271124      0.108763      0.162361
  111 Atom       -0.301882      0.142043      0.159838
  112 Atom       -0.298823      0.136326      0.162497
  113 Atom       -0.295849      0.143126      0.152723
  114 Atom       -0.292756      0.138574      0.154182
  115 Atom       -0.300672      0.144436      0.156236
  116 Atom       -0.234433      0.077872      0.156560
  117 Atom       -0.301540      0.140713      0.160827
  118 Atom       -0.292437      0.142803      0.149633
  119 Atom       -0.294777      0.145079      0.149698
  120 Atom       -0.020442      0.004540      0.015902
  121 Atom       -0.293918      0.143796      0.150123
  122 Atom       -0.036482     -0.015442      0.051924
  123 Atom       -0.278880      0.138758      0.140122
  124 Atom       -0.013144      0.004909      0.008235
  125 Atom       -0.287625      0.140929      0.146695
  126 Atom       -0.295622      0.145014      0.150608
  127 Atom       -0.288501      0.141437      0.147064
  128 Atom       -0.026985      0.006798      0.020188
  129 Atom       -0.285936      0.139695      0.146241
  130 Atom       -0.290626      0.141796      0.148830
  131 Atom       -0.300451      0.147344      0.153107
  132 Atom       -0.303769      0.150193      0.153576
  133 Atom       -0.300729      0.148863      0.151865
  134 Atom       -0.043837      0.013088      0.030749
  135 Atom       -0.285294      0.139202      0.146093
  136 Atom       -0.064749     -0.004685      0.069433
  137 Atom       -0.292361      0.139877      0.152484
  138 Atom       -0.284295      0.137024      0.147271
  139 Atom       -0.220481      0.073719      0.146763
  140 Atom       -0.287817      0.137609      0.150208
  141 Atom       -0.281453      0.137178      0.144275
  142 Atom       -2.316061     -0.555474      2.871535
  143 Atom       -0.207161      0.097434      0.109728
  144 Atom       -0.294367      0.142439      0.151928
  145 Atom       -0.290699      0.141679      0.149021
  146 Atom       -0.291269      0.138505      0.152763
  147 Atom       -0.301909      0.148819      0.153091
  148 Atom       -0.295379      0.145057      0.150322
  149 Atom       -0.011900      0.000654      0.011246
  150 Atom       -0.291319      0.143893      0.147426
  151 Atom       -0.036037      0.001768      0.034269
  152 Atom       -0.286798      0.140357      0.146441
  153 Atom       -0.280911      0.137450      0.143460
  154 Atom       -0.031080     -0.001368      0.032447
  155 Atom       -0.275981      0.136778      0.139203
  156 Atom       -0.020736      0.000848      0.019888
  157 Atom       -0.290991      0.143336      0.147655
  158 Atom       -0.288702      0.141070      0.147632
  159 Atom       -0.291058      0.142674      0.148384
  160 Atom       -0.044858      0.003288      0.041570
  161 Atom       -0.291263      0.141755      0.149507
  162 Atom       -0.288757      0.139678      0.149078
  163 Atom       -0.283525      0.137523      0.146002
  164 Atom       -0.289872      0.142661      0.147211
  165 Atom       -0.291315      0.143400      0.147915
  166 Atom       -0.004646      0.000180      0.004466
  167 Atom       -0.289164      0.142202      0.146962
  168 Atom       -0.043653     -0.018744      0.062397
  169 Atom       -0.277259      0.138071      0.139187
  170 Atom       -0.038916     -0.016107      0.055023
  171 Atom       -0.283654      0.139509      0.144144
  172 Atom       -0.292432      0.142651      0.149782
  173 Atom       -0.289405      0.141583      0.147822
  174 Atom       -0.027739      0.000188      0.027551
  175 Atom       -0.288475      0.141070      0.147404
  176 Atom       -0.292975      0.143157      0.149817
  177 Atom       -0.281584      0.137736      0.143848
  178 Atom       -0.293500      0.144442      0.149058
  179 Atom       -0.293150      0.141607      0.151543
  180 Atom       -0.066293      0.010510      0.055784
  181 Atom       -0.290883      0.140478      0.150405
  182 Atom       -0.062485      0.011053      0.051432
  183 Atom       -0.287544      0.140334      0.147210
  184 Atom       -0.281110      0.137864      0.143246
  185 Atom       -0.408229      0.046784      0.361445
  186 Atom       -0.787626     -0.683723      1.471349
  187 Atom       -1.251620      0.392303      0.859317
  188 Atom       -0.309791      0.135869      0.173922
  189 Atom       -0.295150      0.143971      0.151179
  190 Atom       -0.293073      0.143853      0.149221
  191 Atom       -0.032587      0.000189      0.032399
  192 Atom       -0.290964      0.142195      0.148769
  193 Atom       -0.037038     -0.011630      0.048669
  194 Atom       -0.283033      0.138129      0.144904
  195 Atom       -0.288619      0.139973      0.148646
  196 Atom       -0.198694      0.073120      0.125574
  197 Atom       -0.287449      0.139131      0.148318
  198 Atom       -0.288355      0.137172      0.151183
  199 Atom       -2.279824     -0.495485      2.775310
  200 Atom       -0.264806      0.097626      0.167180
  201 Atom       -0.295486      0.142014      0.153472
  202 Atom       -0.292115      0.140188      0.151927
  203 Atom       -0.266272      0.127259      0.139013
  204 Atom       -0.288014      0.142772      0.145242
  205 Atom       -0.293379      0.144525      0.148854
  206 Atom       -0.016120     -0.000921      0.017041
  207 Atom       -0.292947      0.144939      0.148008
  208 Atom       -0.076619      0.012506      0.064113
  209 Atom       -0.291740      0.140142      0.151598
  210 Atom       -0.283397      0.140515      0.142882
  211 Atom       -0.292732      0.143245      0.149486
  212 Atom       -0.290586      0.142584      0.148002
  213 Atom       -0.291986      0.142907      0.149080
  214 Atom       -0.033676      0.009261      0.024415
  215 Atom       -0.293953      0.144547      0.149406
  216 Atom       -0.037985     -0.000039      0.038023
  217 Atom       -0.285349      0.141393      0.143956
  218 Atom       -0.285596      0.140666      0.144930
  219 Atom       -0.063881      0.002113      0.061768
  220 Atom       -0.124686     -0.085674      0.210359
  221 Atom       -0.309428      0.142545      0.166883
  222 Atom       -0.425332     -0.112725      0.538057
  223 Atom       -0.286715      0.119708      0.167006
  224 Atom       -0.152858     -0.073428      0.226286
  225 Atom       -0.225890      0.082947      0.142943
  226 Atom       -0.298430      0.142534      0.155896
  227 Atom       -0.212263      0.077966      0.134296
  228 Atom       -0.306192      0.142734      0.163458
  229 Atom       -0.189816      0.064591      0.125224
  230 Atom       -0.307061      0.142387      0.164673
  231 Atom       -0.218096      0.071542      0.146554
  232 Atom       -0.305525      0.144078      0.161446
  233 Atom       -0.189053      0.081761      0.107292
  234 Atom       -0.290106      0.141695      0.148411
  235 Atom       -0.564071      0.156016      0.408055
  236 Atom       -0.924138     -0.428962      1.353100
  237 Atom       -0.125146      0.009917      0.115230
  238 Atom       -0.575618      0.239954      0.335664
  239 Atom       -0.047296      0.018544      0.028752
  240 Atom       -0.042342      0.002770      0.039572
  241 Atom       -0.046700      0.008056      0.038645
  242 Atom       -0.115338      0.008135      0.107203
  243 Atom       -0.051988     -0.024021      0.076009
  244 Atom       -0.036269      0.014386      0.021883
  245 Atom       -0.048201      0.014725      0.033475
  246 Atom       -0.021207      0.009586      0.011621
  247 Atom       -0.036445      0.009136      0.027309
  248 Atom       -0.036375     -0.002357      0.038732
  249 Atom       -0.020777      0.001933      0.018844
  250 Atom       -0.072402      0.009654      0.062749
  251 Atom       -0.038505     -0.002763      0.041268
  252 Atom       -0.335336      0.131297      0.204039
  253 Atom       -0.034237      0.008452      0.025785
  254 Atom       -1.617432     -0.154322      1.771754
  255 Atom       -0.291449      0.132402      0.159047
  256 Atom       -0.265763      0.129521      0.136243
  257 Atom       -0.280288      0.136874      0.143414
  258 Atom       -0.290608      0.142506      0.148102
  259 Atom       -0.273698      0.133271      0.140426
  260 Atom       -0.282913      0.136029      0.146885
  261 Atom       -0.287892      0.136056      0.151836
  262 Atom       -0.238419      0.117391      0.121027
  263 Atom       -0.282668      0.138320      0.144348
  264 Atom       -0.284756      0.139972      0.144784
  265 Atom       -0.274104      0.135252      0.138852
  266 Atom       -0.268998      0.133374      0.135623
  267 Atom       -0.269072      0.131690      0.137382
  268 Atom       -0.278913      0.137373      0.141540
  269 Atom       -0.278045      0.133737      0.144308
  270 Atom       -0.282777      0.139623      0.143155
  271 Atom       -0.288767      0.142283      0.146484
  272 Atom       -0.289993      0.142422      0.147570
  273 Atom       -0.287994      0.141397      0.146597
  274 Atom       -0.293120      0.145301      0.147819
  275 Atom       -0.291818      0.144641      0.147178
  276 Atom       -0.262920      0.125218      0.137701
  277 Atom       -0.295109      0.142149      0.152961
  278 Atom       -0.286710      0.137227      0.149483
  279 Atom       -0.293736      0.143560      0.150176
  280 Atom       -0.449849      0.196590      0.253259
 -----------------------------------------------------
 Unable to Open any file for archive entry.
 1\1\GINC-EXP-1-07\SP\RwB97XD\6-31G(d)\C96H171N2O9S2(1-)\HKLEM\07-Aug-2
 024\0\\# 6-31G* wB97XD prop=efg\\19nt_mm_min_distance_cutoff4_from_cut
 off6_nowat_efg\\-1,1\H,0,-8.562,-7.359,-3.047\C,0,-8.127,-6.359,-2.919
 \H,0,-8.353,-5.775,-3.815\C,0,-8.738,-5.68,-1.68\H,0,-9.823,-5.623,-1.
 818\H,0,-8.574,-6.298,-0.788\C,0,-8.165,-4.304,-1.456\C,0,-8.703,-3.17
 8,-2.083\H,0,-9.595,-3.279,-2.697\C,0,-8.128,-1.923,-1.927\H,0,-8.555,
 -1.046,-2.403\C,0,-6.984,-1.787,-1.145\O,0,-6.412,-0.558,-1.026\H,0,-5
 .793,-0.543,-0.242\C,0,-6.43,-2.895,-0.507\H,0,-5.547,-2.784,0.115\C,0
 ,-7.029,-4.137,-0.665\H,0,-6.595,-4.998,-0.166\H,0,-7.041,-6.444,-2.89
 3\H,0,-3.414,-4.86,-5.235\C,0,-2.51,-4.267,-5.06\H,0,-2.691,-3.257,-5.
 448\C,0,-2.18,-4.214,-3.562\H,0,-2.022,-5.246,-3.216\C,0,-0.897,-3.422
 ,-3.307\H,0,-0.038,-3.849,-3.838\H,0,-1.017,-2.39,-3.651\H,0,-0.652,-3
 .385,-2.239\C,0,-3.342,-3.63,-2.754\H,0,-3.092,-3.583,-1.686\H,0,-4.25
 ,-4.23,-2.87\H,0,-3.574,-2.609,-3.089\H,0,-1.684,-4.705,-5.634\H,0,-4.
 991,7.303,4.483\C,0,-4.207,6.543,4.368\H,0,-4.261,5.882,5.236\C,0,-4.4
 48,5.745,3.087\H,0,-4.397,6.419,2.224\H,0,-5.457,5.315,3.091\C,0,-3.43
 2,4.608,2.865\O,0,-2.474,4.547,3.691\O,0,-3.62,3.839,1.896\H,0,-3.258,
 7.078,4.321\H,0,-3.417,5.426,-5.706\C,0,-3.006,4.453,-5.973\H,0,-2.472
 ,4.016,-5.118\C,0,-4.098,3.491,-6.45\H,0,-4.702,3.987,-7.219\H,0,-3.59
 9,2.644,-6.937\C,0,-4.963,2.986,-5.321\C,0,-6.181,3.585,-4.995\H,0,-6.
 568,4.39,-5.617\C,0,-6.918,3.175,-3.889\H,0,-7.861,3.648,-3.635\C,0,-6
 .44,2.136,-3.093\O,0,-7.165,1.77,-2.006\H,0,-6.86,0.906,-1.639\C,0,-5.
 247,1.493,-3.427\H,0,-4.903,0.654,-2.83\C,0,-4.521,1.927,-4.526\H,0,-3
 .585,1.428,-4.77\H,0,-2.27,4.623,-6.766\H,0,1.206,5.295,-5.158\C,0,1.5
 98,4.64,-4.379\H,0,0.823,4.527,-3.617\H,0,2.474,5.091,-3.905\C,0,2.039
 ,3.236,-4.814\O,0,2.806,2.596,-4.107\N,0,1.5,2.766,-5.965\H,0,0.877,3.
 389,-6.461\C,0,1.802,1.467,-6.557\H,0,2.548,0.998,-5.91\C,0,0.544,0.59
 8,-6.664\H,0,-0.123,1.042,-7.418\H,0,0.847,-0.376,-7.064\C,0,-0.229,0.
 419,-5.353\H,0,-0.545,1.414,-5.005\C,0,-1.489,-0.411,-5.609\H,0,-2.086
 ,-0.521,-4.696\H,0,-2.125,0.047,-6.376\H,0,-1.227,-1.419,-5.954\C,0,0.
 635,-0.207,-4.258\H,0,1.056,-1.164,-4.591\H,0,1.459,0.451,-3.963\H,0,0
 .038,-0.405,-3.362\H,0,2.241,1.577,-7.549\H,0,5.578,-2.632,-5.604\C,0,
 5.211,-2.915,-4.613\H,0,6.036,-2.864,-3.894\C,0,4.089,-1.944,-4.181\H,
 0,3.251,-2.075,-4.879\C,0,3.597,-2.217,-2.756\H,0,3.149,-3.21,-2.649\H
 ,0,4.427,-2.156,-2.041\H,0,2.846,-1.474,-2.465\C,0,4.597,-0.506,-4.31\
 H,0,5.447,-0.335,-3.638\H,0,4.927,-0.287,-5.332\H,0,3.822,0.221,-4.045
 \H,0,4.876,-3.949,-4.697\H,0,-1.934,-7.253,6.418\C,0,-1.175,-7.516,5.6
 73\H,0,-0.894,-8.563,5.828\C,0,-1.705,-7.295,4.248\H,0,-0.937,-7.599,3
 .526\H,0,-2.567,-7.955,4.081\C,0,-2.116,-5.865,3.971\C,0,-1.378,-5.046
 ,3.113\H,0,-0.486,-5.444,2.631\C,0,-1.771,-3.732,2.858\H,0,-1.191,-3.1
 11,2.181\C,0,-2.901,-3.21,3.476\H,0,-3.218,-2.188,3.298\C,0,-3.63,-4.0
 07,4.356\H,0,-4.483,-3.578,4.873\C,0,-3.249,-5.324,4.588\H,0,-3.837,-5
 .945,5.261\H,0,-0.296,-6.891,5.859\H,0,3.2,-4.544,2.664\C,0,3.546,-4.4
 46,1.631\H,0,3.263,-5.343,1.071\C,0,2.906,-3.208,0.968\H,0,3.421,-3.03
 9,0.013\C,0,1.432,-3.472,0.669\H,0,0.888,-3.696,1.595\H,0,1.323,-4.321
 ,-0.012\H,0,0.961,-2.597,0.203\C,0,3.062,-1.958,1.833\H,0,2.534,-2.081
 ,2.788\H,0,2.643,-1.081,1.329\H,0,4.109,-1.744,2.057\H,0,4.632,-4.365,
 1.662\H,0,8.708,-2.785,-1.017\C,0,9.017,-2.09,-1.798\H,0,9.171,-2.644,
 -2.735\C,0,7.945,-1.01,-2.058\H,0,7.061,-1.52,-2.444\H,0,8.292,-0.368,
 -2.878\C,0,7.539,-0.144,-0.854\H,0,8.398,0.085,-0.214\H,0,7.144,0.816,
 -1.202\S,0,6.235,-0.901,0.191\C,0,7.112,-1.151,1.756\H,0,8.089,-1.601,
 1.564\H,0,7.24,-0.209,2.297\H,0,6.523,-1.852,2.354\H,0,9.997,-1.698,-1
 .524\H,0,6.289,-2.955,5.384\C,0,5.669,-2.278,5.98\H,0,6.296,-1.836,6.7
 63\C,0,5.023,-1.227,5.085\H,0,4.537,-1.747,4.253\H,0,5.803,-0.595,4.63
 3\C,0,4.,-0.318,5.779\H,0,3.194,-0.956,6.174\C,0,4.608,0.454,6.952\H,0
 ,4.966,-0.215,7.744\H,0,5.458,1.062,6.614\H,0,3.87,1.132,7.393\C,0,3.3
 85,0.648,4.766\H,0,2.936,0.104,3.928\H,0,4.159,1.308,4.353\H,0,2.612,1
 .279,5.218\H,0,4.903,-2.885,6.478\H,0,0.457,-3.01,7.405\C,0,-0.472,-2.
 464,7.612\H,0,-0.208,-1.571,8.192\C,0,-1.191,-2.084,6.316\H,0,-1.415,-
 3.013,5.776\C,0,-2.516,-1.383,6.619\H,0,-3.069,-1.14,5.707\H,0,-3.165,
 -2.015,7.238\H,0,-2.338,-0.449,7.169\C,0,-0.309,-1.218,5.411\H,0,-0.81
 2,-1.024,4.455\H,0,0.646,-1.711,5.192\H,0,-0.091,-0.248,5.876\H,0,-1.1
 04,-3.1,8.242\H,0,-6.704,-2.942,6.102\C,0,-6.887,-1.899,6.381\H,0,-5.9
 55,-1.492,6.782\C,0,-7.347,-1.089,5.175\H,0,-8.247,-1.512,4.716\H,0,-7
 .59,-0.057,5.458\C,0,-6.266,-0.99,4.129\O,0,-5.078,-1.085,4.372\O,0,-6
 .738,-0.783,2.908\H,0,-5.961,-0.669,2.301\H,0,-7.645,-1.887,7.17\H,0,-
 12.175,3.103,3.721\C,0,-11.231,2.576,3.901\H,0,-11.45,1.687,4.505\C,0,
 -10.556,2.186,2.584\H,0,-11.229,1.534,2.009\H,0,-10.381,3.072,1.965\C,
 0,-9.229,1.447,2.764\H,0,-9.35,0.611,3.463\H,0,-8.907,1.019,1.811\S,0,
 -7.844,2.477,3.38\C,0,-6.857,2.62,1.859\H,0,-7.4,3.189,1.101\H,0,-6.62
 2,1.622,1.476\H,0,-5.911,3.125,2.086\H,0,-10.583,3.235,4.49\H,0,-5.904
 ,2.942,6.48\C,0,-5.118,2.181,6.526\H,0,-5.587,1.232,6.813\C,0,-4.403,2
 .054,5.183\H,0,-3.652,1.256,5.209\H,0,-3.903,2.985,4.905\H,0,-5.109,1.
 809,4.385\H,0,-4.424,2.465,7.327\H,0,-0.803,2.67,10.019\C,0,0.194,2.23
 8,9.881\H,0,0.409,1.581,10.731\C,0,0.265,1.475,8.552\H,0,1.251,1.001,8
 .454\H,0,-0.466,0.657,8.569\C,0,-0.003,2.347,7.363\C,0,-1.186,2.45,6.6
 75\H,0,-2.109,1.907,6.826\N,0,-1.092,3.389,5.684\H,0,-1.788,3.658,4.97
 6\C,0,0.17,3.911,5.698\C,0,0.735,4.874,4.854\H,0,0.142,5.309,4.055\C,0
 ,2.052,5.228,5.093\H,0,2.53,5.968,4.457\C,0,2.79,4.636,6.14\H,0,3.822,
 4.938,6.296\C,0,2.224,3.68,6.966\H,0,2.804,3.235,7.771\C,0,0.891,3.292
 ,6.748\H,0,0.916,3.063,9.894\C,0,-3.721,-0.056,0.898\O,0,-4.878,-0.514
 ,1.049\C,0,-2.91,0.343,2.001\C,0,-1.727,0.989,1.806\C,0,-1.1,1.117,0.4
 35\C,0,-1.698,0.123,-0.56\C,0,-3.214,0.145,-0.503\C,0,-1.071,1.701,2.9
 38\C,0,0.458,1.745,2.888\C,0,0.964,2.101,1.489\C,0,0.439,1.026,0.512\C
 ,0,2.481,2.2,1.408\C,0,3.006,2.408,-0.026\C,0,2.598,1.206,-0.877\C,0,1
 .075,1.044,-0.889\C,0,3.201,3.29,2.214\C,0,4.597,3.386,1.537\C,0,4.514
 ,2.508,0.27\C,0,2.518,3.714,-0.678\O,0,5.306,3.055,-0.775\H,0,-3.349,0
 .26,2.991\H,0,-1.355,2.139,0.102\H,0,-1.333,-0.888,-0.328\H,0,-1.37,0.
 357,-1.576\H,0,-3.588,1.127,-0.83\H,0,-3.661,-0.613,-1.156\H,0,-1.422,
 1.295,3.891\H,0,-1.48,2.728,2.889\H,0,0.869,0.768,3.176\H,0,0.816,2.46
 6,3.626\H,0,0.531,3.074,1.212\H,0,0.689,0.049,0.961\H,0,2.886,1.23,1.7
 43\H,0,3.064,0.3,-0.464\H,0,2.951,1.31,-1.911\H,0,0.626,1.845,-1.493\H
 ,0,0.831,0.107,-1.4\H,0,3.258,3.059,3.28\H,0,2.657,4.238,2.135\H,0,5.3
 98,3.042,2.199\H,0,4.841,4.412,1.245\H,0,4.875,1.497,0.504\H,0,2.895,4
 .599,-0.158\H,0,2.872,3.76,-1.713\H,0,1.426,3.782,-0.695\H,0,5.045,2.6
 09,-1.591\\Version=ES64L-G16RevC.01\State=1-A\HF=-5343.0809248\RMSD=3.
 591e-09\Dipole=3.2796759,-4.6160769,-5.1450558\Quadrupole=-14.654686,-
 0.7481312,15.4028172,12.2812143,-8.5492242,-39.1937538\PG=C01 [X(C96H1
 71N2O9S2)]\\@
 The archive entry for this job was punched.


 LOGIC IS A SYSTEMATIC METHOD OF COMING TO THE
 WRONG CONCLUSION WITH CONFIDENCE.
 Job cpu time:       0 days  2 hours 56 minutes 50.4 seconds.
 Elapsed time:       0 days  0 hours 15 minutes 28.5 seconds.
 File lengths (MBytes):  RWF=   2117 Int=      0 D2E=      0 Chk=    228 Scr=      1
 Normal termination of Gaussian 16 at Wed Aug  7 14:01:48 2024.
