 Entering Gaussian System, Link 0=g16
 Initial command:
 /cm/shared/apps/spack/cpu/opt/spack/linux-centos8-zen/gcc-8.3.1/gaussian-16.C.01-po5bqktfeugvmjyga3v7eigbecnokxng/g16/l1.exe "/scratch/hklem/job_32333404/Gau-1641035.inp" -scrdir="/scratch/hklem/job_32333404/"
 Entering Link 1 = /cm/shared/apps/spack/cpu/opt/spack/linux-centos8-zen/gcc-8.3.1/gaussian-16.C.01-po5bqktfeugvmjyga3v7eigbecnokxng/g16/l1.exe PID=   1641043.
  
 Copyright (c) 1988-2019, Gaussian, Inc.  All Rights Reserved.
  
 This is part of the Gaussian(R) 16 program.  It is based on
 the Gaussian(R) 09 system (copyright 2009, Gaussian, Inc.),
 the Gaussian(R) 03 system (copyright 2003, Gaussian, Inc.),
 the Gaussian(R) 98 system (copyright 1998, Gaussian, Inc.),
 the Gaussian(R) 94 system (copyright 1995, Gaussian, Inc.),
 the Gaussian 92(TM) system (copyright 1992, Gaussian, Inc.),
 the Gaussian 90(TM) system (copyright 1990, Gaussian, Inc.),
 the Gaussian 88(TM) system (copyright 1988, Gaussian, Inc.),
 the Gaussian 86(TM) system (copyright 1986, Carnegie Mellon
 University), and the Gaussian 82(TM) system (copyright 1983,
 Carnegie Mellon University). Gaussian is a federally registered
 trademark of Gaussian, Inc.
  
 This software contains proprietary and confidential information,
 including trade secrets, belonging to Gaussian, Inc.
  
 This software is provided under written license and may be
 used, copied, transmitted, or stored only in accord with that
 written license.
  
 The following legend is applicable only to US Government
 contracts under FAR:
  
                    RESTRICTED RIGHTS LEGEND
  
 Use, reproduction and disclosure by the US Government is
 subject to restrictions as set forth in subparagraphs (a)
 and (c) of the Commercial Computer Software - Restricted
 Rights clause in FAR 52.227-19.
  
 Gaussian, Inc.
 340 Quinnipiac St., Bldg. 40, Wallingford CT 06492
  
  
 ---------------------------------------------------------------
 Warning -- This program may not be used in any manner that
 competes with the business of Gaussian, Inc. or will provide
 assistance to any competitor of Gaussian, Inc.  The licensee
 of this program is prohibited from giving any competitor of
 Gaussian, Inc. access to this program.  By using this program,
 the user acknowledges that Gaussian, Inc. is engaged in the
 business of creating and licensing software in the field of
 computational chemistry and represents and warrants to the
 licensee that it is not a competitor of Gaussian, Inc. and that
 it will not use this program in any manner prohibited above.
 ---------------------------------------------------------------
  

 Cite this work as:
 Gaussian 16, Revision C.01,
 M. J. Frisch, G. W. Trucks, H. B. Schlegel, G. E. Scuseria, 
 M. A. Robb, J. R. Cheeseman, G. Scalmani, V. Barone, 
 G. A. Petersson, H. Nakatsuji, X. Li, M. Caricato, A. V. Marenich, 
 J. Bloino, B. G. Janesko, R. Gomperts, B. Mennucci, H. P. Hratchian, 
 J. V. Ortiz, A. F. Izmaylov, J. L. Sonnenberg, D. Williams-Young, 
 F. Ding, F. Lipparini, F. Egidi, J. Goings, B. Peng, A. Petrone, 
 T. Henderson, D. Ranasinghe, V. G. Zakrzewski, J. Gao, N. Rega, 
 G. Zheng, W. Liang, M. Hada, M. Ehara, K. Toyota, R. Fukuda, 
 J. Hasegawa, M. Ishida, T. Nakajima, Y. Honda, O. Kitao, H. Nakai, 
 T. Vreven, K. Throssell, J. A. Montgomery, Jr., J. E. Peralta, 
 F. Ogliaro, M. J. Bearpark, J. J. Heyd, E. N. Brothers, K. N. Kudin, 
 V. N. Staroverov, T. A. Keith, R. Kobayashi, J. Normand, 
 K. Raghavachari, A. P. Rendell, J. C. Burant, S. S. Iyengar, 
 J. Tomasi, M. Cossi, J. M. Millam, M. Klene, C. Adamo, R. Cammi, 
 J. W. Ochterski, R. L. Martin, K. Morokuma, O. Farkas, 
 J. B. Foresman, and D. J. Fox, Gaussian, Inc., Wallingford CT, 2019.
 
 ******************************************
 Gaussian 16:  ES64L-G16RevC.01  3-Jul-2019
                16-Jul-2024 
 ******************************************
 %nprocshared=32
 Will use up to   32 processors via shared memory.
 %mem=64GB
 --------------------------
 # 6-31G(d) wb97xd prop=efg
 --------------------------
 1/38=1,172=1/1;
 2/12=2,17=6,18=5,40=1/2;
 3/5=1,6=6,7=1,11=2,25=1,30=1,74=-58/1,2,3;
 4//1;
 5/5=2,38=5/2;
 6/7=2,8=2,9=2,10=2,14=1,28=1/1,2;
 99/5=1,9=1/99;
 ----------------------------
 19nt_mm_min_distance_cutoff4
 ----------------------------
 Symbolic Z-matrix:
 Charge = -1 Multiplicity = 1
 H                    0     7.33462   6.05414   6.2178 
 C                    -1    6.99383   5.69299   5.2405 
 H                    0     6.91215   6.55176   4.5657 
 C                    0     7.95094   4.64426   4.66287 
 H                    0     8.95442   5.07666   4.56604 
 H                    0     8.03615   3.80195   5.36012 
 C                    0     7.46173   4.16014   3.32124 
 C                    0     7.81091   4.82919   2.14686 
 H                    0     8.51751   5.65539   2.19238 
 C                    0     7.26007   4.47392   0.92358 
 H                    0     7.52127   5.00194   0.01202 
 C                    0     6.33649   3.43296   0.85969 
 O                    0     5.76953   3.16875  -0.35472 
 H                    0     5.17766   2.38007  -0.27614 
 C                    0     5.98791   2.73613   2.01613 
 H                    0     5.27615   1.91935   1.96628 
 C                    0     6.55461   3.10486   3.22987 
 H                    0     6.2674    2.5659    4.1302 
 H                    0     5.9901    5.27163   5.36078 
 H                    0     1.77283   7.13012   4.05418 
 C                    -1    0.86494   6.58457   3.77233 
 H                    0     0.50549   7.00597   2.82818 
 C                    -1    1.15159   5.08349   3.62983 
 H                    0     1.57701   4.73532   4.58183 
 C                    0    -0.1342    4.28909   3.37846 
 H                    0    -0.86135   4.43581   4.18589 
 H                    0    -0.60967   4.60298   2.44217 
 H                    0     0.07213   3.21503   3.30279 
 C                    0     2.18327   4.81195   2.53065 
 H                    0     2.44346   3.74755   2.49442 
 H                    0     3.11039   5.37312   2.68713 
 H                    0     1.79487   5.0923    1.54304 
 H                    0     0.10392   6.77272   4.53888 
 H                    0     3.74349  -3.9262   -7.10074 
 C                    -1    3.10576  -3.15405  -6.65691 
 H                    0     2.05967  -3.42875  -6.82536 
 C                    0     3.37831  -3.00919  -5.15369 
 H                    0     4.42538  -2.73722  -4.98472 
 H                    0     3.19059  -3.97101  -4.66218 
 C                    -1    2.47053  -1.9396   -4.5309 
 O                    0     1.2746   -2.28773  -4.27669 
 O                    0     2.94697  -0.79302  -4.35605 
 H                    0     3.29926  -2.20879  -7.1754 
 H                    0     0.26196   7.84539  -4.41131 
 C                    -1    0.16685   6.91035  -4.97485 
 H                    0     1.10203   6.76019  -5.52414 
 C                    0    -0.09972   5.72963  -4.0388 
 H                    0    -1.05159   5.88499  -3.5112 
 H                    0    -0.22454   4.80311  -4.60749 
 C                    0     1.02136   5.57734  -3.04034 
 C                    0     1.15633   6.49225  -1.992 
 H                    -1    0.41189   7.27676  -1.8754 
 C                    0     2.21084   6.42689  -1.0962 
 H                    -1    2.29742   7.12692  -0.2709 
 C                    0     3.19002   5.4407   -1.2461 
 O                    0     4.18865   5.41094  -0.34221 
 H                    0     4.76001   4.63079  -0.49765 
 C                    0     3.0917    4.53673  -2.30743 
 H                    0     3.85769   3.77684  -2.44091 
 C                    0     2.00866   4.60142  -3.18145 
 H                    0     1.93697   3.87811  -3.99108 
 H                    0    -0.64047   7.03343  -5.70713 
 H                    0    -3.81951   5.29328  -5.18663 
 C                    -1   -4.03008   4.47668  -4.49029 
 H                    0    -3.13113   3.85463  -4.3845 
 H                    0    -4.83383   3.84877  -4.87858 
 C                    0    -4.42203   4.96782  -3.10367 
 O                    0    -5.10656   4.28249  -2.34029 
 N                    -1   -3.96382   6.18785  -2.72053 
 H                    0    -3.39345   6.707    -3.37162 
 C                    -1   -4.28675   6.812    -1.43594 
 H                    0    -4.83653   6.05966  -0.8678 
 C                    0    -3.06412   7.29504  -0.66725 
 H                    -1   -2.59691   8.13501  -1.20215 
 H                    0    -3.42858   7.70799   0.28446 
 C                    0    -1.9958    6.23458  -0.37934 
 H                    0    -1.49919   5.9792   -1.32352 
 C                    -1   -0.95249   6.82022   0.56989 
 H                    0    -0.10146   6.14289   0.68312 
 H                    0    -0.56571   7.78241   0.21278 
 H                    0    -1.39369   6.98463   1.56099 
 C                    0    -2.57137   4.94364   0.19971 
 H                    -1   -3.12581   5.14469   1.12512 
 H                    0    -3.23832   4.42962  -0.49934 
 H                    0    -1.76046   4.25128   0.44413 
 H                    0    -4.9705    7.6526   -1.61087 
 H                    0    -7.44216   5.35237   3.08167 
 C                    -1   -6.72566   4.60485   3.44125 
 H                    0    -7.28282   3.69577   3.68511 
 C                    0    -5.64446   4.32332   2.39156 
 H                    0    -5.10321   5.26474   2.21745 
 C                    0    -4.63822   3.28788   2.90195 
 H                    0    -4.16607   3.61623   3.83517 
 H                    0    -5.13708   2.32927   3.10046 
 H                    0    -3.84517   3.1018    2.16988 
 C                    0    -6.24913   3.88697   1.05424 
 H                    -1   -6.68945   2.88436   1.14075 
 H                    0    -7.04204   4.56913   0.72708 
 H                    0    -5.49786   3.85159   0.25893 
 H                    0    -6.28147   4.9809    4.37012 
 H                    -1    3.05435  -4.24878   7.53256 
 C                    -1    2.02382  -3.9316    7.72357 
 H                    0     1.80406  -4.11501   8.78092 
 C                    0     1.8245   -2.45253   7.37077 
 H                    0     0.79682  -2.15776   7.61385 
 H                    0     2.47853  -1.84254   8.00807 
 C                    0     2.10506  -2.13386   5.91764 
 C                    0     1.10109  -1.65701   5.0721 
 H                    0     0.09517  -1.52027   5.46501 
 C                    0     1.3696   -1.35048   3.73909 
 H                    0     0.57235  -0.98808   3.09456 
 C                    0     2.65138  -1.52472   3.22813 
 H                    0     2.87433  -1.30525   2.18939 
 C                    -1    3.65805  -2.01371   4.05683 
 H                    -1    4.65002  -2.17344   3.6468 
 C                    0     3.38728  -2.30927   5.38801 
 H                    0     4.18421  -2.68172   6.02877 
 H                    0     1.36612  -4.56504   7.11918 
 H                    0    -2.94608  -1.31628   5.82266 
 C                    -1   -3.71383  -1.08459   5.07281 
 H                    -1   -4.28688  -0.22092   5.42776 
 C                    0    -3.06652  -0.80521   3.71441 
 H                    0    -3.86909  -0.5631    3.00087 
 C                    0    -2.13713   0.40901   3.78305 
 H                    0    -1.29872   0.22367   4.46672 
 H                    0    -2.6714    1.29699   4.14036 
 H                    0    -1.71845   0.64685   2.79882 
 C                    0    -2.33733  -2.04793   3.20042 
 H                    0    -1.54717  -2.35729   3.89588 
 H                    -1   -1.86738  -1.86786   2.22823 
 H                    0    -3.02734  -2.89254   3.0851 
 H                    0    -4.39864  -1.93855   5.01764 
 H                    0    -10.14321   0.28415   3.99508 
 C                    -1   -9.98083   1.07519   3.25622 
 H                    0    -10.47951   1.98176   3.61353 
 C                    0    -8.49284   1.33982   3.03193 
 H                    0    -8.02841   1.65888   3.97293 
 H                    -1   -8.38518   2.17717   2.33301 
 C                    0    -7.69096   0.16414   2.47026 
 H                    0    -8.1319   -0.19678   1.5321 
 H                    0    -6.66345   0.4928    2.26275 
 S                    0    -7.61408  -1.21406   3.66203 
 C                    0    -6.5367   -2.34969   2.74989 
 H                    0    -6.96212  -2.60752   1.77543 
 H                    0    -5.53557  -1.93035   2.61204 
 H                    0    -6.45013  -3.26078   3.34629 
 H                    -1   -10.46727   0.76527   2.3244 
 H                    0    -6.25126  -5.64264   3.43127 
 C                    -1   -5.18705  -5.90475   3.42385 
 H                    0    -5.11976  -6.98881   3.56323 
 C                    0    -4.51634  -5.45641   2.12621 
 H                    -1   -4.65781  -4.37316   2.00383 
 H                    0    -5.01958  -5.92298   1.26749 
 C                    0    -3.01323  -5.75962   2.03525 
 H                    0    -2.52714  -5.33821   2.92955 
 C                    0    -2.72384  -7.26243   2.00382 
 H                    0    -3.1086   -7.78149   2.8887 
 H                    0    -3.17854  -7.72053   1.11576 
 H                    0    -1.64444  -7.44401   1.95686 
 C                    -1   -2.4248   -5.07916   0.80141 
 H                    -1   -2.5183   -3.99028   0.87165 
 H                    0    -2.94346  -5.40256  -0.10798 
 H                    0    -1.36523  -5.31595   0.66797 
 H                    0    -4.71616  -5.42759   4.2924 
 H                    0     0.13428  -6.15372   3.32233 
 C                    -1    1.13337  -6.34488   2.9113 
 H                    0     1.00898  -6.9493    2.00343 
 C                    0     1.85709  -5.0327    2.5894 
 H                    0     1.95555  -4.45547   3.51961 
 C                    0     3.26323  -5.28941   2.0431 
 H                    0     3.78308  -4.34765   1.83291 
 H                    -1    3.86907  -5.86618   2.75335 
 H                    0     3.21381  -5.86109   1.10587 
 C                    0     1.04769  -4.19246   1.60283 
 H                    -1    1.56555  -3.2555    1.37449 
 H                    0     0.06232  -3.9396    2.01222 
 H                    0     0.89356  -4.73089   0.6572 
 H                    0     1.69258  -6.94308   3.64075 
 H                    0     6.2995   -4.21839   2.19991 
 C                    -1    7.07875  -3.98673   1.46872 
 H                    0     6.7335   -4.3512    0.49679 
 C                    0     7.34688  -2.49274   1.41056 
 H                    0     7.69399  -2.10995   2.37954 
 H                    0     8.13141  -2.24979   0.68834 
 C                    0     6.11116  -1.71229   1.03774 
 O                    0     4.98104  -2.15883   1.09092 
 O                    0     6.38558  -0.46708   0.67285 
 H                    0     5.53473  -0.03614   0.39735 
 H                    0     7.98727  -4.53317   1.74137 
 H                    0     10.95539  -0.51714  -4.32852 
 C                    -1    10.3138  -1.08649  -3.64733 
 H                    0     10.95927  -1.72174  -3.02835 
 C                    -1    9.46929  -0.15994  -2.77592 
 H                    0     10.12728   0.48358  -2.17625 
 H                    0     8.87473   0.51165  -3.40692 
 C                    0     8.54656  -0.91476  -1.81792 
 H                    0     9.12546  -1.67941  -1.28517 
 H                    0     8.12127  -0.24758  -1.06173 
 S                    0     7.16509  -1.81176  -2.60137 
 C                    0     6.03086  -0.4311   -2.92486 
 H                    0     6.48119   0.2971   -3.60527 
 H                    0     5.75789   0.06303  -1.98867 
 H                    0     5.11996  -0.819    -3.39374 
 H                    0     9.67366  -1.74093  -4.2478 
 H                    0     5.35413  -4.4021   -3.27046 
 C                    -1    4.91354  -4.76749  -2.33779 
 H                    -1    5.73729  -5.05231  -1.67419 
 C                    0     4.03666  -3.69754  -1.69083 
 H                    0     3.61571  -4.04088  -0.73888 
 H                    0     3.20628  -3.40671  -2.34314 
 H                    0     4.62401  -2.80052  -1.47812 
 H                    0     4.34324  -5.67501  -2.57154 
 H                    0     1.17571  -9.10354  -2.29773 
 C                    -1    0.38438  -9.04825  -1.54282 
 H                    0     0.54988  -9.84273  -0.8061 
 C                    0     0.37623  -7.66477  -0.8712 
 H                    0    -0.38644  -7.66104  -0.07934 
 H                    0     1.33812  -7.50606  -0.36649 
 C                    0     0.12228  -6.51915  -1.80816 
 C                    0     1.03679  -5.59547  -2.24999 
 H                    0     2.08807  -5.51677  -2.00868 
 N                    -1    0.45038  -4.68967  -3.09658 
 H                    0     0.88689  -3.87275  -3.55078 
 C                    0    -0.87906  -5.00084  -3.20663 
 C                    0    -1.89497  -4.33494  -3.9015 
 H                    0    -1.67597  -3.43817  -4.47336 
 C                    0    -3.17799  -4.84591  -3.8122 
 H                    0    -3.99132  -4.32789  -4.31309 
 C                    0    -3.44451  -6.00416  -3.05238 
 H                    0    -4.46292  -6.38018  -3.00207 
 C                    0    -2.43626  -6.66038  -2.36533 
 H                    0    -2.65729  -7.54502  -1.77137 
 C                    0    -1.1276   -6.15394  -2.42212 
 H                    0    -0.56845  -9.24045  -2.04785 
 C                    0     3.06464   0.81852  -0.18959 
 O                    0     4.30051   0.9641   -0.0714 
 C                    0     2.46063  -0.47216  -0.34408 
 C                    0     1.13923  -0.5987   -0.63702 
 C                    -1    0.19448   0.57933  -0.6041 
 C                    0     0.77863   1.74567   0.19609 
 C                    0     2.19656   2.03775  -0.26586 
 C                    0     0.61234  -1.90138  -1.14627 
 C                    0    -0.83122  -2.21191  -0.75438 
 C                    0    -1.73645  -1.00452  -0.99496 
 C                    0    -1.22068   0.17701  -0.14467 
 C                    0    -3.19925  -1.27284  -0.66789 
 C                    0    -4.09272  -0.02927  -0.86504 
 C                    0    -3.6267    1.06485   0.09021 
 C                    0    -2.15006   1.40358  -0.13591 
 C                    0    -3.94995  -2.37817  -1.42084 
 C                    0    -5.44165  -2.04029  -1.18033 
 C                    0    -5.45163  -0.65301  -0.51346 
 C                    -1   -4.09214   0.47875  -2.31664 
 O                    0    -6.60906   0.10708  -0.91162 
 H                    0     3.12555  -1.33077  -0.35601 
 H                    0     0.10734   0.88598  -1.65947 
 H                    0     0.77126   1.50301   1.26898 
 H                    0     0.17133   2.64599   0.06538 
 H                    0     2.17295   2.34019  -1.32164 
 H                    0     2.6697    2.85663   0.28505 
 H                    0     1.28467  -2.7188   -0.87035 
 H                    0     0.68248  -1.82336  -2.24401 
 H                    0    -0.87396  -2.49345   0.30622 
 H                    -1   -1.17568  -3.08041  -1.32475 
 H                    0    -1.6541   -0.7336   -2.0572 
 H                    0    -1.14924  -0.19438   0.89192 
 H                    0    -3.24524  -1.51977   0.40902 
 H                    0    -3.76604   0.72177   1.1273 
 H                    0    -4.23029   1.97459  -0.02879 
 H                    0    -2.03234   1.94846  -1.08181 
 H                    0    -1.83193   2.08435   0.662 
 H                    0    -3.68432  -3.38038  -1.07985 
 H                    0    -3.72739  -2.34111  -2.49103 
 H                    0    -5.94465  -2.78013  -0.54883 
 H                    0    -5.98082  -1.99709  -2.12716 
 H                    0    -5.50147  -0.76936   0.57854 
 H                    0    -4.52633  -0.24752  -3.01104 
 H                    0    -4.66696   1.40476  -2.3925 
 H                    -1   -3.08511   0.71918  -2.66605 
 H                    0    -6.81673   0.72361  -0.19886 
 O                    0     0.59457   0.4318   -3.83403 
 H                    0     0.26126  -0.4592   -4.03615 
 H                    0     1.55928   0.24337  -3.95613 
 O                    0    -6.97437   2.29154  -2.77746 
 H                    0    -6.29969   2.985    -2.62712 
 H                    0    -6.72997   1.56234  -2.17992 
 O                    -1   -0.99533   2.64355  -3.36768 
 H                    0    -0.46551   1.86684  -3.65798 
 H                    0    -0.38565   3.1358   -2.80455 
 O                    0    -8.03201  -1.02374  -3.32418 
 H                    0    -7.73974  -0.73152  -2.4473 
 H                    0    -7.69813  -0.32862  -3.92201 
 O                    0    -6.65508   0.83699  -4.99549 
 H                    0    -6.68951   1.48332  -4.24515 
 H                    0    -7.27484   1.17555  -5.65054 
 O                    0    -5.61917  -1.92141  -4.6327 
 H                    0    -5.6156   -1.01003  -4.96148 
 H                    0    -6.48493  -1.9654   -4.19177 
 
 Stoichiometry    C96H183N2O15S2(1-)
 Framework group  C1[X(C96H183N2O15S2)]
 Deg. of freedom   888
 Full point group                 C1      NOp   1
 Largest Abelian subgroup         C1      NOp   1
 Largest concise Abelian subgroup C1      NOp   1
                         Standard orientation:                         
 ---------------------------------------------------------------------
 Center     Atomic      Atomic             Coordinates (Angstroms)
 Number     Number       Type             X           Y           Z
 ---------------------------------------------------------------------
      1          1           0        7.334621    6.054144    6.217796
      2          6           0        6.993829    5.692985    5.240500
      3          1           0        6.912154    6.551764    4.565703
      4          6           0        7.950937    4.644256    4.662870
      5          1           0        8.954415    5.076660    4.566035
      6          1           0        8.036148    3.801948    5.360116
      7          6           0        7.461730    4.160141    3.321235
      8          6           0        7.810910    4.829185    2.146861
      9          1           0        8.517509    5.655393    2.192377
     10          6           0        7.260071    4.473917    0.923580
     11          1           0        7.521269    5.001937    0.012022
     12          6           0        6.336485    3.432961    0.859689
     13          8           0        5.769534    3.168749   -0.354715
     14          1           0        5.177659    2.380074   -0.276138
     15          6           0        5.987912    2.736125    2.016127
     16          1           0        5.276147    1.919350    1.966281
     17          6           0        6.554612    3.104862    3.229870
     18          1           0        6.267403    2.565896    4.130198
     19          1           0        5.990104    5.271630    5.360785
     20          1           0        1.772830    7.130122    4.054184
     21          6           0        0.864938    6.584573    3.772330
     22          1           0        0.505486    7.005967    2.828177
     23          6           0        1.151593    5.083485    3.629826
     24          1           0        1.577010    4.735316    4.581835
     25          6           0       -0.134201    4.289085    3.378458
     26          1           0       -0.861351    4.435808    4.185887
     27          1           0       -0.609669    4.602980    2.442165
     28          1           0        0.072125    3.215028    3.302789
     29          6           0        2.183269    4.811953    2.530653
     30          1           0        2.443460    3.747549    2.494416
     31          1           0        3.110390    5.373117    2.687126
     32          1           0        1.794865    5.092296    1.543043
     33          1           0        0.103916    6.772721    4.538877
     34          1           0        3.743491   -3.926196   -7.100737
     35          6           0        3.105764   -3.154053   -6.656910
     36          1           0        2.059675   -3.428753   -6.825363
     37          6           0        3.378307   -3.009186   -5.153689
     38          1           0        4.425376   -2.737219   -4.984717
     39          1           0        3.190587   -3.971011   -4.662181
     40          6           0        2.470526   -1.939596   -4.530899
     41          8           0        1.274598   -2.287731   -4.276687
     42          8           0        2.946970   -0.793024   -4.356047
     43          1           0        3.299264   -2.208794   -7.175396
     44          1           0        0.261961    7.845387   -4.411313
     45          6           0        0.166848    6.910351   -4.974848
     46          1           0        1.102034    6.760189   -5.524143
     47          6           0       -0.099719    5.729632   -4.038803
     48          1           0       -1.051592    5.884995   -3.511200
     49          1           0       -0.224535    4.803109   -4.607491
     50          6           0        1.021358    5.577344   -3.040339
     51          6           0        1.156327    6.492254   -1.991996
     52          1           0        0.411887    7.276762   -1.875403
     53          6           0        2.210835    6.426892   -1.096204
     54          1           0        2.297420    7.126918   -0.270902
     55          6           0        3.190022    5.440704   -1.246098
     56          8           0        4.188648    5.410939   -0.342209
     57          1           0        4.760012    4.630788   -0.497651
     58          6           0        3.091700    4.536725   -2.307427
     59          1           0        3.857694    3.776844   -2.440908
     60          6           0        2.008662    4.601419   -3.181449
     61          1           0        1.936970    3.878108   -3.991077
     62          1           0       -0.640467    7.033425   -5.707129
     63          1           0       -3.819506    5.293275   -5.186631
     64          6           0       -4.030078    4.476680   -4.490286
     65          1           0       -3.131129    3.854629   -4.384503
     66          1           0       -4.833834    3.848766   -4.878575
     67          6           0       -4.422028    4.967816   -3.103675
     68          8           0       -5.106557    4.282486   -2.340294
     69          7           0       -3.963817    6.187849   -2.720525
     70          1           0       -3.393445    6.706996   -3.371617
     71          6           0       -4.286753    6.812001   -1.435936
     72          1           0       -4.836533    6.059664   -0.867801
     73          6           0       -3.064119    7.295036   -0.667254
     74          1           0       -2.596914    8.135013   -1.202147
     75          1           0       -3.428579    7.707987    0.284457
     76          6           0       -1.995798    6.234578   -0.379336
     77          1           0       -1.499191    5.979197   -1.323517
     78          6           0       -0.952488    6.820221    0.569890
     79          1           0       -0.101460    6.142886    0.683117
     80          1           0       -0.565713    7.782414    0.212784
     81          1           0       -1.393686    6.984632    1.560987
     82          6           0       -2.571369    4.943644    0.199707
     83          1           0       -3.125807    5.144687    1.125121
     84          1           0       -3.238323    4.429615   -0.499342
     85          1           0       -1.760461    4.251276    0.444131
     86          1           0       -4.970502    7.652600   -1.610869
     87          1           0       -7.442157    5.352374    3.081671
     88          6           0       -6.725656    4.604852    3.441254
     89          1           0       -7.282821    3.695773    3.685106
     90          6           0       -5.644458    4.323318    2.391563
     91          1           0       -5.103211    5.264739    2.217446
     92          6           0       -4.638219    3.287879    2.901950
     93          1           0       -4.166069    3.616234    3.835169
     94          1           0       -5.137083    2.329270    3.100456
     95          1           0       -3.845166    3.101804    2.169879
     96          6           0       -6.249133    3.886969    1.054240
     97          1           0       -6.689451    2.884358    1.140749
     98          1           0       -7.042040    4.569132    0.727078
     99          1           0       -5.497855    3.851592    0.258929
    100          1           0       -6.281472    4.980901    4.370125
    101          1           0        3.054354   -4.248781    7.532558
    102          6           0        2.023816   -3.931596    7.723574
    103          1           0        1.804060   -4.115011    8.780923
    104          6           0        1.824504   -2.452525    7.370774
    105          1           0        0.796824   -2.157763    7.613848
    106          1           0        2.478525   -1.842542    8.008069
    107          6           0        2.105056   -2.133863    5.917643
    108          6           0        1.101086   -1.657006    5.072104
    109          1           0        0.095173   -1.520271    5.465005
    110          6           0        1.369595   -1.350476    3.739088
    111          1           0        0.572351   -0.988083    3.094556
    112          6           0        2.651376   -1.524721    3.228133
    113          1           0        2.874330   -1.305245    2.189390
    114          6           0        3.658052   -2.013714    4.056830
    115          1           0        4.650020   -2.173435    3.646798
    116          6           0        3.387284   -2.309272    5.388010
    117          1           0        4.184206   -2.681723    6.028766
    118          1           0        1.366123   -4.565040    7.119175
    119          1           0       -2.946083   -1.316280    5.822664
    120          6           0       -3.713828   -1.084585    5.072809
    121          1           0       -4.286878   -0.220924    5.427764
    122          6           0       -3.066525   -0.805210    3.714413
    123          1           0       -3.869087   -0.563096    3.000872
    124          6           0       -2.137130    0.409011    3.783050
    125          1           0       -1.298719    0.223672    4.466722
    126          1           0       -2.671398    1.296993    4.140358
    127          1           0       -1.718450    0.646848    2.798817
    128          6           0       -2.337332   -2.047928    3.200415
    129          1           0       -1.547166   -2.357293    3.895878
    130          1           0       -1.867375   -1.867862    2.228232
    131          1           0       -3.027344   -2.892535    3.085099
    132          1           0       -4.398641   -1.938551    5.017637
    133          1           0      -10.143215    0.284152    3.995075
    134          6           0       -9.980827    1.075194    3.256223
    135          1           0      -10.479512    1.981755    3.613528
    136          6           0       -8.492841    1.339821    3.031928
    137          1           0       -8.028410    1.658878    3.972929
    138          1           0       -8.385175    2.177170    2.333008
    139          6           0       -7.690958    0.164139    2.470258
    140          1           0       -8.131905   -0.196783    1.532099
    141          1           0       -6.663445    0.492802    2.262752
    142         16           0       -7.614079   -1.214055    3.662032
    143          6           0       -6.536704   -2.349690    2.749893
    144          1           0       -6.962119   -2.607515    1.775427
    145          1           0       -5.535570   -1.930352    2.612036
    146          1           0       -6.450127   -3.260783    3.346291
    147          1           0      -10.467268    0.765274    2.324403
    148          1           0       -6.251259   -5.642637    3.431265
    149          6           0       -5.187048   -5.904745    3.423846
    150          1           0       -5.119759   -6.988813    3.563233
    151          6           0       -4.516344   -5.456409    2.126205
    152          1           0       -4.657809   -4.373164    2.003828
    153          1           0       -5.019583   -5.922979    1.267492
    154          6           0       -3.013231   -5.759615    2.035252
    155          1           0       -2.527138   -5.338215    2.929547
    156          6           0       -2.723836   -7.262429    2.003819
    157          1           0       -3.108603   -7.781491    2.888699
    158          1           0       -3.178544   -7.720530    1.115762
    159          1           0       -1.644437   -7.444011    1.956863
    160          6           0       -2.424800   -5.079160    0.801408
    161          1           0       -2.518298   -3.990278    0.871647
    162          1           0       -2.943463   -5.402562   -0.107978
    163          1           0       -1.365228   -5.315947    0.667974
    164          1           0       -4.716161   -5.427585    4.292396
    165          1           0        0.134280   -6.153720    3.322332
    166          6           0        1.133367   -6.344880    2.911300
    167          1           0        1.008983   -6.949299    2.003427
    168          6           0        1.857085   -5.032695    2.589399
    169          1           0        1.955553   -4.455467    3.519608
    170          6           0        3.263231   -5.289408    2.043102
    171          1           0        3.783078   -4.347653    1.832907
    172          1           0        3.869066   -5.866175    2.753352
    173          1           0        3.213809   -5.861093    1.105871
    174          6           0        1.047693   -4.192460    1.602826
    175          1           0        1.565553   -3.255500    1.374490
    176          1           0        0.062322   -3.939600    2.012219
    177          1           0        0.893557   -4.730890    0.657201
    178          1           0        1.692584   -6.943084    3.640751
    179          1           0        6.299504   -4.218389    2.199905
    180          6           0        7.078748   -3.986726    1.468721
    181          1           0        6.733502   -4.351201    0.496792
    182          6           0        7.346878   -2.492744    1.410557
    183          1           0        7.693989   -2.109954    2.379544
    184          1           0        8.131408   -2.249793    0.688338
    185          6           0        6.111159   -1.712287    1.037737
    186          8           0        4.981039   -2.158833    1.090924
    187          8           0        6.385579   -0.467077    0.672847
    188          1           0        5.534732   -0.036141    0.397347
    189          1           0        7.987267   -4.533174    1.741374
    190          1           0       10.955390   -0.517144   -4.328520
    191          6           0       10.313797   -1.086494   -3.647331
    192          1           0       10.959266   -1.721739   -3.028351
    193          6           0        9.469291   -0.159940   -2.775920
    194          1           0       10.127281    0.483576   -2.176247
    195          1           0        8.874728    0.511654   -3.406919
    196          6           0        8.546563   -0.914760   -1.817917
    197          1           0        9.125463   -1.679410   -1.285168
    198          1           0        8.121269   -0.247576   -1.061732
    199         16           0        7.165086   -1.811760   -2.601369
    200          6           0        6.030862   -0.431102   -2.924863
    201          1           0        6.481191    0.297098   -3.605265
    202          1           0        5.757891    0.063031   -1.988665
    203          1           0        5.119965   -0.819003   -3.393735
    204          1           0        9.673659   -1.740932   -4.247796
    205          1           0        5.354129   -4.402104   -3.270456
    206          6           0        4.913543   -4.767485   -2.337792
    207          1           0        5.737286   -5.052313   -1.674193
    208          6           0        4.036660   -3.697535   -1.690825
    209          1           0        3.615709   -4.040882   -0.738875
    210          1           0        3.206276   -3.406714   -2.343138
    211          1           0        4.624015   -2.800517   -1.478119
    212          1           0        4.343240   -5.675010   -2.571536
    213          1           0        1.175713   -9.103539   -2.297727
    214          6           0        0.384383   -9.048253   -1.542816
    215          1           0        0.549884   -9.842731   -0.806102
    216          6           0        0.376234   -7.664769   -0.871199
    217          1           0       -0.386444   -7.661035   -0.079341
    218          1           0        1.338117   -7.506057   -0.366490
    219          6           0        0.122277   -6.519152   -1.808163
    220          6           0        1.036787   -5.595474   -2.249988
    221          1           0        2.088072   -5.516770   -2.008678
    222          7           0        0.450382   -4.689670   -3.096578
    223          1           0        0.886886   -3.872746   -3.550777
    224          6           0       -0.879055   -5.000844   -3.206625
    225          6           0       -1.894967   -4.334938   -3.901501
    226          1           0       -1.675971   -3.438168   -4.473356
    227          6           0       -3.177992   -4.845909   -3.812198
    228          1           0       -3.991315   -4.327886   -4.313086
    229          6           0       -3.444514   -6.004159   -3.052376
    230          1           0       -4.462923   -6.380181   -3.002074
    231          6           0       -2.436264   -6.660376   -2.365326
    232          1           0       -2.657289   -7.545021   -1.771371
    233          6           0       -1.127599   -6.153942   -2.422123
    234          1           0       -0.568451   -9.240450   -2.047848
    235          6           0        3.064643    0.818523   -0.189587
    236          8           0        4.300515    0.964101   -0.071397
    237          6           0        2.460634   -0.472159   -0.344077
    238          6           0        1.139226   -0.598702   -0.637022
    239          6           0        0.194483    0.579332   -0.604101
    240          6           0        0.778628    1.745672    0.196090
    241          6           0        2.196561    2.037752   -0.265859
    242          6           0        0.612336   -1.901379   -1.146274
    243          6           0       -0.831218   -2.211914   -0.754382
    244          6           0       -1.736448   -1.004524   -0.994964
    245          6           0       -1.220683    0.177009   -0.144665
    246          6           0       -3.199252   -1.272835   -0.667893
    247          6           0       -4.092717   -0.029271   -0.865037
    248          6           0       -3.626696    1.064853    0.090214
    249          6           0       -2.150064    1.403581   -0.135907
    250          6           0       -3.949950   -2.378165   -1.420843
    251          6           0       -5.441647   -2.040289   -1.180330
    252          6           0       -5.451630   -0.653009   -0.513455
    253          6           0       -4.092144    0.478748   -2.316642
    254          8           0       -6.609057    0.107075   -0.911619
    255          1           0        3.125552   -1.330771   -0.356007
    256          1           0        0.107335    0.885978   -1.659465
    257          1           0        0.771261    1.503013    1.268980
    258          1           0        0.171328    2.645987    0.065375
    259          1           0        2.172954    2.340189   -1.321641
    260          1           0        2.669702    2.856626    0.285049
    261          1           0        1.284668   -2.718803   -0.870345
    262          1           0        0.682483   -1.823360   -2.244009
    263          1           0       -0.873955   -2.493451    0.306216
    264          1           0       -1.175675   -3.080412   -1.324748
    265          1           0       -1.654099   -0.733599   -2.057203
    266          1           0       -1.149239   -0.194380    0.891924
    267          1           0       -3.245237   -1.519767    0.409023
    268          1           0       -3.766038    0.721770    1.127304
    269          1           0       -4.230291    1.974592   -0.028791
    270          1           0       -2.032338    1.948460   -1.081805
    271          1           0       -1.831927    2.084355    0.661996
    272          1           0       -3.684317   -3.380375   -1.079848
    273          1           0       -3.727394   -2.341107   -2.491025
    274          1           0       -5.944647   -2.780131   -0.548831
    275          1           0       -5.980820   -1.997086   -2.127162
    276          1           0       -5.501467   -0.769363    0.578541
    277          1           0       -4.526334   -0.247516   -3.011042
    278          1           0       -4.666955    1.404758   -2.392504
    279          1           0       -3.085113    0.719175   -2.666046
    280          1           0       -6.816733    0.723611   -0.198857
    281          8           0        0.594574    0.431803   -3.834029
    282          1           0        0.261258   -0.459195   -4.036150
    283          1           0        1.559284    0.243369   -3.956133
    284          8           0       -6.974372    2.291539   -2.777461
    285          1           0       -6.299693    2.985003   -2.627115
    286          1           0       -6.729969    1.562341   -2.179925
    287          8           0       -0.995327    2.643553   -3.367682
    288          1           0       -0.465511    1.866838   -3.657979
    289          1           0       -0.385645    3.135797   -2.804548
    290          8           0       -8.032012   -1.023738   -3.324182
    291          1           0       -7.739735   -0.731523   -2.447295
    292          1           0       -7.698130   -0.328616   -3.922014
    293          8           0       -6.655078    0.836990   -4.995489
    294          1           0       -6.689509    1.483318   -4.245154
    295          1           0       -7.274839    1.175547   -5.650542
    296          8           0       -5.619165   -1.921406   -4.632699
    297          1           0       -5.615596   -1.010028   -4.961475
    298          1           0       -6.484933   -1.965403   -4.191767
 ---------------------------------------------------------------------
 Rotational constants (GHZ):           0.0120718           0.0097893           0.0081053
 Standard basis: 6-31G(d) (6D, 7F)
 There are  2099 symmetry adapted cartesian basis functions of A   symmetry.
 There are  2099 symmetry adapted basis functions of A   symmetry.
  2099 basis functions,  4000 primitive gaussians,  2099 cartesian basis functions
   463 alpha electrons      463 beta electrons
       nuclear repulsion energy     31018.2588808202 Hartrees.
 NAtoms=  298 NActive=  298 NUniq=  298 SFac= 1.00D+00 NAtFMM=   60 NAOKFM=T Big=T
 Integral buffers will be    131072 words long.
 Raffenetti 2 integral format.
 Two-electron integral symmetry is turned on.
 Nuclear repulsion after empirical dispersion term =    31017.8804681620 Hartrees.
 One-electron integrals computed using PRISM.
 NBasis=  2099 RedAO= T EigKep=  3.58D-04  NBF=  2099
 NBsUse=  2099 1.00D-06 EigRej= -1.00D+00 NBFU=  2099
 ExpMin= 1.17D-01 ExpMax= 2.19D+04 ExpMxC= 3.30D+03 IAcc=3 IRadAn=         5 AccDes= 0.00D+00
 Harris functional with IExCor= 4639 and IRadAn=       5 diagonalized for initial guess.
 HarFok:  IExCor= 4639 AccDes= 0.00D+00 IRadAn=         5 IDoV= 1 UseB2=F ITyADJ=14
 ICtDFT=  3500011 ScaDFX=  1.000000  1.000000  1.000000  1.000000
 FoFCou: FMM=F IPFlag=           0 FMFlag=      100000 FMFlg1=        2001
         NFxFlg=           0 DoJE=T BraDBF=F KetDBF=T FulRan=T
         wScrn=  0.000000 ICntrl=       500 IOpCl=  0 I1Cent=   200000004 NGrid=           0
         NMat0=    1 NMatS0=      1 NMatT0=    0 NMatD0=    1 NMtDS0=    0 NMtDT0=    0
 Petite list used in FoFCou.
 Requested convergence on RMS density matrix=1.00D-08 within 128 cycles.
 Requested convergence on MAX density matrix=1.00D-06.
 Requested convergence on             energy=1.00D-06.
 No special actions if energy rises.
 Integral accuracy reduced to 1.0D-05 until final iterations.
 Initial convergence to 1.0D-05 achieved.  Increase integral accuracy.
 SCF Done:  E(RwB97XD) =  -5801.60370888     A.U. after   15 cycles
            NFock= 15  Conv=0.36D-08     -V/T= 2.0086
 Hyperfine terms turned off by default for NAtoms > 100.

 **********************************************************************

            Population analysis using the SCF Density.

 **********************************************************************

 Orbital symmetries:
       Occupied  (A) (A) (A) (A) (A) (A) (A) (A) (A) (A) (A) (A)
                 (A) (A) (A) (A) (A) (A) (A) (A) (A) (A) (A) (A)
                 (A) (A) (A) (A) (A) (A) (A) (A) (A) (A) (A) (A)
                 (A) (A) (A) (A) (A) (A) (A) (A) (A) (A) (A) (A)
                 (A) (A) (A) (A) (A) (A) (A) (A) (A) (A) (A) (A)
                 (A) (A) (A) (A) (A) (A) (A) (A) (A) (A) (A) (A)
                 (A) (A) (A) (A) (A) (A) (A) (A) (A) (A) (A) (A)
                 (A) (A) (A) (A) (A) (A) (A) (A) (A) (A) (A) (A)
                 (A) (A) (A) (A) (A) (A) (A) (A) (A) (A) (A) (A)
                 (A) (A) (A) (A) (A) (A) (A) (A) (A) (A) (A) (A)
                 (A) (A) (A) (A) (A) (A) (A) (A) (A) (A) (A) (A)
                 (A) (A) (A) (A) (A) (A) (A) (A) (A) (A) (A) (A)
                 (A) (A) (A) (A) (A) (A) (A) (A) (A) (A) (A) (A)
                 (A) (A) (A) (A) (A) (A) (A) (A) (A) (A) (A) (A)
                 (A) (A) (A) (A) (A) (A) (A) (A) (A) (A) (A) (A)
                 (A) (A) (A) (A) (A) (A) (A) (A) (A) (A) (A) (A)
                 (A) (A) (A) (A) (A) (A) (A) (A) (A) (A) (A) (A)
                 (A) (A) (A) (A) (A) (A) (A) (A) (A) (A) (A) (A)
                 (A) (A) (A) (A) (A) (A) (A) (A) (A) (A) (A) (A)
                 (A) (A) (A) (A) (A) (A) (A) (A) (A) (A) (A) (A)
                 (A) (A) (A) (A) (A) (A) (A) (A) (A) (A) (A) (A)
                 (A) (A) (A) (A) (A) (A) (A) (A) (A) (A) (A) (A)
                 (A) (A) (A) (A) (A) (A) (A) (A) (A) (A) (A) (A)
                 (A) (A) (A) (A) (A) (A) (A) (A) (A) (A) (A) (A)
                 (A) (A) (A) (A) (A) (A) (A) (A) (A) (A) (A) (A)
                 (A) (A) (A) (A) (A) (A) (A) (A) (A) (A) (A) (A)
                 (A) (A) (A) (A) (A) (A) (A) (A) (A) (A) (A) (A)
                 (A) (A) (A) (A) (A) (A) (A) (A) (A) (A) (A) (A)
                 (A) (A) (A) (A) (A) (A) (A) (A) (A) (A) (A) (A)
                 (A) (A) (A) (A) (A) (A) (A) (A) (A) (A) (A) (A)
                 (A) (A) (A) (A) (A) (A) (A) (A) (A) (A) (A) (A)
                 (A) (A) (A) (A) (A) (A) (A) (A) (A) (A) (A) (A)
                 (A) (A) (A) (A) (A) (A) (A) (A) (A) (A) (A) (A)
                 (A) (A) (A) (A) (A) (A) (A) (A) (A) (A) (A) (A)
                 (A) (A) (A) (A) (A) (A) (A) (A) (A) (A) (A) (A)
                 (A) (A) (A) (A) (A) (A) (A) (A) (A) (A) (A) (A)
                 (A) (A) (A) (A) (A) (A) (A) (A) (A) (A) (A) (A)
                 (A) (A) (A) (A) (A) (A) (A) (A) (A) (A) (A) (A)
                 (A) (A) (A) (A) (A) (A) (A)
       Virtual   (A) (A) (A) (A) (A) (A) (A) (A) (A) (A) (A) (A)
                 (A) (A) (A) (A) (A) (A) (A) (A) (A) (A) (A) (A)
                 (A) (A) (A) (A) (A) (A) (A) (A) (A) (A) (A) (A)
                 (A) (A) (A) (A) (A) (A) (A) (A) (A) (A) (A) (A)
                 (A) (A) (A) (A) (A) (A) (A) (A) (A) (A) (A) (A)
                 (A) (A) (A) (A) (A) (A) (A) (A) (A) (A) (A) (A)
                 (A) (A) (A) (A) (A) (A) (A) (A) (A) (A) (A) (A)
                 (A) (A) (A) (A) (A) (A) (A) (A) (A) (A) (A) (A)
                 (A) (A) (A) (A) (A) (A) (A) (A) (A) (A) (A) (A)
                 (A) (A) (A) (A) (A) (A) (A) (A) (A) (A) (A) (A)
                 (A) (A) (A) (A) (A) (A) (A) (A) (A) (A) (A) (A)
                 (A) (A) (A) (A) (A) (A) (A) (A) (A) (A) (A) (A)
                 (A) (A) (A) (A) (A) (A) (A) (A) (A) (A) (A) (A)
                 (A) (A) (A) (A) (A) (A) (A) (A) (A) (A) (A) (A)
                 (A) (A) (A) (A) (A) (A) (A) (A) (A) (A) (A) (A)
                 (A) (A) (A) (A) (A) (A) (A) (A) (A) (A) (A) (A)
                 (A) (A) (A) (A) (A) (A) (A) (A) (A) (A) (A) (A)
                 (A) (A) (A) (A) (A) (A) (A) (A) (A) (A) (A) (A)
                 (A) (A) (A) (A) (A) (A) (A) (A) (A) (A) (A) (A)
                 (A) (A) (A) (A) (A) (A) (A) (A) (A) (A) (A) (A)
                 (A) (A) (A) (A) (A) (A) (A) (A) (A) (A) (A) (A)
                 (A) (A) (A) (A) (A) (A) (A) (A) (A) (A) (A) (A)
                 (A) (A) (A) (A) (A) (A) (A) (A) (A) (A) (A) (A)
                 (A) (A) (A) (A) (A) (A) (A) (A) (A) (A) (A) (A)
                 (A) (A) (A) (A) (A) (A) (A) (A) (A) (A) (A) (A)
                 (A) (A) (A) (A) (A) (A) (A) (A) (A) (A) (A) (A)
                 (A) (A) (A) (A) (A) (A) (A) (A) (A) (A) (A) (A)
                 (A) (A) (A) (A) (A) (A) (A) (A) (A) (A) (A) (A)
                 (A) (A) (A) (A) (A) (A) (A) (A) (A) (A) (A) (A)
                 (A) (A) (A) (A) (A) (A) (A) (A) (A) (A) (A) (A)
                 (A) (A) (A) (A) (A) (A) (A) (A) (A) (A) (A) (A)
                 (A) (A) (A) (A) (A) (A) (A) (A) (A) (A) (A) (A)
                 (A) (A) (A) (A) (A) (A) (A) (A) (A) (A) (A) (A)
                 (A) (A) (A) (A) (A) (A) (A) (A) (A) (A) (A) (A)
                 (A) (A) (A) (A) (A) (A) (A) (A) (A) (A) (A) (A)
                 (A) (A) (A) (A) (A) (A) (A) (A) (A) (A) (A) (A)
                 (A) (A) (A) (A) (A) (A) (A) (A) (A) (A) (A) (A)
                 (A) (A) (A) (A) (A) (A) (A) (A) (A) (A) (A) (A)
                 (A) (A) (A) (A) (A) (A) (A) (A) (A) (A) (A) (A)
                 (A) (A) (A) (A) (A) (A) (A) (A) (A) (A) (A) (A)
                 (A) (A) (A) (A) (A) (A) (A) (A) (A) (A) (A) (A)
                 (A) (A) (A) (A) (A) (A) (A) (A) (A) (A) (A) (A)
                 (A) (A) (A) (A) (A) (A) (A) (A) (A) (A) (A) (A)
                 (A) (A) (A) (A) (A) (A) (A) (A) (A) (A) (A) (A)
                 (A) (A) (A) (A) (A) (A) (A) (A) (A) (A) (A) (A)
                 (A) (A) (A) (A) (A) (A) (A) (A) (A) (A) (A) (A)
                 (A) (A) (A) (A) (A) (A) (A) (A) (A) (A) (A) (A)
                 (A) (A) (A) (A) (A) (A) (A) (A) (A) (A) (A) (A)
                 (A) (A) (A) (A) (A) (A) (A) (A) (A) (A) (A) (A)
                 (A) (A) (A) (A) (A) (A) (A) (A) (A) (A) (A) (A)
                 (A) (A) (A) (A) (A) (A) (A) (A) (A) (A) (A) (A)
                 (A) (A) (A) (A) (A) (A) (A) (A) (A) (A) (A) (A)
                 (A) (A) (A) (A) (A) (A) (A) (A) (A) (A) (A) (A)
                 (A) (A) (A) (A) (A) (A) (A) (A) (A) (A) (A) (A)
                 (A) (A) (A) (A) (A) (A) (A) (A) (A) (A) (A) (A)
                 (A) (A) (A) (A) (A) (A) (A) (A) (A) (A) (A) (A)
                 (A) (A) (A) (A) (A) (A) (A) (A) (A) (A) (A) (A)
                 (A) (A) (A) (A) (A) (A) (A) (A) (A) (A) (A) (A)
                 (A) (A) (A) (A) (A) (A) (A) (A) (A) (A) (A) (A)
                 (A) (A) (A) (A) (A) (A) (A) (A) (A) (A) (A) (A)
                 (A) (A) (A) (A) (A) (A) (A) (A) (A) (A) (A) (A)
                 (A) (A) (A) (A) (A) (A) (A) (A) (A) (A) (A) (A)
                 (A) (A) (A) (A) (A) (A) (A) (A) (A) (A) (A) (A)
                 (A) (A) (A) (A) (A) (A) (A) (A) (A) (A) (A) (A)
                 (A) (A) (A) (A) (A) (A) (A) (A) (A) (A) (A) (A)
                 (A) (A) (A) (A) (A) (A) (A) (A) (A) (A) (A) (A)
                 (A) (A) (A) (A) (A) (A) (A) (A) (A) (A) (A) (A)
                 (A) (A) (A) (A) (A) (A) (A) (A) (A) (A) (A) (A)
                 (A) (A) (A) (A) (A) (A) (A) (A) (A) (A) (A) (A)
                 (A) (A) (A) (A) (A) (A) (A) (A) (A) (A) (A) (A)
                 (A) (A) (A) (A) (A) (A) (A) (A) (A) (A) (A) (A)
                 (A) (A) (A) (A) (A) (A) (A) (A) (A) (A) (A) (A)
                 (A) (A) (A) (A) (A) (A) (A) (A) (A) (A) (A) (A)
                 (A) (A) (A) (A) (A) (A) (A) (A) (A) (A) (A) (A)
                 (A) (A) (A) (A) (A) (A) (A) (A) (A) (A) (A) (A)
                 (A) (A) (A) (A) (A) (A) (A) (A) (A) (A) (A) (A)
                 (A) (A) (A) (A) (A) (A) (A) (A) (A) (A) (A) (A)
                 (A) (A) (A) (A) (A) (A) (A) (A) (A) (A) (A) (A)
                 (A) (A) (A) (A) (A) (A) (A) (A) (A) (A) (A) (A)
                 (A) (A) (A) (A) (A) (A) (A) (A) (A) (A) (A) (A)
                 (A) (A) (A) (A) (A) (A) (A) (A) (A) (A) (A) (A)
                 (A) (A) (A) (A) (A) (A) (A) (A) (A) (A) (A) (A)
                 (A) (A) (A) (A) (A) (A) (A) (A) (A) (A) (A) (A)
                 (A) (A) (A) (A) (A) (A) (A) (A) (A) (A) (A) (A)
                 (A) (A) (A) (A) (A) (A) (A) (A) (A) (A) (A) (A)
                 (A) (A) (A) (A) (A) (A) (A) (A) (A) (A) (A) (A)
                 (A) (A) (A) (A) (A) (A) (A) (A) (A) (A) (A) (A)
                 (A) (A) (A) (A) (A) (A) (A) (A) (A) (A) (A) (A)
                 (A) (A) (A) (A) (A) (A) (A) (A) (A) (A) (A) (A)
                 (A) (A) (A) (A) (A) (A) (A) (A) (A) (A) (A) (A)
                 (A) (A) (A) (A) (A) (A) (A) (A) (A) (A) (A) (A)
                 (A) (A) (A) (A) (A) (A) (A) (A) (A) (A) (A) (A)
                 (A) (A) (A) (A) (A) (A) (A) (A) (A) (A) (A) (A)
                 (A) (A) (A) (A) (A) (A) (A) (A) (A) (A) (A) (A)
                 (A) (A) (A) (A) (A) (A) (A) (A) (A) (A) (A) (A)
                 (A) (A) (A) (A) (A) (A) (A) (A) (A) (A) (A) (A)
                 (A) (A) (A) (A) (A) (A) (A) (A) (A) (A) (A) (A)
                 (A) (A) (A) (A) (A) (A) (A) (A) (A) (A) (A) (A)
                 (A) (A) (A) (A) (A) (A) (A) (A) (A) (A) (A) (A)
                 (A) (A) (A) (A) (A) (A) (A) (A) (A) (A) (A) (A)
                 (A) (A) (A) (A) (A) (A) (A) (A) (A) (A) (A) (A)
                 (A) (A) (A) (A) (A) (A) (A) (A) (A) (A) (A) (A)
                 (A) (A) (A) (A) (A) (A) (A) (A) (A) (A) (A) (A)
                 (A) (A) (A) (A) (A) (A) (A) (A) (A) (A) (A) (A)
                 (A) (A) (A) (A) (A) (A) (A) (A) (A) (A) (A) (A)
                 (A) (A) (A) (A) (A) (A) (A) (A) (A) (A) (A) (A)
                 (A) (A) (A) (A) (A) (A) (A) (A) (A) (A) (A) (A)
                 (A) (A) (A) (A) (A) (A) (A) (A) (A) (A) (A) (A)
                 (A) (A) (A) (A) (A) (A) (A) (A) (A) (A) (A) (A)
                 (A) (A) (A) (A) (A) (A) (A) (A) (A) (A) (A) (A)
                 (A) (A) (A) (A) (A) (A) (A) (A) (A) (A) (A) (A)
                 (A) (A) (A) (A) (A) (A) (A) (A) (A) (A) (A) (A)
                 (A) (A) (A) (A) (A) (A) (A) (A) (A) (A) (A) (A)
                 (A) (A) (A) (A) (A) (A) (A) (A) (A) (A) (A) (A)
                 (A) (A) (A) (A) (A) (A) (A) (A) (A) (A) (A) (A)
                 (A) (A) (A) (A) (A) (A) (A) (A) (A) (A) (A) (A)
                 (A) (A) (A) (A) (A) (A) (A) (A) (A) (A) (A) (A)
                 (A) (A) (A) (A) (A) (A) (A) (A) (A) (A) (A) (A)
                 (A) (A) (A) (A) (A) (A) (A) (A) (A) (A) (A) (A)
                 (A) (A) (A) (A) (A) (A) (A) (A) (A) (A) (A) (A)
                 (A) (A) (A) (A) (A) (A) (A) (A) (A) (A) (A) (A)
                 (A) (A) (A) (A) (A) (A) (A) (A) (A) (A) (A) (A)
                 (A) (A) (A) (A) (A) (A) (A) (A) (A) (A) (A) (A)
                 (A) (A) (A) (A) (A) (A) (A) (A) (A) (A) (A) (A)
                 (A) (A) (A) (A) (A) (A) (A) (A) (A) (A) (A) (A)
                 (A) (A) (A) (A) (A) (A) (A) (A) (A) (A) (A) (A)
                 (A) (A) (A) (A) (A) (A) (A) (A) (A) (A) (A) (A)
                 (A) (A) (A) (A) (A) (A) (A) (A) (A) (A) (A) (A)
                 (A) (A) (A) (A) (A) (A) (A) (A) (A) (A) (A) (A)
                 (A) (A) (A) (A) (A) (A) (A) (A) (A) (A) (A) (A)
                 (A) (A) (A) (A) (A) (A) (A) (A) (A) (A) (A) (A)
                 (A) (A) (A) (A) (A) (A) (A) (A) (A) (A) (A) (A)
                 (A) (A) (A) (A) (A) (A) (A) (A) (A) (A) (A) (A)
                 (A) (A) (A) (A) (A) (A) (A) (A) (A) (A) (A) (A)
                 (A) (A) (A) (A) (A) (A) (A) (A) (A) (A) (A) (A)
                 (A) (A) (A) (A) (A) (A) (A) (A) (A) (A) (A) (A)
                 (A) (A) (A) (A)
 The electronic state is 1-A.
 Alpha  occ. eigenvalues --  -88.98252 -88.95225 -19.23879 -19.23148 -19.22992
 Alpha  occ. eigenvalues --  -19.21890 -19.21801 -19.20224 -19.20129 -19.19604
 Alpha  occ. eigenvalues --  -19.18575 -19.17332 -19.17203 -19.15498 -19.15215
 Alpha  occ. eigenvalues --  -19.12021 -19.11783 -14.44223 -14.38200 -10.36784
 Alpha  occ. eigenvalues --  -10.35774 -10.33550 -10.29605 -10.29573 -10.29050
 Alpha  occ. eigenvalues --  -10.28842 -10.28270 -10.28048 -10.26878 -10.26780
 Alpha  occ. eigenvalues --  -10.25848 -10.25580 -10.25355 -10.25129 -10.25102
 Alpha  occ. eigenvalues --  -10.24730 -10.24530 -10.24527 -10.24438 -10.24409
 Alpha  occ. eigenvalues --  -10.24253 -10.24247 -10.24188 -10.24146 -10.24138
 Alpha  occ. eigenvalues --  -10.24072 -10.24038 -10.24013 -10.23996 -10.23923
 Alpha  occ. eigenvalues --  -10.23876 -10.23685 -10.23672 -10.23652 -10.23625
 Alpha  occ. eigenvalues --  -10.23603 -10.23543 -10.23522 -10.23441 -10.23439
 Alpha  occ. eigenvalues --  -10.23438 -10.23403 -10.23389 -10.23383 -10.23366
 Alpha  occ. eigenvalues --  -10.23318 -10.23280 -10.23202 -10.23179 -10.23127
 Alpha  occ. eigenvalues --  -10.22965 -10.22922 -10.22837 -10.22780 -10.22750
 Alpha  occ. eigenvalues --  -10.22713 -10.22666 -10.22651 -10.22621 -10.22584
 Alpha  occ. eigenvalues --  -10.22562 -10.22513 -10.22439 -10.22347 -10.22213
 Alpha  occ. eigenvalues --  -10.22197 -10.22175 -10.22169 -10.21989 -10.21812
 Alpha  occ. eigenvalues --  -10.21773 -10.21642 -10.21638 -10.21609 -10.21517
 Alpha  occ. eigenvalues --  -10.21220 -10.21171 -10.20886 -10.20821 -10.20785
 Alpha  occ. eigenvalues --  -10.20645 -10.20302 -10.20208 -10.20102 -10.20052
 Alpha  occ. eigenvalues --  -10.20036 -10.19965 -10.19954 -10.19909 -10.19807
 Alpha  occ. eigenvalues --  -10.19739 -10.19683 -10.19610 -10.19582 -10.19219
 Alpha  occ. eigenvalues --   -8.00151  -7.97042  -5.95205  -5.94819  -5.94112
 Alpha  occ. eigenvalues --   -5.92090  -5.91699  -5.91042  -1.13092  -1.09977
 Alpha  occ. eigenvalues --   -1.09865  -1.08817  -1.08224  -1.08094  -1.04592
 Alpha  occ. eigenvalues --   -1.03571  -1.03214  -1.02758  -1.01035  -1.00898
 Alpha  occ. eigenvalues --   -0.98827  -0.98659  -0.98265  -0.97868  -0.93747
 Alpha  occ. eigenvalues --   -0.90344  -0.89560  -0.89506  -0.89267  -0.88403
 Alpha  occ. eigenvalues --   -0.86933  -0.86772  -0.85409  -0.84546  -0.84477
 Alpha  occ. eigenvalues --   -0.84188  -0.84167  -0.83939  -0.83621  -0.82586
 Alpha  occ. eigenvalues --   -0.82570  -0.82472  -0.82230  -0.81964  -0.81704
 Alpha  occ. eigenvalues --   -0.81415  -0.81283  -0.80988  -0.79602  -0.78611
 Alpha  occ. eigenvalues --   -0.78463  -0.78123  -0.77621  -0.77220  -0.77016
 Alpha  occ. eigenvalues --   -0.76986  -0.76647  -0.76330  -0.76005  -0.75808
 Alpha  occ. eigenvalues --   -0.75542  -0.75476  -0.75097  -0.74356  -0.73643
 Alpha  occ. eigenvalues --   -0.73522  -0.73278  -0.72972  -0.72872  -0.72194
 Alpha  occ. eigenvalues --   -0.72114  -0.72013  -0.71707  -0.71582  -0.71250
 Alpha  occ. eigenvalues --   -0.70808  -0.70550  -0.69988  -0.69718  -0.69423
 Alpha  occ. eigenvalues --   -0.69336  -0.68924  -0.67204  -0.67167  -0.67151
 Alpha  occ. eigenvalues --   -0.66971  -0.66421  -0.65361  -0.65194  -0.64954
 Alpha  occ. eigenvalues --   -0.64635  -0.64500  -0.64447  -0.64154  -0.63622
 Alpha  occ. eigenvalues --   -0.63124  -0.62565  -0.62337  -0.61983  -0.61738
 Alpha  occ. eigenvalues --   -0.61416  -0.61303  -0.60965  -0.60585  -0.60519
 Alpha  occ. eigenvalues --   -0.60492  -0.60072  -0.59496  -0.59219  -0.58591
 Alpha  occ. eigenvalues --   -0.58486  -0.58358  -0.57909  -0.57768  -0.57109
 Alpha  occ. eigenvalues --   -0.56999  -0.56634  -0.55923  -0.55767  -0.55406
 Alpha  occ. eigenvalues --   -0.55352  -0.54452  -0.54132  -0.53853  -0.53687
 Alpha  occ. eigenvalues --   -0.52926  -0.52477  -0.52248  -0.52011  -0.51932
 Alpha  occ. eigenvalues --   -0.51725  -0.51337  -0.51146  -0.51017  -0.50778
 Alpha  occ. eigenvalues --   -0.50725  -0.50628  -0.50400  -0.50072  -0.50030
 Alpha  occ. eigenvalues --   -0.49901  -0.49891  -0.49751  -0.49607  -0.49558
 Alpha  occ. eigenvalues --   -0.49440  -0.49199  -0.49144  -0.48849  -0.48741
 Alpha  occ. eigenvalues --   -0.48694  -0.48350  -0.48053  -0.47940  -0.47860
 Alpha  occ. eigenvalues --   -0.47732  -0.47627  -0.47264  -0.47245  -0.47117
 Alpha  occ. eigenvalues --   -0.47090  -0.47006  -0.46872  -0.46779  -0.46751
 Alpha  occ. eigenvalues --   -0.46535  -0.46390  -0.46295  -0.46134  -0.46104
 Alpha  occ. eigenvalues --   -0.45985  -0.45888  -0.45863  -0.45710  -0.45565
 Alpha  occ. eigenvalues --   -0.45513  -0.45435  -0.45349  -0.45270  -0.45178
 Alpha  occ. eigenvalues --   -0.45010  -0.44742  -0.44699  -0.44684  -0.44516
 Alpha  occ. eigenvalues --   -0.44465  -0.44280  -0.44215  -0.44142  -0.44003
 Alpha  occ. eigenvalues --   -0.43939  -0.43858  -0.43660  -0.43610  -0.43584
 Alpha  occ. eigenvalues --   -0.43485  -0.43299  -0.43143  -0.43116  -0.43030
 Alpha  occ. eigenvalues --   -0.42947  -0.42891  -0.42758  -0.42696  -0.42575
 Alpha  occ. eigenvalues --   -0.42482  -0.42348  -0.42290  -0.42139  -0.41968
 Alpha  occ. eigenvalues --   -0.41927  -0.41799  -0.41755  -0.41706  -0.41586
 Alpha  occ. eigenvalues --   -0.41483  -0.41447  -0.41381  -0.41309  -0.41132
 Alpha  occ. eigenvalues --   -0.41069  -0.40940  -0.40861  -0.40784  -0.40751
 Alpha  occ. eigenvalues --   -0.40676  -0.40624  -0.40279  -0.40158  -0.40152
 Alpha  occ. eigenvalues --   -0.40079  -0.40017  -0.39775  -0.39686  -0.39586
 Alpha  occ. eigenvalues --   -0.39463  -0.39439  -0.39396  -0.39348  -0.39262
 Alpha  occ. eigenvalues --   -0.39187  -0.39012  -0.38895  -0.38706  -0.38566
 Alpha  occ. eigenvalues --   -0.38540  -0.38438  -0.38349  -0.38163  -0.37946
 Alpha  occ. eigenvalues --   -0.37899  -0.37838  -0.37773  -0.37672  -0.37580
 Alpha  occ. eigenvalues --   -0.37401  -0.37339  -0.37216  -0.37125  -0.37059
 Alpha  occ. eigenvalues --   -0.37012  -0.36977  -0.36903  -0.36815  -0.36630
 Alpha  occ. eigenvalues --   -0.36582  -0.36291  -0.36261  -0.36189  -0.36163
 Alpha  occ. eigenvalues --   -0.36126  -0.36043  -0.36016  -0.35966  -0.35919
 Alpha  occ. eigenvalues --   -0.35870  -0.35825  -0.35595  -0.35561  -0.35489
 Alpha  occ. eigenvalues --   -0.35449  -0.35370  -0.35223  -0.35160  -0.35148
 Alpha  occ. eigenvalues --   -0.34993  -0.34978  -0.34926  -0.34872  -0.34760
 Alpha  occ. eigenvalues --   -0.34645  -0.34556  -0.34508  -0.34489  -0.34248
 Alpha  occ. eigenvalues --   -0.34226  -0.34178  -0.34089  -0.33975  -0.33816
 Alpha  occ. eigenvalues --   -0.33646  -0.33546  -0.33451  -0.33413  -0.33363
 Alpha  occ. eigenvalues --   -0.33199  -0.33131  -0.32954  -0.32803  -0.32563
 Alpha  occ. eigenvalues --   -0.32378  -0.32358  -0.32226  -0.32044  -0.31892
 Alpha  occ. eigenvalues --   -0.31840  -0.31798  -0.31747  -0.31537  -0.31081
 Alpha  occ. eigenvalues --   -0.30545  -0.30398  -0.30100  -0.29880  -0.29505
 Alpha  occ. eigenvalues --   -0.29411  -0.29273  -0.29134  -0.28437  -0.28005
 Alpha  occ. eigenvalues --   -0.27774  -0.27434  -0.27345  -0.26670  -0.26536
 Alpha  occ. eigenvalues --   -0.26049  -0.25918  -0.25592  -0.24896  -0.24779
 Alpha  occ. eigenvalues --   -0.23471  -0.22821  -0.22362  -0.22328  -0.21933
 Alpha  occ. eigenvalues --   -0.21813  -0.19869  -0.17660
 Alpha virt. eigenvalues --    0.07372   0.12386   0.12989   0.13309   0.13649
 Alpha virt. eigenvalues --    0.14020   0.14107   0.14237   0.14457   0.14891
 Alpha virt. eigenvalues --    0.15410   0.16313   0.16943   0.17730   0.18270
 Alpha virt. eigenvalues --    0.18789   0.18900   0.18969   0.19568   0.19648
 Alpha virt. eigenvalues --    0.20004   0.20391   0.20765   0.20816   0.21205
 Alpha virt. eigenvalues --    0.21256   0.21472   0.21698   0.21767   0.22069
 Alpha virt. eigenvalues --    0.22229   0.22467   0.22504   0.22843   0.22895
 Alpha virt. eigenvalues --    0.22960   0.23063   0.23385   0.23502   0.23663
 Alpha virt. eigenvalues --    0.23923   0.23979   0.24069   0.24320   0.24593
 Alpha virt. eigenvalues --    0.24750   0.24828   0.24935   0.25010   0.25158
 Alpha virt. eigenvalues --    0.25308   0.25389   0.25530   0.25728   0.25742
 Alpha virt. eigenvalues --    0.25881   0.25986   0.26097   0.26193   0.26386
 Alpha virt. eigenvalues --    0.26535   0.26622   0.26638   0.26747   0.26953
 Alpha virt. eigenvalues --    0.27132   0.27193   0.27262   0.27409   0.27435
 Alpha virt. eigenvalues --    0.27533   0.27710   0.27743   0.27832   0.27958
 Alpha virt. eigenvalues --    0.28012   0.28159   0.28226   0.28359   0.28437
 Alpha virt. eigenvalues --    0.28484   0.28577   0.28769   0.28874   0.28925
 Alpha virt. eigenvalues --    0.29033   0.29083   0.29232   0.29313   0.29402
 Alpha virt. eigenvalues --    0.29548   0.29565   0.29681   0.29749   0.29794
 Alpha virt. eigenvalues --    0.29891   0.29945   0.29993   0.30189   0.30223
 Alpha virt. eigenvalues --    0.30346   0.30466   0.30499   0.30637   0.30708
 Alpha virt. eigenvalues --    0.30757   0.30851   0.30909   0.30971   0.31064
 Alpha virt. eigenvalues --    0.31087   0.31281   0.31310   0.31446   0.31476
 Alpha virt. eigenvalues --    0.31542   0.31643   0.31683   0.31709   0.31853
 Alpha virt. eigenvalues --    0.31867   0.31939   0.32109   0.32189   0.32259
 Alpha virt. eigenvalues --    0.32295   0.32480   0.32539   0.32567   0.32655
 Alpha virt. eigenvalues --    0.32861   0.32893   0.33003   0.33079   0.33123
 Alpha virt. eigenvalues --    0.33166   0.33247   0.33348   0.33486   0.33647
 Alpha virt. eigenvalues --    0.33712   0.33845   0.33975   0.34035   0.34181
 Alpha virt. eigenvalues --    0.34196   0.34357   0.34380   0.34496   0.34546
 Alpha virt. eigenvalues --    0.34673   0.34789   0.34946   0.35028   0.35107
 Alpha virt. eigenvalues --    0.35140   0.35155   0.35330   0.35369   0.35534
 Alpha virt. eigenvalues --    0.35622   0.35694   0.35816   0.35967   0.35994
 Alpha virt. eigenvalues --    0.36140   0.36197   0.36253   0.36339   0.36468
 Alpha virt. eigenvalues --    0.36566   0.36657   0.36795   0.36905   0.36996
 Alpha virt. eigenvalues --    0.37024   0.37128   0.37264   0.37278   0.37399
 Alpha virt. eigenvalues --    0.37520   0.37601   0.37650   0.37758   0.37876
 Alpha virt. eigenvalues --    0.37910   0.38021   0.38229   0.38309   0.38325
 Alpha virt. eigenvalues --    0.38354   0.38425   0.38569   0.38723   0.38840
 Alpha virt. eigenvalues --    0.38931   0.38992   0.39040   0.39116   0.39190
 Alpha virt. eigenvalues --    0.39218   0.39397   0.39604   0.39741   0.39798
 Alpha virt. eigenvalues --    0.40004   0.40073   0.40107   0.40298   0.40361
 Alpha virt. eigenvalues --    0.40414   0.40540   0.40623   0.40698   0.40803
 Alpha virt. eigenvalues --    0.40896   0.41013   0.41220   0.41287   0.41375
 Alpha virt. eigenvalues --    0.41488   0.41647   0.41805   0.41971   0.42046
 Alpha virt. eigenvalues --    0.42184   0.42300   0.42428   0.42620   0.42666
 Alpha virt. eigenvalues --    0.42825   0.42897   0.42959   0.43171   0.43231
 Alpha virt. eigenvalues --    0.43416   0.43444   0.43599   0.43829   0.43951
 Alpha virt. eigenvalues --    0.44072   0.44193   0.44217   0.44322   0.44466
 Alpha virt. eigenvalues --    0.44595   0.45035   0.45135   0.45255   0.45345
 Alpha virt. eigenvalues --    0.45490   0.45748   0.45797   0.45929   0.46062
 Alpha virt. eigenvalues --    0.46212   0.46399   0.46524   0.46893   0.47063
 Alpha virt. eigenvalues --    0.47215   0.47264   0.47448   0.47576   0.47811
 Alpha virt. eigenvalues --    0.48013   0.48376   0.48669   0.48781   0.48942
 Alpha virt. eigenvalues --    0.49196   0.49557   0.49641   0.49959   0.50232
 Alpha virt. eigenvalues --    0.50525   0.50575   0.51014   0.51424   0.51425
 Alpha virt. eigenvalues --    0.51797   0.52125   0.52247   0.52597   0.52801
 Alpha virt. eigenvalues --    0.52949   0.53334   0.53793   0.54219   0.54574
 Alpha virt. eigenvalues --    0.54766   0.55169   0.55446   0.56531   0.56977
 Alpha virt. eigenvalues --    0.57422   0.57609   0.58168   0.58762   0.59932
 Alpha virt. eigenvalues --    0.61184   0.61559   0.61738   0.62082   0.62160
 Alpha virt. eigenvalues --    0.62406   0.62676   0.63019   0.63236   0.63297
 Alpha virt. eigenvalues --    0.63406   0.63714   0.63790   0.63841   0.64204
 Alpha virt. eigenvalues --    0.64278   0.64434   0.64562   0.64726   0.64769
 Alpha virt. eigenvalues --    0.65032   0.65080   0.65265   0.65321   0.65555
 Alpha virt. eigenvalues --    0.65607   0.65749   0.65812   0.65980   0.66322
 Alpha virt. eigenvalues --    0.66416   0.66463   0.66580   0.66777   0.66885
 Alpha virt. eigenvalues --    0.66973   0.67180   0.67217   0.67379   0.67748
 Alpha virt. eigenvalues --    0.67835   0.68009   0.68115   0.68160   0.68177
 Alpha virt. eigenvalues --    0.68365   0.68497   0.68648   0.68880   0.69006
 Alpha virt. eigenvalues --    0.69191   0.69268   0.69492   0.69602   0.69692
 Alpha virt. eigenvalues --    0.69770   0.69848   0.70039   0.70264   0.70362
 Alpha virt. eigenvalues --    0.70480   0.70566   0.70619   0.70985   0.71101
 Alpha virt. eigenvalues --    0.71284   0.71404   0.71436   0.71704   0.71747
 Alpha virt. eigenvalues --    0.71985   0.72063   0.72135   0.72281   0.72424
 Alpha virt. eigenvalues --    0.72575   0.72667   0.72867   0.72926   0.72993
 Alpha virt. eigenvalues --    0.73115   0.73218   0.73275   0.73296   0.73496
 Alpha virt. eigenvalues --    0.73569   0.73812   0.73873   0.73954   0.74094
 Alpha virt. eigenvalues --    0.74302   0.74422   0.74545   0.74621   0.74777
 Alpha virt. eigenvalues --    0.74828   0.74860   0.75121   0.75223   0.75424
 Alpha virt. eigenvalues --    0.75898   0.75946   0.76020   0.76297   0.76385
 Alpha virt. eigenvalues --    0.76420   0.76680   0.76790   0.76802   0.76986
 Alpha virt. eigenvalues --    0.77077   0.77217   0.77396   0.77510   0.77550
 Alpha virt. eigenvalues --    0.77714   0.77886   0.78040   0.78141   0.78258
 Alpha virt. eigenvalues --    0.78423   0.78588   0.78798   0.78839   0.78949
 Alpha virt. eigenvalues --    0.79198   0.79234   0.79311   0.79522   0.79783
 Alpha virt. eigenvalues --    0.79905   0.80082   0.80158   0.80294   0.80382
 Alpha virt. eigenvalues --    0.80587   0.80813   0.80888   0.81061   0.81130
 Alpha virt. eigenvalues --    0.81269   0.81373   0.81537   0.81600   0.81677
 Alpha virt. eigenvalues --    0.81804   0.81967   0.82020   0.82094   0.82275
 Alpha virt. eigenvalues --    0.82304   0.82510   0.82812   0.82868   0.83027
 Alpha virt. eigenvalues --    0.83062   0.83131   0.83206   0.83345   0.83510
 Alpha virt. eigenvalues --    0.83657   0.83707   0.83830   0.83986   0.84111
 Alpha virt. eigenvalues --    0.84149   0.84331   0.84452   0.84632   0.84715
 Alpha virt. eigenvalues --    0.84904   0.85088   0.85376   0.85653   0.85670
 Alpha virt. eigenvalues --    0.85873   0.86031   0.86255   0.86467   0.86618
 Alpha virt. eigenvalues --    0.86776   0.86837   0.87019   0.87048   0.87202
 Alpha virt. eigenvalues --    0.87348   0.87420   0.87895   0.88107   0.88158
 Alpha virt. eigenvalues --    0.88289   0.88464   0.88745   0.88853   0.89004
 Alpha virt. eigenvalues --    0.89168   0.89216   0.89460   0.89602   0.89690
 Alpha virt. eigenvalues --    0.89838   0.89956   0.90172   0.90234   0.90320
 Alpha virt. eigenvalues --    0.90661   0.90749   0.90905   0.91001   0.91116
 Alpha virt. eigenvalues --    0.91374   0.91434   0.91618   0.91818   0.91910
 Alpha virt. eigenvalues --    0.92040   0.92303   0.92419   0.92591   0.92672
 Alpha virt. eigenvalues --    0.92743   0.92941   0.93213   0.93419   0.93557
 Alpha virt. eigenvalues --    0.93659   0.93778   0.93912   0.94069   0.94138
 Alpha virt. eigenvalues --    0.94268   0.94635   0.94834   0.95116   0.95321
 Alpha virt. eigenvalues --    0.95545   0.95834   0.96034   0.96144   0.96280
 Alpha virt. eigenvalues --    0.96444   0.96603   0.96810   0.96856   0.96976
 Alpha virt. eigenvalues --    0.97090   0.97118   0.97450   0.97460   0.97727
 Alpha virt. eigenvalues --    0.97829   0.97921   0.98074   0.98255   0.98299
 Alpha virt. eigenvalues --    0.98507   0.98586   0.98775   0.98817   0.98878
 Alpha virt. eigenvalues --    0.99015   0.99235   0.99323   0.99434   0.99557
 Alpha virt. eigenvalues --    0.99712   0.99828   1.00098   1.00194   1.00296
 Alpha virt. eigenvalues --    1.00414   1.00473   1.00602   1.00742   1.00799
 Alpha virt. eigenvalues --    1.00909   1.01062   1.01239   1.01338   1.01370
 Alpha virt. eigenvalues --    1.01492   1.01606   1.01733   1.01834   1.01974
 Alpha virt. eigenvalues --    1.02049   1.02282   1.02293   1.02497   1.02592
 Alpha virt. eigenvalues --    1.02664   1.02786   1.02903   1.02958   1.03230
 Alpha virt. eigenvalues --    1.03273   1.03463   1.03574   1.03632   1.03741
 Alpha virt. eigenvalues --    1.03818   1.03886   1.04209   1.04272   1.04350
 Alpha virt. eigenvalues --    1.04398   1.04566   1.04619   1.04689   1.04824
 Alpha virt. eigenvalues --    1.04925   1.04995   1.05021   1.05090   1.05187
 Alpha virt. eigenvalues --    1.05320   1.05369   1.05472   1.05555   1.05648
 Alpha virt. eigenvalues --    1.05766   1.05777   1.05886   1.05960   1.06068
 Alpha virt. eigenvalues --    1.06218   1.06272   1.06346   1.06576   1.06796
 Alpha virt. eigenvalues --    1.06823   1.06890   1.07044   1.07279   1.07465
 Alpha virt. eigenvalues --    1.07486   1.07539   1.07620   1.07692   1.07767
 Alpha virt. eigenvalues --    1.07846   1.07904   1.08020   1.08086   1.08292
 Alpha virt. eigenvalues --    1.08392   1.08571   1.08625   1.08801   1.08920
 Alpha virt. eigenvalues --    1.08983   1.09114   1.09172   1.09405   1.09555
 Alpha virt. eigenvalues --    1.09606   1.09729   1.09810   1.09883   1.10028
 Alpha virt. eigenvalues --    1.10127   1.10145   1.10360   1.10504   1.10552
 Alpha virt. eigenvalues --    1.10661   1.10748   1.10886   1.10963   1.11103
 Alpha virt. eigenvalues --    1.11131   1.11374   1.11448   1.11527   1.11565
 Alpha virt. eigenvalues --    1.11696   1.11777   1.11803   1.12024   1.12121
 Alpha virt. eigenvalues --    1.12376   1.12443   1.12491   1.12729   1.12855
 Alpha virt. eigenvalues --    1.12999   1.13112   1.13197   1.13317   1.13443
 Alpha virt. eigenvalues --    1.13521   1.13595   1.13858   1.13915   1.14062
 Alpha virt. eigenvalues --    1.14115   1.14421   1.14451   1.14618   1.14762
 Alpha virt. eigenvalues --    1.14877   1.14926   1.15031   1.15267   1.15388
 Alpha virt. eigenvalues --    1.15629   1.15762   1.15852   1.15880   1.16167
 Alpha virt. eigenvalues --    1.16225   1.16321   1.16425   1.16483   1.16599
 Alpha virt. eigenvalues --    1.16885   1.16989   1.17097   1.17350   1.17480
 Alpha virt. eigenvalues --    1.17636   1.17755   1.17899   1.18076   1.18144
 Alpha virt. eigenvalues --    1.18300   1.18347   1.18650   1.18686   1.18953
 Alpha virt. eigenvalues --    1.19130   1.19160   1.19322   1.19418   1.19621
 Alpha virt. eigenvalues --    1.19947   1.20072   1.20370   1.20467   1.20669
 Alpha virt. eigenvalues --    1.20791   1.20943   1.21096   1.21281   1.21587
 Alpha virt. eigenvalues --    1.21916   1.22114   1.22183   1.22433   1.22492
 Alpha virt. eigenvalues --    1.22702   1.22961   1.23117   1.23243   1.23367
 Alpha virt. eigenvalues --    1.23600   1.23713   1.24094   1.24447   1.24528
 Alpha virt. eigenvalues --    1.24766   1.24851   1.25031   1.25171   1.25436
 Alpha virt. eigenvalues --    1.25596   1.25663   1.25911   1.25934   1.26324
 Alpha virt. eigenvalues --    1.26622   1.26985   1.27097   1.27119   1.27617
 Alpha virt. eigenvalues --    1.27727   1.27995   1.28251   1.28394   1.28574
 Alpha virt. eigenvalues --    1.28724   1.28930   1.29000   1.29262   1.29451
 Alpha virt. eigenvalues --    1.29589   1.29919   1.29961   1.30155   1.30278
 Alpha virt. eigenvalues --    1.30360   1.30540   1.30998   1.31253   1.31378
 Alpha virt. eigenvalues --    1.31598   1.32006   1.32268   1.32306   1.32518
 Alpha virt. eigenvalues --    1.32751   1.32823   1.33189   1.33470   1.33657
 Alpha virt. eigenvalues --    1.33880   1.34029   1.34150   1.34827   1.34891
 Alpha virt. eigenvalues --    1.35021   1.35210   1.35337   1.35684   1.35815
 Alpha virt. eigenvalues --    1.35862   1.36050   1.36132   1.36190   1.36480
 Alpha virt. eigenvalues --    1.37118   1.37332   1.37705   1.37773   1.37904
 Alpha virt. eigenvalues --    1.38170   1.38390   1.38666   1.39079   1.39368
 Alpha virt. eigenvalues --    1.39479   1.39529   1.40092   1.40174   1.40355
 Alpha virt. eigenvalues --    1.40718   1.40864   1.41181   1.41530   1.41619
 Alpha virt. eigenvalues --    1.42107   1.42347   1.42405   1.42905   1.43117
 Alpha virt. eigenvalues --    1.43216   1.43562   1.43634   1.43956   1.44059
 Alpha virt. eigenvalues --    1.44526   1.44565   1.45251   1.45412   1.45586
 Alpha virt. eigenvalues --    1.46264   1.46283   1.46615   1.46829   1.47363
 Alpha virt. eigenvalues --    1.47903   1.48181   1.48276   1.48529   1.48661
 Alpha virt. eigenvalues --    1.49158   1.49535   1.49647   1.50164   1.50736
 Alpha virt. eigenvalues --    1.50763   1.50997   1.51262   1.51510   1.51886
 Alpha virt. eigenvalues --    1.51977   1.52097   1.52865   1.53113   1.53278
 Alpha virt. eigenvalues --    1.53487   1.53664   1.53821   1.54026   1.54165
 Alpha virt. eigenvalues --    1.54515   1.54666   1.55186   1.55443   1.55819
 Alpha virt. eigenvalues --    1.56284   1.56449   1.56636   1.57100   1.57173
 Alpha virt. eigenvalues --    1.57465   1.57526   1.57603   1.57682   1.57960
 Alpha virt. eigenvalues --    1.58065   1.58141   1.58499   1.58531   1.58859
 Alpha virt. eigenvalues --    1.58975   1.59249   1.59449   1.59517   1.59613
 Alpha virt. eigenvalues --    1.59768   1.59966   1.60148   1.60291   1.60412
 Alpha virt. eigenvalues --    1.60585   1.60640   1.60885   1.61021   1.61219
 Alpha virt. eigenvalues --    1.61386   1.61517   1.61643   1.61711   1.62012
 Alpha virt. eigenvalues --    1.62056   1.62217   1.62368   1.62847   1.62920
 Alpha virt. eigenvalues --    1.62959   1.63096   1.63365   1.63596   1.63969
 Alpha virt. eigenvalues --    1.64141   1.64210   1.64376   1.64449   1.64922
 Alpha virt. eigenvalues --    1.65207   1.65535   1.65691   1.65858   1.65952
 Alpha virt. eigenvalues --    1.66019   1.66128   1.66254   1.66489   1.66616
 Alpha virt. eigenvalues --    1.66794   1.67093   1.67382   1.67514   1.67988
 Alpha virt. eigenvalues --    1.68204   1.68269   1.68808   1.69285   1.69404
 Alpha virt. eigenvalues --    1.69597   1.69838   1.70119   1.70462   1.70917
 Alpha virt. eigenvalues --    1.70978   1.71534   1.71763   1.72236   1.72402
 Alpha virt. eigenvalues --    1.72852   1.73827   1.74409   1.74791   1.75225
 Alpha virt. eigenvalues --    1.75682   1.76510   1.76752   1.76996   1.77219
 Alpha virt. eigenvalues --    1.77958   1.78343   1.78591   1.78900   1.79137
 Alpha virt. eigenvalues --    1.79605   1.79926   1.80215   1.80519   1.81017
 Alpha virt. eigenvalues --    1.81413   1.81979   1.82122   1.82434   1.82899
[...]
  132 Atom       -0.291225      0.141551      0.149674
  133 Atom       -0.290337      0.140908      0.149429
  134 Atom       -0.049991      0.015738      0.034253
  135 Atom       -0.293518      0.143224      0.150294
  136 Atom       -0.070685      0.016565      0.054119
  137 Atom       -0.283165      0.138493      0.144672
  138 Atom       -0.283655      0.136920      0.146734
  139 Atom       -0.197807      0.080466      0.117341
  140 Atom       -0.279238      0.135842      0.143397
  141 Atom       -0.279114      0.135702      0.143412
  142 Atom       -2.326863     -0.568242      2.895106
  143 Atom       -0.215409      0.103021      0.112388
  144 Atom       -0.290001      0.140413      0.149587
  145 Atom       -0.289288      0.140305      0.148983
  146 Atom       -0.293009      0.139712      0.153296
  147 Atom       -0.290416      0.140973      0.149443
  148 Atom       -0.292131      0.144635      0.147496
  149 Atom       -0.013426      0.001202      0.012224
  150 Atom       -0.293098      0.144493      0.148605
  151 Atom       -0.038060      0.008092      0.029968
  152 Atom       -0.282162      0.137177      0.144984
  153 Atom       -0.281996      0.138038      0.143957
  154 Atom       -0.031556      0.000105      0.031452
  155 Atom       -0.276608      0.136744      0.139864
  156 Atom       -0.018315      0.002733      0.015581
  157 Atom       -0.293290      0.144218      0.149072
  158 Atom       -0.288658      0.141416      0.147242
  159 Atom       -0.289752      0.142490      0.147263
  160 Atom       -0.048878      0.010824      0.038054
  161 Atom       -0.291764      0.142371      0.149393
  162 Atom       -0.283671      0.137952      0.145719
  163 Atom       -0.290710      0.141179      0.149532
  164 Atom       -0.289695      0.142816      0.146879
  165 Atom       -0.290198      0.142815      0.147383
  166 Atom       -0.005888     -0.002192      0.008080
  167 Atom       -0.286990      0.140986      0.146004
  168 Atom       -0.039186     -0.013017      0.052204
  169 Atom       -0.276677      0.137996      0.138682
  170 Atom       -0.030572     -0.015740      0.046312
  171 Atom       -0.278404      0.136354      0.142049
  172 Atom       -0.292048      0.143083      0.148965
  173 Atom       -0.287797      0.140569      0.147228
  174 Atom       -0.025938      0.001416      0.024522
  175 Atom       -0.291316      0.142646      0.148669
  176 Atom       -0.290315      0.141322      0.148993
  177 Atom       -0.279511      0.137140      0.142371
  178 Atom       -0.292298      0.143927      0.148370
  179 Atom       -0.292634      0.140497      0.152137
  180 Atom       -0.073527      0.024345      0.049182
  181 Atom       -0.291040      0.140204      0.150836
  182 Atom       -0.057874      0.008749      0.049125
  183 Atom       -0.285163      0.138203      0.146960
  184 Atom       -0.289692      0.140294      0.149398
  185 Atom       -0.406854      0.043313      0.363540
  186 Atom       -0.771846     -0.708307      1.480152
  187 Atom       -1.245270      0.379030      0.866240
  188 Atom       -0.307527      0.134850      0.172677
  189 Atom       -0.294338      0.143320      0.151018
  190 Atom       -0.293998      0.144044      0.149954
  191 Atom       -0.038717     -0.002003      0.040719
  192 Atom       -0.290840      0.141567      0.149273
  193 Atom       -0.038522     -0.002596      0.041118
  194 Atom       -0.284199      0.139105      0.145094
  195 Atom       -0.286198      0.139479      0.146719
  196 Atom       -0.197165      0.056223      0.140942
  197 Atom       -0.286095      0.138115      0.147980
  198 Atom       -0.279452      0.136196      0.143256
  199 Atom       -2.255293     -0.482407      2.737700
  200 Atom       -0.248383      0.092464      0.155919
  201 Atom       -0.295396      0.141324      0.154073
  202 Atom       -0.290904      0.138981      0.151923
  203 Atom       -0.269193      0.128630      0.140562
  204 Atom       -0.288646      0.142996      0.145650
  205 Atom       -0.292735      0.142845      0.149890
  206 Atom       -0.030922      0.002758      0.028164
  207 Atom       -0.294962      0.144196      0.150767
  208 Atom       -0.061819      0.017762      0.044056
  209 Atom       -0.289150      0.139697      0.149453
  210 Atom       -0.289165      0.141412      0.147753
  211 Atom       -0.291789      0.141749      0.150040
  212 Atom       -0.290667      0.141632      0.149035
  213 Atom       -0.292876      0.143621      0.149256
  214 Atom       -0.036505      0.011256      0.025250
  215 Atom       -0.292792      0.143913      0.148880
  216 Atom       -0.040097     -0.002971      0.043068
  217 Atom       -0.281884      0.139486      0.142398
  218 Atom       -0.285198      0.139780      0.145418
  219 Atom       -0.072970      0.008574      0.064396
  220 Atom       -0.115043     -0.094634      0.209676
  221 Atom       -0.309368      0.141575      0.167793
  222 Atom       -0.416725     -0.164955      0.581681
  223 Atom       -0.278871      0.114348      0.164524
  224 Atom       -0.147695     -0.087053      0.234748
  225 Atom       -0.206096      0.068912      0.137184
  226 Atom       -0.302920      0.143193      0.159727
  227 Atom       -0.246479      0.116532      0.129946
  228 Atom       -0.295077      0.137294      0.157783
  229 Atom       -0.199385      0.072471      0.126915
  230 Atom       -0.305957      0.142413      0.163544
  231 Atom       -0.217923      0.070275      0.147648
  232 Atom       -0.303847      0.143301      0.160546
  233 Atom       -0.183662      0.075182      0.108480
  234 Atom       -0.291748      0.142570      0.149178
  235 Atom       -0.573998      0.160549      0.413449
  236 Atom       -0.924669     -0.483837      1.408506
  237 Atom       -0.131646      0.010096      0.121550
  238 Atom       -0.573579      0.251782      0.321797
  239 Atom       -0.077396     -0.004879      0.082275
  240 Atom       -0.048622      0.004511      0.044111
  241 Atom       -0.050728      0.007623      0.043105
  242 Atom       -0.104026      0.015645      0.088380
  243 Atom       -0.051027     -0.016837      0.067864
  244 Atom       -0.031571      0.003403      0.028168
  245 Atom       -0.038423      0.008352      0.030071
  246 Atom       -0.025107      0.003009      0.022098
  247 Atom       -0.023344     -0.003865      0.027209
  248 Atom       -0.022750     -0.000149      0.022899
  249 Atom       -0.042837     -0.012049      0.054886
  250 Atom       -0.096826      0.010761      0.086065
  251 Atom       -0.080621      0.000439      0.080183
  252 Atom       -0.416701      0.192134      0.224567
  253 Atom       -0.068332      0.018266      0.050065
  254 Atom       -1.518223     -0.149068      1.667291
  255 Atom       -0.291658      0.131885      0.159773
  256 Atom       -0.253899      0.121499      0.132400
  257 Atom       -0.279770      0.136638      0.143132
  258 Atom       -0.289185      0.141945      0.147240
  259 Atom       -0.277851      0.133851      0.144000
  260 Atom       -0.284155      0.137659      0.146496
  261 Atom       -0.286681      0.136477      0.150204
  262 Atom       -0.251395      0.122340      0.129055
  263 Atom       -0.283059      0.138546      0.144513
  264 Atom       -0.281068      0.138327      0.142741
  265 Atom       -0.274916      0.135435      0.139481
  266 Atom       -0.271941      0.135210      0.136731
  267 Atom       -0.266685      0.129604      0.137081
  268 Atom       -0.278710      0.136649      0.142061
  269 Atom       -0.283638      0.139061      0.144577
  270 Atom       -0.268889      0.131749      0.137140
  271 Atom       -0.286889      0.140043      0.146846
  272 Atom       -0.292275      0.142474      0.149801
  273 Atom       -0.283478      0.139853      0.143625
  274 Atom       -0.292271      0.142497      0.149774
  275 Atom       -0.288919      0.139064      0.149855
  276 Atom       -0.272094      0.123813      0.148282
  277 Atom       -0.279280      0.134686      0.144594
  278 Atom       -0.296775      0.144319      0.152456
  279 Atom       -0.289380      0.139527      0.149853
  280 Atom       -0.449266      0.197416      0.251849
  281 Atom       -1.252417     -0.242748      1.495166
  282 Atom       -0.413354      0.183953      0.229400
  283 Atom       -0.323742      0.135489      0.188254
  284 Atom       -1.257515     -0.094918      1.352433
  285 Atom       -0.362380      0.156023      0.206358
  286 Atom       -0.389597      0.172354      0.217243
  287 Atom       -1.401112     -0.121854      1.522967
  288 Atom       -0.340942      0.141179      0.199763
  289 Atom       -0.457816      0.202530      0.255286
  290 Atom       -1.357034     -0.136785      1.493820
  291 Atom       -0.419172      0.184246      0.234926
  292 Atom       -0.378214      0.162641      0.215573
  293 Atom       -1.395108     -0.059118      1.454226
  294 Atom       -0.309460      0.129146      0.180314
  295 Atom       -0.467793      0.210761      0.257032
  296 Atom       -1.392123     -0.168866      1.560989
  297 Atom       -0.425218      0.186966      0.238252
  298 Atom       -0.397246      0.169683      0.227563
 -----------------------------------------------------
 Unable to Open any file for archive entry.
 1\1\GINC-EXP-5-49\SP\RwB97XD\6-31G(d)\C96H183N2O15S2(1-)\HKLEM\16-Jul-
 2024\0\\# 6-31G(d) wb97xd prop=efg\\19nt_mm_min_distance_cutoff4\\-1,1
 \H,0,7.334621,6.054144,6.217796\C,-1,6.993829,5.692985,5.2405\H,0,6.91
 2154,6.551764,4.565703\C,0,7.950937,4.644256,4.66287\H,0,8.954415,5.07
 666,4.566035\H,0,8.036148,3.801948,5.360116\C,0,7.46173,4.160141,3.321
 235\C,0,7.81091,4.829185,2.146861\H,0,8.517509,5.655393,2.192377\C,0,7
 .260071,4.473917,0.92358\H,0,7.521269,5.001937,0.012022\C,0,6.336485,3
 .432961,0.859689\O,0,5.769534,3.168749,-0.354715\H,0,5.177659,2.380074
 ,-0.276138\C,0,5.987912,2.736125,2.016127\H,0,5.276147,1.91935,1.96628
 1\C,0,6.554612,3.104862,3.22987\H,0,6.267403,2.565896,4.130198\H,0,5.9
 90104,5.27163,5.360785\H,0,1.77283,7.130122,4.054184\C,-1,0.864938,6.5
 84573,3.77233\H,0,0.505486,7.005967,2.828177\C,-1,1.151593,5.083485,3.
 629826\H,0,1.57701,4.735316,4.581835\C,0,-0.134201,4.289085,3.378458\H
 ,0,-0.861351,4.435808,4.185887\H,0,-0.609669,4.60298,2.442165\H,0,0.07
 2125,3.215028,3.302789\C,0,2.183269,4.811953,2.530653\H,0,2.44346,3.74
 7549,2.494416\H,0,3.11039,5.373117,2.687126\H,0,1.794865,5.092296,1.54
 3043\H,0,0.103916,6.772721,4.538877\H,0,3.743491,-3.926196,-7.100737\C
 ,-1,3.105764,-3.154053,-6.65691\H,0,2.059675,-3.428753,-6.825363\C,0,3
 .378307,-3.009186,-5.153689\H,0,4.425376,-2.737219,-4.984717\H,0,3.190
 587,-3.971011,-4.662181\C,-1,2.470526,-1.939596,-4.530899\O,0,1.274598
 ,-2.287731,-4.276687\O,0,2.94697,-0.793024,-4.356047\H,0,3.299264,-2.2
 08794,-7.175396\H,0,0.261961,7.845387,-4.411313\C,-1,0.166848,6.910351
 ,-4.974848\H,0,1.102034,6.760189,-5.524143\C,0,-0.099719,5.729632,-4.0
 38803\H,0,-1.051592,5.884995,-3.5112\H,0,-0.224535,4.803109,-4.607491\
 C,0,1.021358,5.577344,-3.040339\C,0,1.156327,6.492254,-1.991996\H,-1,0
 .411887,7.276762,-1.875403\C,0,2.210835,6.426892,-1.096204\H,-1,2.2974
 2,7.126918,-0.270902\C,0,3.190022,5.440704,-1.246098\O,0,4.188648,5.41
 0939,-0.342209\H,0,4.760012,4.630788,-0.497651\C,0,3.0917,4.536725,-2.
 307427\H,0,3.857694,3.776844,-2.440908\C,0,2.008662,4.601419,-3.181449
 \H,0,1.93697,3.878108,-3.991077\H,0,-0.640467,7.033425,-5.707129\H,0,-
 3.819506,5.293275,-5.186631\C,-1,-4.030078,4.47668,-4.490286\H,0,-3.13
 1129,3.854629,-4.384503\H,0,-4.833834,3.848766,-4.878575\C,0,-4.422028
 ,4.967816,-3.103675\O,0,-5.106557,4.282486,-2.340294\N,-1,-3.963817,6.
 187849,-2.720525\H,0,-3.393445,6.706996,-3.371617\C,-1,-4.286753,6.812
 001,-1.435936\H,0,-4.836533,6.059664,-0.867801\C,0,-3.064119,7.295036,
 -0.667254\H,-1,-2.596914,8.135013,-1.202147\H,0,-3.428579,7.707987,0.2
 84457\C,0,-1.995798,6.234578,-0.379336\H,0,-1.499191,5.979197,-1.32351
 7\C,-1,-0.952488,6.820221,0.56989\H,0,-0.10146,6.142886,0.683117\H,0,-
 0.565713,7.782414,0.212784\H,0,-1.393686,6.984632,1.560987\C,0,-2.5713
 69,4.943644,0.199707\H,-1,-3.125807,5.144687,1.125121\H,0,-3.238323,4.
 429615,-0.499342\H,0,-1.760461,4.251276,0.444131\H,0,-4.970502,7.6526,
 -1.610869\H,0,-7.442157,5.352374,3.081671\C,-1,-6.725656,4.604852,3.44
 1254\H,0,-7.282821,3.695773,3.685106\C,0,-5.644458,4.323318,2.391563\H
 ,0,-5.103211,5.264739,2.217446\C,0,-4.638219,3.287879,2.90195\H,0,-4.1
 66069,3.616234,3.835169\H,0,-5.137083,2.32927,3.100456\H,0,-3.845166,3
 .101804,2.169879\C,0,-6.249133,3.886969,1.05424\H,-1,-6.689451,2.88435
 8,1.140749\H,0,-7.04204,4.569132,0.727078\H,0,-5.497855,3.851592,0.258
 929\H,0,-6.281472,4.980901,4.370125\H,-1,3.054354,-4.248781,7.532558\C
 ,-1,2.023816,-3.931596,7.723574\H,0,1.80406,-4.115011,8.780923\C,0,1.8
 24504,-2.452525,7.370774\H,0,0.796824,-2.157763,7.613848\H,0,2.478525,
 -1.842542,8.008069\C,0,2.105056,-2.133863,5.917643\C,0,1.101086,-1.657
 006,5.072104\H,0,0.095173,-1.520271,5.465005\C,0,1.369595,-1.350476,3.
 739088\H,0,0.572351,-0.988083,3.094556\C,0,2.651376,-1.524721,3.228133
 \H,0,2.87433,-1.305245,2.18939\C,-1,3.658052,-2.013714,4.05683\H,-1,4.
 65002,-2.173435,3.646798\C,0,3.387284,-2.309272,5.38801\H,0,4.184206,-
 2.681723,6.028766\H,0,1.366123,-4.56504,7.119175\H,0,-2.946083,-1.3162
 8,5.822664\C,-1,-3.713828,-1.084585,5.072809\H,-1,-4.286878,-0.220924,
 5.427764\C,0,-3.066525,-0.80521,3.714413\H,0,-3.869087,-0.563096,3.000
 872\C,0,-2.13713,0.409011,3.78305\H,0,-1.298719,0.223672,4.466722\H,0,
 -2.671398,1.296993,4.140358\H,0,-1.71845,0.646848,2.798817\C,0,-2.3373
 32,-2.047928,3.200415\H,0,-1.547166,-2.357293,3.895878\H,-1,-1.867375,
 -1.867862,2.228232\H,0,-3.027344,-2.892535,3.085099\H,0,-4.398641,-1.9
 38551,5.017637\H,0,-10.143215,0.284152,3.995075\C,-1,-9.980827,1.07519
 4,3.256223\H,0,-10.479512,1.981755,3.613528\C,0,-8.492841,1.339821,3.0
 31928\H,0,-8.02841,1.658878,3.972929\H,-1,-8.385175,2.17717,2.333008\C
 ,0,-7.690958,0.164139,2.470258\H,0,-8.131905,-0.196783,1.532099\H,0,-6
 .663445,0.492802,2.262752\S,0,-7.614079,-1.214055,3.662032\C,0,-6.5367
 04,-2.34969,2.749893\H,0,-6.962119,-2.607515,1.775427\H,0,-5.53557,-1.
 930352,2.612036\H,0,-6.450127,-3.260783,3.346291\H,-1,-10.467268,0.765
 274,2.324403\H,0,-6.251259,-5.642637,3.431265\C,-1,-5.187048,-5.904745
 ,3.423846\H,0,-5.119759,-6.988813,3.563233\C,0,-4.516344,-5.456409,2.1
 26205\H,-1,-4.657809,-4.373164,2.003828\H,0,-5.019583,-5.922979,1.2674
 92\C,0,-3.013231,-5.759615,2.035252\H,0,-2.527138,-5.338215,2.929547\C
 ,0,-2.723836,-7.262429,2.003819\H,0,-3.108603,-7.781491,2.888699\H,0,-
 3.178544,-7.72053,1.115762\H,0,-1.644437,-7.444011,1.956863\C,-1,-2.42
 48,-5.07916,0.801408\H,-1,-2.518298,-3.990278,0.871647\H,0,-2.943463,-
 5.402562,-0.107978\H,0,-1.365228,-5.315947,0.667974\H,0,-4.716161,-5.4
 27585,4.292396\H,0,0.13428,-6.15372,3.322332\C,-1,1.133367,-6.34488,2.
 9113\H,0,1.008983,-6.949299,2.003427\C,0,1.857085,-5.032695,2.589399\H
 ,0,1.955553,-4.455467,3.519608\C,0,3.263231,-5.289408,2.043102\H,0,3.7
 83078,-4.347653,1.832907\H,-1,3.869066,-5.866175,2.753352\H,0,3.213809
 ,-5.861093,1.105871\C,0,1.047693,-4.19246,1.602826\H,-1,1.565553,-3.25
 55,1.37449\H,0,0.062322,-3.9396,2.012219\H,0,0.893557,-4.73089,0.65720
 1\H,0,1.692584,-6.943084,3.640751\H,0,6.299504,-4.218389,2.199905\C,-1
 ,7.078748,-3.986726,1.468721\H,0,6.733502,-4.351201,0.496792\C,0,7.346
 878,-2.492744,1.410557\H,0,7.693989,-2.109954,2.379544\H,0,8.131408,-2
 .249793,0.688338\C,0,6.111159,-1.712287,1.037737\O,0,4.981039,-2.15883
 3,1.090924\O,0,6.385579,-0.467077,0.672847\H,0,5.534732,-0.036141,0.39
 7347\H,0,7.987267,-4.533174,1.741374\H,0,10.95539,-0.517144,-4.32852\C
 ,-1,10.313797,-1.086494,-3.647331\H,0,10.959266,-1.721739,-3.028351\C,
 -1,9.469291,-0.15994,-2.77592\H,0,10.127281,0.483576,-2.176247\H,0,8.8
 74728,0.511654,-3.406919\C,0,8.546563,-0.91476,-1.817917\H,0,9.125463,
 -1.67941,-1.285168\H,0,8.121269,-0.247576,-1.061732\S,0,7.165086,-1.81
 176,-2.601369\C,0,6.030862,-0.431102,-2.924863\H,0,6.481191,0.297098,-
 3.605265\H,0,5.757891,0.063031,-1.988665\H,0,5.119965,-0.819003,-3.393
 735\H,0,9.673659,-1.740932,-4.247796\H,0,5.354129,-4.402104,-3.270456\
 C,-1,4.913543,-4.767485,-2.337792\H,-1,5.737286,-5.052313,-1.674193\C,
 0,4.03666,-3.697535,-1.690825\H,0,3.615709,-4.040882,-0.738875\H,0,3.2
 06276,-3.406714,-2.343138\H,0,4.624015,-2.800517,-1.478119\H,0,4.34324
 ,-5.67501,-2.571536\H,0,1.175713,-9.103539,-2.297727\C,-1,0.384383,-9.
 048253,-1.542816\H,0,0.549884,-9.842731,-0.806102\C,0,0.376234,-7.6647
 69,-0.871199\H,0,-0.386444,-7.661035,-0.079341\H,0,1.338117,-7.506057,
 -0.36649\C,0,0.122277,-6.519152,-1.808163\C,0,1.036787,-5.595474,-2.24
 9988\H,0,2.088072,-5.51677,-2.008678\N,-1,0.450382,-4.68967,-3.096578\
 H,0,0.886886,-3.872746,-3.550777\C,0,-0.879055,-5.000844,-3.206625\C,0
 ,-1.894967,-4.334938,-3.901501\H,0,-1.675971,-3.438168,-4.473356\C,0,-
 3.177992,-4.845909,-3.812198\H,0,-3.991315,-4.327886,-4.313086\C,0,-3.
 444514,-6.004159,-3.052376\H,0,-4.462923,-6.380181,-3.002074\C,0,-2.43
 6264,-6.660376,-2.365326\H,0,-2.657289,-7.545021,-1.771371\C,0,-1.1275
 99,-6.153942,-2.422123\H,0,-0.568451,-9.24045,-2.047848\C,0,3.064643,0
 .818523,-0.189587\O,0,4.300515,0.964101,-0.071397\C,0,2.460634,-0.4721
 59,-0.344077\C,0,1.139226,-0.598702,-0.637022\C,-1,0.194483,0.579332,-
 0.604101\C,0,0.778628,1.745672,0.19609\C,0,2.196561,2.037752,-0.265859
 \C,0,0.612336,-1.901379,-1.146274\C,0,-0.831218,-2.211914,-0.754382\C,
 0,-1.736448,-1.004524,-0.994964\C,0,-1.220683,0.177009,-0.144665\C,0,-
 3.199252,-1.272835,-0.667893\C,0,-4.092717,-0.029271,-0.865037\C,0,-3.
 626696,1.064853,0.090214\C,0,-2.150064,1.403581,-0.135907\C,0,-3.94995
 ,-2.378165,-1.420843\C,0,-5.441647,-2.040289,-1.18033\C,0,-5.45163,-0.
 653009,-0.513455\C,-1,-4.092144,0.478748,-2.316642\O,0,-6.609057,0.107
 075,-0.911619\H,0,3.125552,-1.330771,-0.356007\H,0,0.107335,0.885978,-
 1.659465\H,0,0.771261,1.503013,1.26898\H,0,0.171328,2.645987,0.065375\
 H,0,2.172954,2.340189,-1.321641\H,0,2.669702,2.856626,0.285049\H,0,1.2
 84668,-2.718803,-0.870345\H,0,0.682483,-1.82336,-2.244009\H,0,-0.87395
 5,-2.493451,0.306216\H,-1,-1.175675,-3.080412,-1.324748\H,0,-1.654099,
 -0.733599,-2.057203\H,0,-1.149239,-0.19438,0.891924\H,0,-3.245237,-1.5
 19767,0.409023\H,0,-3.766038,0.72177,1.127304\H,0,-4.230291,1.974592,-
 0.028791\H,0,-2.032338,1.94846,-1.081805\H,0,-1.831927,2.084355,0.6619
 96\H,0,-3.684317,-3.380375,-1.079848\H,0,-3.727394,-2.341107,-2.491025
 \H,0,-5.944647,-2.780131,-0.548831\H,0,-5.98082,-1.997086,-2.127162\H,
 0,-5.501467,-0.769363,0.578541\H,0,-4.526334,-0.247516,-3.011042\H,0,-
 4.666955,1.404758,-2.392504\H,-1,-3.085113,0.719175,-2.666046\H,0,-6.8
 16733,0.723611,-0.198857\O,0,0.594574,0.431803,-3.834029\H,0,0.261258,
 -0.459195,-4.03615\H,0,1.559284,0.243369,-3.956133\O,0,-6.974372,2.291
 539,-2.777461\H,0,-6.299693,2.985003,-2.627115\H,0,-6.729969,1.562341,
 -2.179925\O,-1,-0.995327,2.643553,-3.367682\H,0,-0.465511,1.866838,-3.
 657979\H,0,-0.385645,3.135797,-2.804548\O,0,-8.032012,-1.023738,-3.324
 182\H,0,-7.739735,-0.731523,-2.447295\H,0,-7.69813,-0.328616,-3.922014
 \O,0,-6.655078,0.83699,-4.995489\H,0,-6.689509,1.483318,-4.245154\H,0,
 -7.274839,1.175547,-5.650542\O,0,-5.619165,-1.921406,-4.632699\H,0,-5.
 615596,-1.010028,-4.961475\H,0,-6.484933,-1.965403,-4.191767\\Version=
 ES64L-G16RevC.01\State=1-A\HF=-5801.6037089\RMSD=3.635e-09\Dipole=-0.5
 39531,4.9458893,4.3664236\Quadrupole=-30.5612695,19.7441396,10.8171299
 ,-33.6987307,6.0640007,-36.7433541\PG=C01 [X(C96H183N2O15S2)]\\@
 The archive entry for this job was punched.


 IT IS BY LOGIC THAT WE PROVE, BUT BY INTUITION THAT WE DISCOVER.
     -- J.H.POINCARE (1854-1912)
 Job cpu time:       0 days  4 hours 38 minutes 40.2 seconds.
 Elapsed time:       0 days  0 hours  9 minutes  1.4 seconds.
 File lengths (MBytes):  RWF=   2366 Int=      0 D2E=      0 Chk=    254 Scr=      1
 Normal termination of Gaussian 16 at Tue Jul 16 07:27:11 2024.
