 Entering Gaussian System, Link 0=g16
 Input=ligand.com
 Output=ligand.log
 Initial command:
 /usr/local/packages/license/gaussian/g16-c01/g16/l1.exe "/work/arkanil/gauss_scratch/Gau-335901.inp" -scrdir="/work/arkanil/gauss_scratch/"
 Entering Link 1 = /usr/local/packages/license/gaussian/g16-c01/g16/l1.exe PID=    335902.
  
 Copyright (c) 1988-2019, Gaussian, Inc.  All Rights Reserved.
  
 This is part of the Gaussian(R) 16 program.  It is based on
 the Gaussian(R) 09 system (copyright 2009, Gaussian, Inc.),
 the Gaussian(R) 03 system (copyright 2003, Gaussian, Inc.),
 the Gaussian(R) 98 system (copyright 1998, Gaussian, Inc.),
 the Gaussian(R) 94 system (copyright 1995, Gaussian, Inc.),
 the Gaussian 92(TM) system (copyright 1992, Gaussian, Inc.),
 the Gaussian 90(TM) system (copyright 1990, Gaussian, Inc.),
 the Gaussian 88(TM) system (copyright 1988, Gaussian, Inc.),
 the Gaussian 86(TM) system (copyright 1986, Carnegie Mellon
 University), and the Gaussian 82(TM) system (copyright 1983,
 Carnegie Mellon University). Gaussian is a federally registered
 trademark of Gaussian, Inc.
  
 This software contains proprietary and confidential information,
 including trade secrets, belonging to Gaussian, Inc.
  
 This software is provided under written license and may be
 used, copied, transmitted, or stored only in accord with that
 written license.
  
 The following legend is applicable only to US Government
 contracts under FAR:
  
                    RESTRICTED RIGHTS LEGEND
  
 Use, reproduction and disclosure by the US Government is
 subject to restrictions as set forth in subparagraphs (a)
 and (c) of the Commercial Computer Software - Restricted
 Rights clause in FAR 52.227-19.
  
 Gaussian, Inc.
 340 Quinnipiac St., Bldg. 40, Wallingford CT 06492
  
  
 ---------------------------------------------------------------
 Warning -- This program may not be used in any manner that
 competes with the business of Gaussian, Inc. or will provide
 assistance to any competitor of Gaussian, Inc.  The licensee
 of this program is prohibited from giving any competitor of
 Gaussian, Inc. access to this program.  By using this program,
 the user acknowledges that Gaussian, Inc. is engaged in the
 business of creating and licensing software in the field of
 computational chemistry and represents and warrants to the
 licensee that it is not a competitor of Gaussian, Inc. and that
 it will not use this program in any manner prohibited above.
 ---------------------------------------------------------------
  

 Cite this work as:
 Gaussian 16, Revision C.01,
 M. J. Frisch, G. W. Trucks, H. B. Schlegel, G. E. Scuseria, 
 M. A. Robb, J. R. Cheeseman, G. Scalmani, V. Barone, 
 G. A. Petersson, H. Nakatsuji, X. Li, M. Caricato, A. V. Marenich, 
 J. Bloino, B. G. Janesko, R. Gomperts, B. Mennucci, H. P. Hratchian, 
 J. V. Ortiz, A. F. Izmaylov, J. L. Sonnenberg, D. Williams-Young, 
 F. Ding, F. Lipparini, F. Egidi, J. Goings, B. Peng, A. Petrone, 
 T. Henderson, D. Ranasinghe, V. G. Zakrzewski, J. Gao, N. Rega, 
 G. Zheng, W. Liang, M. Hada, M. Ehara, K. Toyota, R. Fukuda, 
 J. Hasegawa, M. Ishida, T. Nakajima, Y. Honda, O. Kitao, H. Nakai, 
 T. Vreven, K. Throssell, J. A. Montgomery, Jr., J. E. Peralta, 
 F. Ogliaro, M. J. Bearpark, J. J. Heyd, E. N. Brothers, K. N. Kudin, 
 V. N. Staroverov, T. A. Keith, R. Kobayashi, J. Normand, 
 K. Raghavachari, A. P. Rendell, J. C. Burant, S. S. Iyengar, 
 J. Tomasi, M. Cossi, J. M. Millam, M. Klene, C. Adamo, R. Cammi, 
 J. W. Ochterski, R. L. Martin, K. Morokuma, O. Farkas, 
 J. B. Foresman, and D. J. Fox, Gaussian, Inc., Wallingford CT, 2019.
 
 ******************************************
 Gaussian 16:  ES64L-G16RevC.01  3-Jul-2019
                21-May-2026 
 ******************************************
 %chk=19NT_md_min_distance_cutoff7_opt.chk
 %nprocshared=64
 Will use up to   64 processors via shared memory.
 %mem=200GB
 --------------------------
 # wb97xd/6-31g(d) prop=efg
 --------------------------
 1/38=1,172=1/1;
 2/12=2,17=6,18=5,40=1/2;
 3/5=1,6=6,7=1,11=2,25=1,30=1,74=-58/1,2,3;
 4//1;
 5/5=2,38=5/2;
 6/7=2,8=2,9=2,10=2,14=1,28=1/1,2;
 99/5=1,9=1/99;
 ----------------------------
 19NT_md_min_distance_cutoff7
 ----------------------------
 Symbolic Z-matrix:
 Charge =  0 Multiplicity = 1
 C                    0    -2.4436    2.53413  -0.29965 
 O                    0    -3.31322   3.28385  -0.7843 
 C                    0    -2.46053   1.12103  -0.54044 
 C                    0    -1.53576   0.29973   0.01609 
 C                    0    -0.32282   0.83733   0.74827 
 C                    0    -0.10216   2.33334   0.52012 
 C                    0    -1.40429   3.11071   0.61871 
 C                    0    -1.73807  -1.18137  -0.0123 
 C                    0    -0.45433  -1.98406  -0.2135 
 C                    0     0.6375   -1.47316   0.72381 
 C                    0     0.92692   0.00476   0.39519 
 C                    0     1.90162  -2.30064   0.65474 
 C                    0     3.05556  -1.72107   1.49497 
 C                    0     3.41524  -0.34419   0.94034 
 C                    0     2.20005   0.58754   1.04069 
 C                    0     1.82127  -3.74994   1.10938 
 C                    0     3.30158  -4.15235   1.20721 
 C                    0     4.11096  -2.82556   1.29689 
 C                    0     2.69293  -1.6088    2.97896 
 O                    0     5.14342  -2.85919   2.28826 
 H                    0    -3.31217   0.7275   -1.09356 
 H                    0    -0.51847   0.67333   1.82171 
 H                    0     0.34303   2.4898   -0.47281 
 H                    0     0.60364   2.71864   1.26092 
 H                    0    -1.79728   3.04688   1.64409 
 H                    0    -1.2684    4.1711    0.38074 
 H                    0    -2.49722  -1.44407  -0.75444 
 H                    0    -2.17641  -1.4563    0.96287 
 H                    0    -0.11185  -1.90562  -1.25589 
 H                    0    -0.66701  -3.04085  -0.02797 
 H                    0     0.23965  -1.52877   1.74671 
 H                    0     1.06924   0.06502  -0.69713 
 H                    0     2.24962  -2.30037  -0.39119 
 H                    0     3.72964  -0.43975  -0.10923 
 H                    0     4.26274   0.09721   1.48423 
 H                    0     2.00887   0.82477   2.0956 
 H                    0     2.4432    1.54095   0.55749 
 H                    0     1.24927  -4.3902    0.43974 
 H                    0     1.34125  -3.82435   2.08812 
 H                    0     3.61993  -4.74019   0.34009 
 H                    0     3.47985  -4.77749   2.08292 
 H                    0     4.62637  -2.62528   0.35316 
 H                    0     2.73916  -2.57668   3.47656 
 H                    0     3.38277  -0.93569   3.49578 
 H                    0     1.6919   -1.20903   3.1365 
 H                    0     4.88501  -3.5093    2.98385 
 
                          Input orientation:                          
 ---------------------------------------------------------------------
 Center     Atomic      Atomic             Coordinates (Angstroms)
 Number     Number       Type             X           Y           Z
 ---------------------------------------------------------------------
      1          6           0       -2.443598    2.534130   -0.299645
      2          8           0       -3.313221    3.283845   -0.784301
      3          6           0       -2.460534    1.121032   -0.540442
      4          6           0       -1.535762    0.299729    0.016092
      5          6           0       -0.322821    0.837327    0.748271
      6          6           0       -0.102160    2.333342    0.520117
      7          6           0       -1.404293    3.110712    0.618711
      8          6           0       -1.738072   -1.181367   -0.012296
      9          6           0       -0.454333   -1.984062   -0.213501
     10          6           0        0.637498   -1.473162    0.723810
     11          6           0        0.926923    0.004757    0.395188
     12          6           0        1.901622   -2.300640    0.654736
     13          6           0        3.055563   -1.721070    1.494974
     14          6           0        3.415238   -0.344190    0.940343
     15          6           0        2.200048    0.587543    1.040694
     16          6           0        1.821268   -3.749938    1.109382
     17          6           0        3.301579   -4.152346    1.207209
     18          6           0        4.110964   -2.825562    1.296885
     19          6           0        2.692933   -1.608798    2.978955
     20          8           0        5.143422   -2.859194    2.288264
     21          1           0       -3.312167    0.727499   -1.093558
     22          1           0       -0.518468    0.673325    1.821710
     23          1           0        0.343034    2.489798   -0.472808
     24          1           0        0.603637    2.718644    1.260918
     25          1           0       -1.797280    3.046877    1.644086
     26          1           0       -1.268402    4.171101    0.380737
     27          1           0       -2.497215   -1.444073   -0.754439
     28          1           0       -2.176413   -1.456297    0.962867
     29          1           0       -0.111850   -1.905621   -1.255892
     30          1           0       -0.667006   -3.040846   -0.027970
     31          1           0        0.239647   -1.528769    1.746708
     32          1           0        1.069236    0.065019   -0.697126
     33          1           0        2.249621   -2.300367   -0.391187
     34          1           0        3.729641   -0.439746   -0.109225
     35          1           0        4.262739    0.097205    1.484227
     36          1           0        2.008866    0.824765    2.095596
     37          1           0        2.443197    1.540945    0.557492
     38          1           0        1.249272   -4.390200    0.439737
     39          1           0        1.341253   -3.824348    2.088119
     40          1           0        3.619925   -4.740185    0.340089
     41          1           0        3.479849   -4.777488    2.082924
     42          1           0        4.626372   -2.625279    0.353160
     43          1           0        2.739155   -2.576679    3.476560
     44          1           0        3.382768   -0.935687    3.495779
     45          1           0        1.691896   -1.209029    3.136501
     46          1           0        4.885011   -3.509298    2.983846
 ---------------------------------------------------------------------
                    Distance matrix (angstroms):
                    1          2          3          4          5
     1  C    0.000000
     2  O    1.246278   0.000000
     3  C    1.433568   2.337585   0.000000
     4  C    2.432366   3.564399   1.356271   0.000000
     5  C    2.911179   4.156527   2.512188   1.515363   0.000000
     6  C    2.488907   3.593866   2.855943   2.538668   1.529316
     7  C    1.501992   2.375379   2.533398   2.877857   2.520842
     8  C    3.792790   4.797416   2.470209   1.495119   2.580024
     9  C    4.937475   6.020789   3.711245   2.537302   2.983712
    10  C    5.157422   6.364880   4.233908   2.892588   2.502233
    11  C    4.270940   5.488391   3.687321   2.509091   1.542628
    12  C    6.570143   7.775081   5.671393   4.357223   3.847562
    13  C    7.181097   8.414611   6.530527   5.229817   4.303073
    14  C    6.644415   7.836402   6.234124   5.077526   3.925043
    15  C    5.210485   6.402873   4.950316   3.884446   2.552013
    16  C    7.724244   8.911965   6.691943   5.372591   5.076467
    17  C    8.943524  10.149809   8.004046   6.681287   6.184152
    18  C    8.616118   9.837414   7.882637   6.579771   5.777212
    19  C    7.368651   8.612429   6.811487   5.504806   4.478197
    20  O    9.661681  10.894604   9.036809   7.730010   6.776109
    21  H    2.156067   2.574985   1.089075   2.137738   3.512917
    22  H    3.415972   4.627824   3.090603   2.105877   1.103379
    23  H    2.792359   3.754429   3.120591   2.926653   2.159874
    24  H    3.428563   4.454677   3.896974   3.460891   2.158816
    25  H    2.111570   2.872507   2.986796   3.203994   2.803324
    26  H    2.126894   2.515119   3.401863   3.897688   3.484717
    27  H    4.004474   4.797913   2.574277   2.135171   3.491549
    28  H    4.193904   5.178212   2.997213   2.095339   2.956783
    29  H    5.105178   6.115696   3.897283   2.917025   3.403666
    30  H    5.857512   6.897551   4.560767   3.451973   3.970043
    31  H    5.281526   6.495393   4.420801   3.080668   2.629003
    32  H    4.312134   5.438232   3.687681   2.711048   2.150222
    33  H    6.738475   7.891969   5.823556   4.610369   4.214374
    34  H    6.854858   7.995171   6.398456   5.318552   4.334589
    35  H    7.354982   8.526199   7.095767   5.984902   4.702847
    36  H    5.336998   6.531883   5.197308   4.142993   2.692992
    37  H    5.059829   6.162342   5.042654   4.203076   2.860477
    38  H    7.882279   9.011414   6.715437   5.470953   5.467514
    39  H    7.775394   8.968909   6.769025   5.438614   5.127919
    40  H    9.491640  10.663856   8.491241   7.217120   6.842551
    41  H    9.706885  10.924828   8.772841   7.430093   6.911421
    42  H    8.776681   9.962364   8.065830   6.829435   6.053120
    43  H    8.200062   9.440971   7.539638   6.206728   5.336169
    44  H    7.771191   8.997767   7.393602   6.150318   4.942041
    45  H    6.551385   7.785230   6.015960   4.736146   3.735010
    46  H   10.050515  11.294102   9.371104   8.033839   7.142301
                    6          7          8          9         10
     6  C    0.000000
     7  C    1.519729   0.000000
     8  C    3.913164   4.351037   0.000000
     9  C    4.393427   5.248974   1.527347   0.000000
    10  C    3.883047   5.019149   2.504063   1.526979   0.000000
    11  C    2.548907   3.889921   2.945358   2.496752   1.541429
    12  C    5.050451   6.341380   3.865886   2.530727   1.512449
    13  C    5.230661   6.633571   5.053917   3.912470   2.550135
    14  C    4.440479   5.938659   5.307070   4.358224   3.006211
    15  C    2.935809   4.419924   4.443717   3.902806   2.605472
    16  C    6.407270   7.596942   4.530411   3.169653   2.594935
    17  C    7.356744   8.674305   5.975951   4.563633   3.809072
    18  C    6.705824   8.131256   6.215187   4.881734   3.771255
    19  C    5.422075   6.680703   5.363216   4.498653   3.054323
    20  O    7.589789   9.016638   7.447324   6.193508   4.967087
    21  H    3.935330   3.500222   2.700124   4.036617   4.872945
    22  H    2.150143   2.858802   2.879391   3.347821   2.673770
    23  H    1.099353   2.151767   4.245059   4.551753   4.150139
    24  H    1.093340   2.144278   4.723850   5.040700   4.226212
    25  H    2.155428   1.099958   4.541493   5.528515   5.215918
    26  H    2.181033   1.095227   5.387391   6.237135   5.967232
    27  H    4.650768   4.881197   1.093658   2.181185   3.465904
    28  H    4.342801   4.644587   1.103935   2.151264   2.824098
    29  H    4.595988   5.508915   2.171560   1.100012   2.160501
    30  H    5.431514   6.229242   2.145947   1.093821   2.173600
    31  H    4.066603   5.049723   2.669486   2.128690   1.098953
    32  H    2.828275   4.138359   3.146974   2.598824   2.138097
    33  H    5.275662   6.606872   4.159016   2.728184   2.127540
    34  H    4.771665   6.284339   5.518630   4.461101   3.365003
    35  H    4.998216   6.476542   6.315383   5.428142   4.023265
    36  H    3.035518   4.365363   4.744188   4.391900   3.007144
    37  H    2.666108   4.155851   5.021818   4.627719   3.517535
    38  H    6.858487   7.958462   4.407399   3.019684   2.994007
    39  H    6.516074   7.602121   4.569391   3.450831   2.807968
    40  H    7.995068   9.325073   6.441855   4.949975   4.440220
    41  H    8.114004   9.392681   6.674484   5.343649   4.565602
    42  H    6.853817   8.327126   6.536405   5.152264   4.168437
    43  H    6.397025   7.594859   5.845047   4.915904   3.634879
    44  H    5.629018   6.896870   6.212081   5.438859   3.938172
    45  H    4.755260   5.880971   4.656218   4.053331   2.646242
    46  H    8.067111   9.432589   7.632913   6.407649   5.224460
                   11         12         13         14         15
    11  C    0.000000
    12  C    2.516398   0.000000
    13  C    2.952815   1.540611   0.000000
    14  C    2.571122   2.490040   1.527344   0.000000
    15  C    1.541806   2.929099   2.503591   1.534563   0.000000
    16  C    3.925259   1.521060   2.405924   3.764098   4.354530
    17  C    4.855911   2.386194   2.460576   3.819187   4.869050
    18  C    4.354524   2.359892   1.540459   2.601608   3.920015
    19  C    3.521108   2.550845   1.531765   2.505374   2.970472
    20  O    5.437354   3.672828   2.506749   3.335979   4.701051
    21  H    4.550671   6.277719   7.296847   7.109378   5.912625
    22  H    2.138014   4.007884   4.314346   4.157666   2.829783
    23  H    2.696252   5.162252   5.381579   4.412133   3.059046
    24  H    2.866912   5.219716   5.077183   4.169990   2.671819
    25  H    4.270307   6.576977   6.804825   6.258189   4.731917
    26  H    4.709361   7.211627   7.392961   6.529739   5.030664
    27  H    3.891718   4.697792   5.997494   6.248130   5.423490
    28  H    3.476727   4.175911   5.265626   5.701215   4.830813
    29  H    2.730322   2.803678   4.199265   4.438678   4.103053
    30  H    3.463433   2.758957   4.233047   4.987414   4.746288
    31  H    2.156538   2.133155   2.833678   3.483939   2.969917
    32  H    1.103193   2.848989   3.455562   2.890066   2.138173
    33  H    2.771554   1.102297   2.131368   2.637852   3.223781
    34  H    2.882229   2.718127   2.160932   1.099806   2.171933
    35  H    3.510302   3.465918   2.182547   1.099499   2.166067
    36  H    2.175868   3.443216   2.817374   2.163087   1.098018
    37  H    2.164556   3.880791   3.448856   2.155266   1.096166
    38  H    4.406988   2.199556   3.391234   4.616515   5.103239
    39  H    4.207105   2.165707   2.777491   4.210737   4.615128
    40  H    5.456168   3.000491   3.281359   4.441506   5.558020
    41  H    5.677654   3.265777   3.141241   4.578624   5.613171
    42  H    4.539249   2.760544   2.142142   2.648584   4.084358
    43  H    4.409405   2.956408   2.181482   3.445793   4.029439
    44  H    4.065621   3.482587   2.174192   2.623200   3.121938
    45  H    3.094068   2.719330   2.194626   2.922493   2.806830
    46  H    5.892045   3.973187   2.959963   4.044014   5.269627
                   16         17         18         19         20
    16  C    0.000000
    17  C    1.537148   0.000000
    18  C    2.476355   1.556760   0.000000
    19  C    2.973144   3.158982   2.514097   0.000000
    20  O    3.635917   2.496659   1.431759   2.836449   0.000000
    21  H    7.159088   8.535107   8.569792   7.622655   9.787649
    22  H    5.054407   6.185262   5.826602   4.106141   6.689795
    23  H    6.604756   7.462809   6.751456   5.851084   7.699283
    24  H    6.583931   7.381889   6.560553   5.103289   7.264803
    25  H    7.718581   8.832782   8.337472   6.604483   9.136191
    26  H    8.533454   9.531398   8.873004   7.473295   9.704390
    27  H    5.238333   6.693939   7.055811   6.395545   8.345055
    28  H    4.611259   6.110383   6.443412   5.272419   7.569992
    29  H    3.568329   4.771387   5.019474   5.088108   6.410010
    30  H    2.826285   4.302414   4.962921   4.730914   6.257716
    31  H    2.800232   4.068125   4.107445   2.746534   5.109826
    32  H    4.287531   5.137705   4.645820   4.353347   5.836314
    33  H    2.129894   2.662952   2.567102   3.468811   3.983193
    34  H    4.010519   3.962276   2.795473   3.460968   3.687880
    35  H    4.571848   4.365690   2.932695   2.758432   3.187848
    36  H    4.683558   5.218426   4.287382   2.677779   4.840880
    37  H    5.355821   5.794179   4.732286   3.980795   5.444999
    38  H    1.088825   2.203985   3.372251   4.033359   4.574433
    39  H    1.092647   2.174043   3.048758   2.743955   3.927858
    40  H    2.192617   1.094895   2.195987   4.198632   3.107178
    41  H    2.180489   1.090623   2.196857   3.385662   2.547448
    42  H    3.115339   2.194632   1.093790   3.415585   2.016602
    43  H    2.796888   2.819397   2.587428   1.089285   2.696732
    44  H    4.006642   3.948549   2.989487   1.093644   2.873652
    45  H    3.253024   3.869930   3.442275   1.089363   3.918620
    46  H    3.599728   2.465199   1.977999   2.901229   0.986532
                   21         22         23         24         25
    21  H    0.000000
    22  H    4.038128   0.000000
    23  H    4.105061   3.050668   0.000000
    24  H    4.984149   2.399362   1.768075   0.000000
    25  H    3.894752   2.701973   3.061457   2.453356   0.000000
    26  H    4.267191   3.856584   2.480332   2.527623   1.771904
    27  H    2.344115   3.877545   4.860213   5.568228   5.139208
    28  H    3.207458   2.832258   4.896983   5.024703   4.570162
    29  H    4.147493   4.035831   4.487744   5.313199   5.981453
    30  H    4.725757   4.151921   5.639688   6.037176   6.413553
    31  H    5.076735   2.330146   4.591930   4.290571   5.009605
    32  H    4.448902   3.038976   2.541110   3.330532   4.752859
    33  H    6.371404   4.626238   5.156299   5.534364   7.008050
    34  H    7.205445   4.797277   4.492608   4.650228   6.765907
    35  H    8.026297   4.827603   4.991851   4.506755   6.741658
    36  H    6.204318   2.546638   3.484829   2.501626   4.430394
    37  H    6.042506   3.335037   2.524386   2.294725   4.629272
    38  H    7.024853   5.538415   6.999170   7.185182   8.126626
    39  H    7.245460   4.874279   6.886452   6.636195   7.567119
    40  H    8.944541   6.973348   7.979440   8.098151   9.575221
    41  H    9.301957   6.765067   8.317741   8.070953   9.447823
    42  H    8.738107   6.285444   6.722590   6.750106   8.666207
    43  H    8.271763   4.890109   6.856245   6.124537   7.453964
    44  H    8.285551   4.539942   6.060001   5.106105   6.791353
    45  H    6.832583   3.187105   5.341148   4.486506   5.702139
    46  H   10.088082   6.931268   8.280529   7.751510   9.456818
                   26         27         28         29         30
    26  H    0.000000
    27  H    5.859077   0.000000
    28  H    5.729831   1.747056   0.000000
    29  H    6.398650   2.480816   3.063854   0.000000
    30  H    7.248510   2.535174   2.402262   1.762023   0.000000
    31  H    6.052157   3.708547   2.541064   3.046502   2.501575
    32  H    4.846261   3.873011   3.950217   2.364446   3.620594
    33  H    7.406231   4.837111   4.704858   2.545601   3.030998
    34  H    6.817654   6.340245   6.088040   4.268570   5.109093
    35  H    6.957574   7.285886   6.644386   5.536840   6.036265
    36  H    4.987905   5.794402   4.899273   4.815072   5.158757
    37  H    4.552464   5.919389   5.521647   4.657837   5.568567
    38  H    8.924015   4.913439   4.540569   3.301658   2.389901
    39  H    8.582113   5.336636   4.387235   4.120125   3.020730
    40  H   10.164075   7.034326   6.690987   4.950561   4.626121
    41  H   10.272321   7.408615   6.654182   5.682923   4.966710
    42  H    8.996661   7.305307   6.929368   5.055463   5.323327
    43  H    8.436656   6.826692   5.633535   5.565487   4.909085
    44  H    7.577345   7.273033   6.131164   5.977583   5.766209
    45  H    6.730780   5.722177   4.444057   4.799152   4.351304
    46  H   10.179843   8.528610   7.626459   6.746538   6.333670
                   31         32         33         34         35
    31  H    0.000000
    32  H    3.033266   0.000000
    33  H    3.034132   2.661195   0.000000
    34  H    4.100063   2.770951   2.394133   0.000000
    35  H    4.347178   3.867531   3.649407   1.763973   0.000000
    36  H    2.964959   3.042929   4.001063   3.069412   2.446029
    37  H    3.961441   2.374909   3.961457   2.454096   2.500791
    38  H    3.303832   4.601505   2.461409   4.696773   5.505338
    39  H    2.569004   4.791530   3.048706   4.689163   4.927306
    40  H    4.870118   5.538214   2.892267   4.325239   5.012245
    41  H    4.600666   6.081908   3.710905   4.866613   4.973328
    42  H    4.731561   4.581923   2.511686   2.407173   2.970431
    43  H    3.215283   5.214101   3.908383   4.290151   3.666109
    44  H    3.645573   4.892269   4.272573   3.655452   2.426429
    45  H    2.035383   4.087493   3.734523   3.908828   3.323476
    46  H    5.199270   6.394172   4.449454   4.508228   3.955116
                   36         37         38         39         40
    36  H    0.000000
    37  H    1.751377   0.000000
    38  H    5.524012   6.051265   0.000000
    39  H    4.696809   5.687132   1.745226   0.000000
    40  H    6.053593   6.394103   2.398419   3.014417   0.000000
    41  H    5.792166   6.582111   2.797415   2.341388   1.748853
    42  H    4.668000   4.708017   3.811462   3.903826   2.342207
    43  H    3.743021   5.056024   3.838086   2.332076   3.910750
    44  H    2.635775   3.956012   5.081816   3.807053   4.948619
    45  H    2.306571   3.844229   4.193841   2.839357   4.899620
    46  H    5.276865   6.111841   4.524055   3.668761   3.178833
                   41         42         43         44         45
    41  H    0.000000
    42  H    2.989749   0.000000
    43  H    2.708211   3.649600   0.000000
    44  H    4.094511   3.778535   1.762799   0.000000
    45  H    4.128038   4.285312   1.755807   1.750098   0.000000
    46  H    2.096294   2.787273   2.391076   3.023621   3.938340
                   46
    46  H    0.000000
 Stoichiometry    C18H26O2
 Framework group  C1[X(C18H26O2)]
 Deg. of freedom   132
 Full point group                 C1      NOp   1
 Largest Abelian subgroup         C1      NOp   1
 Largest concise Abelian subgroup C1      NOp   1
                         Standard orientation:                         
 ---------------------------------------------------------------------
 Center     Atomic      Atomic             Coordinates (Angstroms)
 Number     Number       Type             X           Y           Z
 ---------------------------------------------------------------------
      1          6           0        4.640224   -0.156176   -0.027390
      2          8           0        5.869524   -0.086581   -0.220225
      3          6           0        3.803196    1.002880   -0.132691
      4          6           0        2.470980    0.935257    0.112462
      5          6           0        1.757691   -0.387348    0.308062
      6          6           0        2.607628   -1.590596   -0.102558
      7          6           0        4.035761   -1.462704    0.401082
      8          6           0        1.676737    2.191220    0.277130
      9          6           0        0.269666    2.123139   -0.313042
     10          6           0       -0.419721    0.830990    0.119118
     11          6           0        0.391624   -0.368811   -0.408329
     12          6           0       -1.858994    0.754673   -0.339324
     13          6           0       -2.527302   -0.597448   -0.025297
     14          6           0       -1.779628   -1.694768   -0.780049
     15          6           0       -0.316636   -1.735373   -0.318648
     16          6           0       -2.834275    1.775464    0.226748
     17          6           0       -4.198189    1.201364   -0.189147
     18          6           0       -3.961338   -0.304383   -0.505576
     19          6           0       -2.534539   -0.906253    1.475001
     20          8           0       -4.968692   -1.162197    0.041531
     21          1           0        4.302778    1.955150   -0.304982
     22          1           0        1.546567   -0.461860    1.388488
     23          1           0        2.612588   -1.677547   -1.198455
     24          1           0        2.165926   -2.507187    0.297633
     25          1           0        4.044397   -1.486017    1.500759
     26          1           0        4.670924   -2.281557    0.046723
     27          1           0        2.236336    3.045312   -0.114615
     28          1           0        1.594982    2.369873    1.363441
     29          1           0        0.311300    2.169351   -1.411294
     30          1           0       -0.294817    2.998747    0.020296
     31          1           0       -0.401678    0.804917    1.217614
     32          1           0        0.579700   -0.178847   -1.478644
     33          1           0       -1.870656    0.858433   -1.436665
     34          1           0       -1.827251   -1.497404   -1.860953
     35          1           0       -2.243378   -2.678522   -0.618617
     36          1           0       -0.269671   -2.113480    0.711145
     37          1           0        0.228424   -2.462930   -0.931142
     38          1           0       -2.670365    2.788962   -0.135874
     39          1           0       -2.757892    1.823950    1.315643
     40          1           0       -4.606453    1.719305   -1.063135
     41          1           0       -4.932501    1.321142    0.608286
     42          1           0       -3.991109   -0.479585   -1.584832
     43          1           0       -3.304001   -0.338564    1.996728
     44          1           0       -2.728162   -1.968248    1.650314
     45          1           0       -1.582374   -0.680635    1.953737
     46          1           0       -5.357580   -0.719304    0.832643
 ---------------------------------------------------------------------
 Rotational constants (GHZ):           0.9177986           0.1780311           0.1571405
 Standard basis: 6-31G(d) (6D, 7F)
 There are   352 symmetry adapted cartesian basis functions of A   symmetry.
 There are   352 symmetry adapted basis functions of A   symmetry.
   352 basis functions,   664 primitive gaussians,   352 cartesian basis functions
    75 alpha electrons       75 beta electrons
       nuclear repulsion energy      1669.3770144343 Hartrees.
 NAtoms=   46 NActive=   46 NUniq=   46 SFac= 1.00D+00 NAtFMM=   60 NAOKFM=F Big=F
 Integral buffers will be    131072 words long.
 Raffenetti 2 integral format.
 Two-electron integral symmetry is turned on.
 Nuclear repulsion after empirical dispersion term =     1669.3280003482 Hartrees.
 One-electron integrals computed using PRISM.
 NBasis=   352 RedAO= T EigKep=  1.26D-03  NBF=   352
 NBsUse=   352 1.00D-06 EigRej= -1.00D+00 NBFU=   352
 ExpMin= 1.61D-01 ExpMax= 5.48D+03 ExpMxC= 8.25D+02 IAcc=3 IRadAn=         5 AccDes= 0.00D+00
 Harris functional with IExCor= 4639 and IRadAn=       5 diagonalized for initial guess.
 HarFok:  IExCor= 4639 AccDes= 0.00D+00 IRadAn=         5 IDoV= 1 UseB2=F ITyADJ=14
 ICtDFT=  3500011 ScaDFX=  1.000000  1.000000  1.000000  1.000000
 FoFCou: FMM=F IPFlag=           0 FMFlag=      100000 FMFlg1=           0
         NFxFlg=           0 DoJE=T BraDBF=F KetDBF=T FulRan=T
         wScrn=  0.000000 ICntrl=       500 IOpCl=  0 I1Cent=   200000004 NGrid=           0
         NMat0=    1 NMatS0=      1 NMatT0=    0 NMatD0=    1 NMtDS0=    0 NMtDT0=    0
 Petite list used in FoFCou.
 Requested convergence on RMS density matrix=1.00D-08 within 128 cycles.
 Requested convergence on MAX density matrix=1.00D-06.
 Requested convergence on             energy=1.00D-06.
 No special actions if energy rises.
 Integral accuracy reduced to 1.0D-05 until final iterations.
 Initial convergence to 1.0D-05 achieved.  Increase integral accuracy.
 SCF Done:  E(RwB97XD) =  -851.788162187     A.U. after   15 cycles
            NFock= 15  Conv=0.35D-08     -V/T= 2.0092

 **********************************************************************

            Population analysis using the SCF Density.

 **********************************************************************

 Orbital symmetries:
       Occupied  (A) (A) (A) (A) (A) (A) (A) (A) (A) (A) (A) (A)
                 (A) (A) (A) (A) (A) (A) (A) (A) (A) (A) (A) (A)
                 (A) (A) (A) (A) (A) (A) (A) (A) (A) (A) (A) (A)
                 (A) (A) (A) (A) (A) (A) (A) (A) (A) (A) (A) (A)
                 (A) (A) (A) (A) (A) (A) (A) (A) (A) (A) (A) (A)
                 (A) (A) (A) (A) (A) (A) (A) (A) (A) (A) (A) (A)
                 (A) (A) (A)
       Virtual   (A) (A) (A) (A) (A) (A) (A) (A) (A) (A) (A) (A)
                 (A) (A) (A) (A) (A) (A) (A) (A) (A) (A) (A) (A)
                 (A) (A) (A) (A) (A) (A) (A) (A) (A) (A) (A) (A)
                 (A) (A) (A) (A) (A) (A) (A) (A) (A) (A) (A) (A)
                 (A) (A) (A) (A) (A) (A) (A) (A) (A) (A) (A) (A)
                 (A) (A) (A) (A) (A) (A) (A) (A) (A) (A) (A) (A)
                 (A) (A) (A) (A) (A) (A) (A) (A) (A) (A) (A) (A)
                 (A) (A) (A) (A) (A) (A) (A) (A) (A) (A) (A) (A)
                 (A) (A) (A) (A) (A) (A) (A) (A) (A) (A) (A) (A)
                 (A) (A) (A) (A) (A) (A) (A) (A) (A) (A) (A) (A)
                 (A) (A) (A) (A) (A) (A) (A) (A) (A) (A) (A) (A)
                 (A) (A) (A) (A) (A) (A) (A) (A) (A) (A) (A) (A)
                 (A) (A) (A) (A) (A) (A) (A) (A) (A) (A) (A) (A)
                 (A) (A) (A) (A) (A) (A) (A) (A) (A) (A) (A) (A)
                 (A) (A) (A) (A) (A) (A) (A) (A) (A) (A) (A) (A)
                 (A) (A) (A) (A) (A) (A) (A) (A) (A) (A) (A) (A)
                 (A) (A) (A) (A) (A) (A) (A) (A) (A) (A) (A) (A)
                 (A) (A) (A) (A) (A) (A) (A) (A) (A) (A) (A) (A)
                 (A) (A) (A) (A) (A) (A) (A) (A) (A) (A) (A) (A)
                 (A) (A) (A) (A) (A) (A) (A) (A) (A) (A) (A) (A)
                 (A) (A) (A) (A) (A) (A) (A) (A) (A) (A) (A) (A)
                 (A) (A) (A) (A) (A) (A) (A) (A) (A) (A) (A) (A)
                 (A) (A) (A) (A) (A) (A) (A) (A) (A) (A) (A) (A)
                 (A)
 The electronic state is 1-A.
 Alpha  occ. eigenvalues --  -19.26605 -19.23307 -10.36616 -10.34327 -10.33047
 Alpha  occ. eigenvalues --  -10.31582 -10.30864 -10.30819 -10.30292 -10.30228
 Alpha  occ. eigenvalues --  -10.30136 -10.30013 -10.30003 -10.29803 -10.29717
 Alpha  occ. eigenvalues --  -10.29645 -10.29439 -10.29330 -10.29241 -10.28632
 Alpha  occ. eigenvalues --   -1.11103  -1.10233  -0.98226  -0.95701  -0.90804
 Alpha  occ. eigenvalues --   -0.90173  -0.87263  -0.84478  -0.82480  -0.81519
 Alpha  occ. eigenvalues --   -0.77892  -0.77534  -0.73521  -0.72038  -0.69809
 Alpha  occ. eigenvalues --   -0.67443  -0.66799  -0.65538  -0.62866  -0.60779
 Alpha  occ. eigenvalues --   -0.58996  -0.57511  -0.56155  -0.55428  -0.55196
 Alpha  occ. eigenvalues --   -0.54135  -0.53209  -0.52684  -0.52102  -0.50975
 Alpha  occ. eigenvalues --   -0.50454  -0.49638  -0.49314  -0.48094  -0.47710
 Alpha  occ. eigenvalues --   -0.47491  -0.46963  -0.46530  -0.45255  -0.44192
 Alpha  occ. eigenvalues --   -0.43461  -0.43212  -0.42822  -0.41949  -0.41668
 Alpha  occ. eigenvalues --   -0.41308  -0.40697  -0.40341  -0.39432  -0.39002
 Alpha  occ. eigenvalues --   -0.37726  -0.36316  -0.33573  -0.32484  -0.30765
 Alpha virt. eigenvalues --    0.02444   0.13118   0.14037   0.14951   0.16452
 Alpha virt. eigenvalues --    0.17179   0.17946   0.18198   0.18905   0.20498
 Alpha virt. eigenvalues --    0.20814   0.21105   0.21856   0.22457   0.23251
 Alpha virt. eigenvalues --    0.23757   0.23875   0.24471   0.25055   0.25346
 Alpha virt. eigenvalues --    0.25674   0.26156   0.26409   0.26688   0.27068
 Alpha virt. eigenvalues --    0.27659   0.27961   0.28701   0.29137   0.30236
 Alpha virt. eigenvalues --    0.30754   0.31360   0.31771   0.32293   0.33075
 Alpha virt. eigenvalues --    0.33712   0.34389   0.35182   0.36103   0.36633
 Alpha virt. eigenvalues --    0.37676   0.37868   0.39248   0.39914   0.40731
 Alpha virt. eigenvalues --    0.41690   0.42772   0.44990   0.45320   0.49581
 Alpha virt. eigenvalues --    0.52287   0.58226   0.58898   0.59201   0.60629
 Alpha virt. eigenvalues --    0.61630   0.61814   0.62086   0.62723   0.64676
 Alpha virt. eigenvalues --    0.65773   0.66078   0.66810   0.68641   0.69241
 Alpha virt. eigenvalues --    0.70156   0.71007   0.72423   0.72908   0.73596
 Alpha virt. eigenvalues --    0.73761   0.73849   0.75108   0.76070   0.76329
 Alpha virt. eigenvalues --    0.77761   0.78171   0.78787   0.80434   0.81270
 Alpha virt. eigenvalues --    0.82799   0.83659   0.84363   0.85009   0.85738
 Alpha virt. eigenvalues --    0.86798   0.88210   0.89533   0.90076   0.90636
 Alpha virt. eigenvalues --    0.91207   0.91730   0.92847   0.93252   0.94030
 Alpha virt. eigenvalues --    0.94957   0.95151   0.95493   0.96049   0.96464
 Alpha virt. eigenvalues --    0.96913   0.97245   0.97906   0.98546   0.98847
 Alpha virt. eigenvalues --    0.99314   0.99744   1.00769   1.01312   1.01852
 Alpha virt. eigenvalues --    1.02461   1.03077   1.04079   1.04261   1.04886
 Alpha virt. eigenvalues --    1.05290   1.06020   1.06120   1.06729   1.07265
 Alpha virt. eigenvalues --    1.09421   1.09874   1.11736   1.12677   1.13425
 Alpha virt. eigenvalues --    1.14048   1.15871   1.16996   1.20067   1.20389
 Alpha virt. eigenvalues --    1.21531   1.23462   1.25364   1.27105   1.29164
 Alpha virt. eigenvalues --    1.29972   1.32219   1.34513   1.35645   1.36798
 Alpha virt. eigenvalues --    1.39378   1.41552   1.43094   1.45108   1.47797
 Alpha virt. eigenvalues --    1.51381   1.52919   1.55689   1.56910   1.59973
 Alpha virt. eigenvalues --    1.61185   1.62519   1.63739   1.65576   1.67939
 Alpha virt. eigenvalues --    1.69372   1.71547   1.73217   1.73824   1.76489
 Alpha virt. eigenvalues --    1.78401   1.79318   1.80546   1.82507   1.83698
 Alpha virt. eigenvalues --    1.85102   1.85876   1.87118   1.87997   1.88911
 Alpha virt. eigenvalues --    1.89202   1.90573   1.91751   1.93373   1.94119
 Alpha virt. eigenvalues --    1.95418   1.96071   1.97575   1.99079   1.99822
 Alpha virt. eigenvalues --    2.00150   2.00843   2.01446   2.02230   2.03917
 Alpha virt. eigenvalues --    2.04990   2.05650   2.05762   2.07189   2.07819
 Alpha virt. eigenvalues --    2.08460   2.10038   2.10530   2.10941   2.12248
 Alpha virt. eigenvalues --    2.13158   2.14611   2.15830   2.16620   2.17490
 Alpha virt. eigenvalues --    2.19513   2.20582   2.21952   2.24140   2.25000
 Alpha virt. eigenvalues --    2.25732   2.28156   2.30190   2.30516   2.33349
 Alpha virt. eigenvalues --    2.34950   2.35317   2.36456   2.38116   2.40384
 Alpha virt. eigenvalues --    2.40970   2.43537   2.43900   2.44372   2.46636
 Alpha virt. eigenvalues --    2.47628   2.49393   2.50553   2.51877   2.53657
 Alpha virt. eigenvalues --    2.54446   2.56898   2.58492   2.62173   2.62961
 Alpha virt. eigenvalues --    2.63501   2.64820   2.65750   2.66956   2.68163
 Alpha virt. eigenvalues --    2.68724   2.71073   2.72183   2.74450   2.76279
 Alpha virt. eigenvalues --    2.77546   2.79912   2.80993   2.82678   2.84186
 Alpha virt. eigenvalues --    2.86669   2.90400   2.93513   2.97209   2.98502
 Alpha virt. eigenvalues --    3.00600   3.02746   3.07301   3.08002   3.09911
 Alpha virt. eigenvalues --    3.20283   3.27738   3.98450   4.07407   4.24368
 Alpha virt. eigenvalues --    4.26900   4.31374   4.33968   4.36075   4.38425
 Alpha virt. eigenvalues --    4.42363   4.42736   4.48631   4.54336   4.55177
 Alpha virt. eigenvalues --    4.65505   4.67599   4.74192   4.76236   4.80594
 Alpha virt. eigenvalues --    4.86779   4.92924
          Condensed to atoms (all electrons):
               1          2          3          4          5          6
     1  C    4.437718   0.522363   0.370079  -0.002465  -0.021985  -0.026309
     2  O    0.522363   8.117569  -0.061965   0.005429   0.000390   0.002435
     3  C    0.370079  -0.061965   5.291065   0.515466  -0.043313   0.003877
     4  C   -0.002465   0.005429   0.515466   4.871151   0.380839  -0.043743
     5  C   -0.021985   0.000390  -0.043313   0.380839   5.087465   0.346558
     6  C   -0.026309   0.002435   0.003877  -0.043743   0.346558   5.153162
     7  C    0.344287  -0.077855  -0.130732   0.003821  -0.037135   0.285510
     8  C    0.003834  -0.000107  -0.034165   0.356097  -0.066171   0.005003
     9  C   -0.000140   0.000000   0.002371  -0.033667  -0.011016  -0.000303
    10  C   -0.000017   0.000000   0.000455  -0.016007  -0.038094   0.004322
    11  C   -0.000158   0.000001   0.002289  -0.033279   0.366332  -0.047997
    12  C   -0.000000   0.000000   0.000002   0.000348   0.003874  -0.000147
    13  C   -0.000000   0.000000   0.000000   0.000006   0.000018   0.000003
    14  C    0.000000  -0.000000   0.000001  -0.000085   0.003550   0.000232
    15  C   -0.000002  -0.000000  -0.000094   0.004432  -0.041691  -0.005247
    16  C   -0.000000  -0.000000   0.000000  -0.000002  -0.000115   0.000001
    17  C    0.000000   0.000000  -0.000000   0.000000   0.000002  -0.000000
    18  C    0.000000   0.000000  -0.000000   0.000000   0.000004   0.000000
    19  C   -0.000000   0.000000   0.000000   0.000004   0.000035  -0.000003
    20  O   -0.000000   0.000000   0.000000   0.000000  -0.000000   0.000000
    21  H   -0.028609   0.000686   0.360638  -0.043960   0.004429  -0.000369
    22  H    0.000717   0.000003  -0.002358  -0.043281   0.365770  -0.034942
    23  H   -0.003086   0.000084   0.003523  -0.003985  -0.043351   0.386248
    24  H    0.003605  -0.000072  -0.000373   0.004311  -0.028530   0.376605
    25  H   -0.028531  -0.000388   0.002439  -0.001783  -0.002820  -0.038163
    26  H   -0.026571   0.003493   0.005398  -0.000179   0.004055  -0.029868
    27  H    0.000271  -0.000001  -0.002452  -0.039710   0.003959  -0.000127
    28  H   -0.000109   0.000003  -0.006547  -0.038756   0.000352   0.000100
    29  H   -0.000002  -0.000000  -0.000130  -0.003127   0.000508   0.000014
    30  H    0.000002  -0.000000  -0.000084   0.004162  -0.000036   0.000011
    31  H    0.000005   0.000000  -0.000244  -0.005058  -0.002053   0.000270
    32  H    0.000052  -0.000000   0.000204  -0.003443  -0.042785  -0.004089
    33  H    0.000000   0.000000  -0.000002  -0.000070   0.000126   0.000002
    34  H    0.000000   0.000000  -0.000000   0.000003   0.000038  -0.000026
    35  H    0.000000  -0.000000  -0.000000   0.000001  -0.000099   0.000004
    36  H   -0.000000  -0.000000  -0.000006   0.000213  -0.002735  -0.002795
    37  H   -0.000012  -0.000000   0.000019  -0.000199  -0.006451   0.003904
    38  H    0.000000  -0.000000   0.000000  -0.000001   0.000000  -0.000000
    39  H    0.000000   0.000000  -0.000000  -0.000000   0.000000   0.000000
    40  H    0.000000  -0.000000   0.000000   0.000000  -0.000000   0.000000
    41  H    0.000000  -0.000000   0.000000  -0.000000  -0.000000   0.000000
    42  H    0.000000  -0.000000   0.000000   0.000000  -0.000000  -0.000000
    43  H   -0.000000   0.000000   0.000000  -0.000000  -0.000002  -0.000000
    44  H    0.000000  -0.000000  -0.000000  -0.000000  -0.000011   0.000000
    45  H    0.000000  -0.000000  -0.000000   0.000002   0.000109   0.000001
    46  H    0.000000  -0.000000  -0.000000   0.000000  -0.000000   0.000000
               7          8          9         10         11         12
     1  C    0.344287   0.003834  -0.000140  -0.000017  -0.000158  -0.000000
     2  O   -0.077855  -0.000107   0.000000   0.000000   0.000001   0.000000
     3  C   -0.130732  -0.034165   0.002371   0.000455   0.002289   0.000002
     4  C    0.003821   0.356097  -0.033667  -0.016007  -0.033279   0.000348
     5  C   -0.037135  -0.066171  -0.011016  -0.038094   0.366332   0.003874
     6  C    0.285510   0.005003  -0.000303   0.004322  -0.047997  -0.000147
     7  C    5.343207  -0.000168   0.000038  -0.000088   0.004521   0.000002
     8  C   -0.000168   5.154935   0.333368  -0.043339  -0.014977   0.003871
     9  C    0.000038   0.333368   5.104875   0.367423  -0.041218  -0.041553
    10  C   -0.000088  -0.043339   0.367423   5.018770   0.369914   0.367481
    11  C    0.004521  -0.014977  -0.041218   0.369914   5.049152  -0.037931
    12  C    0.000002   0.003871  -0.041553   0.367481  -0.037931   5.113978
    13  C    0.000000  -0.000137   0.004346  -0.027985  -0.011017   0.358583
    14  C   -0.000003  -0.000009  -0.000154  -0.010528  -0.039252  -0.052891
    15  C    0.000278   0.000322   0.004023  -0.037797   0.361843  -0.017211
    16  C   -0.000000   0.000068  -0.004134  -0.036028   0.004549   0.354902
    17  C    0.000000  -0.000000   0.000129   0.004717  -0.000205  -0.058760
    18  C   -0.000000   0.000002  -0.000121   0.003944   0.000182  -0.064952
    19  C    0.000000  -0.000002   0.000323  -0.008211  -0.003204  -0.060717
    20  O    0.000000  -0.000000   0.000000  -0.000069  -0.000002   0.002972
    21  H    0.005939  -0.007444   0.000208  -0.000000  -0.000079  -0.000000
    22  H   -0.004076   0.000450  -0.000524  -0.007591  -0.044660   0.000065
    23  H   -0.040520  -0.000047  -0.000029   0.000174  -0.002996  -0.000001
    24  H   -0.031230  -0.000104  -0.000007  -0.000110  -0.007975  -0.000001
    25  H    0.367843  -0.000042  -0.000001   0.000003   0.000022   0.000000
    26  H    0.368682   0.000008   0.000000   0.000001  -0.000065  -0.000000
    27  H    0.000010   0.379048  -0.030511   0.004210  -0.000188  -0.000111
    28  H   -0.000071   0.378737  -0.040635  -0.004944  -0.000730  -0.000036
    29  H   -0.000003  -0.034329   0.379117  -0.038026  -0.008115  -0.004671
    30  H   -0.000000  -0.032446   0.378742  -0.033376   0.004860  -0.006495
    31  H   -0.000015   0.000998  -0.050324   0.383232  -0.052661  -0.045948
    32  H   -0.000155  -0.000081  -0.007161  -0.047559   0.376076  -0.003253
    33  H   -0.000000   0.000123  -0.006190  -0.043038  -0.004958   0.381362
    34  H   -0.000000   0.000000  -0.000046  -0.000495  -0.003727  -0.006379
    35  H   -0.000000  -0.000000   0.000009  -0.000022   0.004074   0.005724
    36  H   -0.000077  -0.000010  -0.000039  -0.002808  -0.044027  -0.000071
    37  H    0.000123  -0.000009  -0.000108   0.003990  -0.028804   0.000061
    38  H   -0.000000  -0.000026   0.001161  -0.001768  -0.000072  -0.026006
    39  H   -0.000000  -0.000026  -0.000324  -0.004302   0.000080  -0.038717
    40  H   -0.000000  -0.000000  -0.000006  -0.000045   0.000004  -0.000113
    41  H   -0.000000  -0.000000   0.000001  -0.000168   0.000003   0.004625
    42  H   -0.000000  -0.000000   0.000008  -0.000373  -0.000010  -0.000626
    43  H    0.000000  -0.000000  -0.000019  -0.000090   0.000011  -0.001767
    44  H   -0.000000  -0.000000  -0.000001   0.000026   0.000229   0.005057
    45  H   -0.000000   0.000014  -0.000000   0.001776  -0.000699  -0.007228
    46  H   -0.000000  -0.000000  -0.000000  -0.000004   0.000001  -0.000080
              13         14         15         16         17         18
     1  C   -0.000000   0.000000  -0.000002  -0.000000   0.000000   0.000000
     2  O    0.000000  -0.000000  -0.000000  -0.000000   0.000000   0.000000
     3  C    0.000000   0.000001  -0.000094   0.000000  -0.000000  -0.000000
     4  C    0.000006  -0.000085   0.004432  -0.000002   0.000000   0.000000
     5  C    0.000018   0.003550  -0.041691  -0.000115   0.000002   0.000004
     6  C    0.000003   0.000232  -0.005247   0.000001  -0.000000   0.000000
     7  C    0.000000  -0.000003   0.000278  -0.000000   0.000000  -0.000000
     8  C   -0.000137  -0.000009   0.000322   0.000068  -0.000000   0.000002
     9  C    0.004346  -0.000154   0.004023  -0.004134   0.000129  -0.000121
    10  C   -0.027985  -0.010528  -0.037797  -0.036028   0.004717   0.003944
    11  C   -0.011017  -0.039252   0.361843   0.004549  -0.000205   0.000182
    12  C    0.358583  -0.052891  -0.017211   0.354902  -0.058760  -0.064952
    13  C    5.088845   0.384748  -0.041006  -0.049307  -0.084790   0.353026
    14  C    0.384748   5.096774   0.351714   0.005752   0.006029  -0.037448
    15  C   -0.041006   0.351714   5.108059   0.000243  -0.000226   0.004240
    16  C   -0.049307   0.005752   0.000243   5.121572   0.327693  -0.063816
    17  C   -0.084790   0.006029  -0.000226   0.327693   5.217127   0.353011
    18  C    0.353026  -0.037448   0.004240  -0.063816   0.353011   4.816216
    19  C    0.330405  -0.062472  -0.004786  -0.003739  -0.004724  -0.045623
    20  O   -0.059802   0.000802  -0.000004   0.002205  -0.033694   0.259324
    21  H    0.000000  -0.000000   0.000002   0.000000  -0.000000  -0.000000
    22  H   -0.000048   0.000019  -0.005817  -0.000004   0.000000  -0.000000
    23  H   -0.000002  -0.000057  -0.002870   0.000000   0.000000  -0.000000
    24  H   -0.000002   0.000092   0.004361  -0.000000   0.000000   0.000000
    25  H   -0.000000  -0.000000  -0.000028   0.000000  -0.000000  -0.000000
    26  H   -0.000000  -0.000000   0.000000   0.000000  -0.000000   0.000000
    27  H    0.000001  -0.000000   0.000009  -0.000001  -0.000000  -0.000000
    28  H    0.000003   0.000001  -0.000008  -0.000009  -0.000000  -0.000000
    29  H   -0.000016  -0.000001   0.000077  -0.000300  -0.000023  -0.000002
    30  H    0.000037  -0.000003  -0.000119   0.003389  -0.000027  -0.000009
    31  H   -0.008278   0.000401  -0.001822  -0.005614   0.000015   0.000010
    32  H   -0.001215  -0.000127  -0.045561  -0.000074   0.000004  -0.000047
    33  H   -0.052947  -0.006292  -0.000726  -0.046797  -0.002058  -0.003553
    34  H   -0.039171   0.377484  -0.036921   0.000087   0.000045  -0.005795
    35  H   -0.031546   0.375749  -0.033774  -0.000221   0.000028  -0.003498
    36  H   -0.009653  -0.034046   0.380835  -0.000012  -0.000002  -0.000044
    37  H    0.004871  -0.033243   0.380259   0.000007   0.000003  -0.000070
    38  H    0.005139  -0.000142  -0.000003   0.377380  -0.026668   0.003064
    39  H   -0.007246   0.000067  -0.000022   0.386180  -0.034722   0.000777
    40  H    0.003384  -0.000133   0.000003  -0.028966   0.376183  -0.024158
    41  H    0.000206  -0.000101   0.000003  -0.029673   0.371700  -0.034909
    42  H   -0.067369  -0.007009   0.000111   0.002940  -0.041224   0.395396
    43  H   -0.037957   0.004680   0.000192   0.000889   0.002397  -0.004961
    44  H   -0.028966  -0.004447  -0.001580  -0.000101   0.000032  -0.003116
    45  H   -0.031996  -0.002739   0.001291  -0.000613   0.000198   0.004673
    46  H   -0.003308  -0.000131   0.000003   0.000226  -0.008535  -0.029048
              19         20         21         22         23         24
     1  C   -0.000000  -0.000000  -0.028609   0.000717  -0.003086   0.003605
     2  O    0.000000   0.000000   0.000686   0.000003   0.000084  -0.000072
     3  C    0.000000   0.000000   0.360638  -0.002358   0.003523  -0.000373
     4  C    0.000004   0.000000  -0.043960  -0.043281  -0.003985   0.004311
     5  C    0.000035  -0.000000   0.004429   0.365770  -0.043351  -0.028530
     6  C   -0.000003   0.000000  -0.000369  -0.034942   0.386248   0.376605
     7  C    0.000000   0.000000   0.005939  -0.004076  -0.040520  -0.031230
     8  C   -0.000002  -0.000000  -0.007444   0.000450  -0.000047  -0.000104
     9  C    0.000323   0.000000   0.000208  -0.000524  -0.000029  -0.000007
    10  C   -0.008211  -0.000069  -0.000000  -0.007591   0.000174  -0.000110
    11  C   -0.003204  -0.000002  -0.000079  -0.044660  -0.002996  -0.007975
    12  C   -0.060717   0.002972  -0.000000   0.000065  -0.000001  -0.000001
    13  C    0.330405  -0.059802   0.000000  -0.000048  -0.000002  -0.000002
    14  C   -0.062472   0.000802  -0.000000   0.000019  -0.000057   0.000092
    15  C   -0.004786  -0.000004   0.000002  -0.005817  -0.002870   0.004361
    16  C   -0.003739   0.002205   0.000000  -0.000004   0.000000  -0.000000
    17  C   -0.004724  -0.033694  -0.000000   0.000000   0.000000   0.000000
    18  C   -0.045623   0.259324  -0.000000  -0.000000  -0.000000   0.000000
    19  C    5.224129   0.003330   0.000000  -0.000087  -0.000000  -0.000004
    20  O    0.003330   8.276434   0.000000  -0.000000   0.000000   0.000000
    21  H    0.000000   0.000000   0.529266  -0.000184  -0.000056   0.000012
    22  H   -0.000087  -0.000000  -0.000184   0.594157   0.005412  -0.004274
    23  H   -0.000000   0.000000  -0.000056   0.005412   0.556180  -0.030131
    24  H   -0.000004   0.000000   0.000012  -0.004274  -0.030131   0.550413
    25  H   -0.000000  -0.000000  -0.000155   0.004067   0.004976  -0.005142
    26  H    0.000000   0.000000  -0.000096  -0.000174  -0.003469  -0.002220
    27  H    0.000000   0.000000   0.005205  -0.000095   0.000001   0.000002
    28  H   -0.000004  -0.000000   0.000203   0.001729   0.000001   0.000007
    29  H   -0.000005  -0.000000  -0.000004   0.000086  -0.000005   0.000001
    30  H   -0.000006   0.000000  -0.000008  -0.000015   0.000000   0.000000
    31  H    0.000808  -0.000001  -0.000002   0.006712   0.000009   0.000002
    32  H    0.000077   0.000000  -0.000026   0.006201   0.004901   0.000085
    33  H    0.006856   0.000054  -0.000000   0.000001  -0.000001  -0.000000
    34  H    0.006228  -0.000043  -0.000000   0.000004   0.000004   0.000006
    35  H   -0.005763   0.002074   0.000000  -0.000001   0.000001   0.000002
    36  H    0.004965  -0.000003  -0.000000   0.004745   0.000273   0.001866
    37  H    0.000025   0.000001   0.000000   0.000000   0.001512  -0.000879
    38  H    0.000056  -0.000037  -0.000000   0.000000   0.000000  -0.000000
    39  H    0.003237   0.000055   0.000000  -0.000004  -0.000000  -0.000000
    40  H    0.000065   0.002133   0.000000  -0.000000  -0.000000  -0.000000
    41  H    0.000467  -0.004100   0.000000  -0.000000   0.000000   0.000000
    42  H    0.006708  -0.040000   0.000000  -0.000000  -0.000000   0.000000
    43  H    0.377091   0.002199  -0.000000   0.000002   0.000000   0.000000
    44  H    0.379640   0.002627   0.000000   0.000000   0.000000  -0.000001
    45  H    0.372680   0.000467  -0.000000   0.000292   0.000000  -0.000003
    46  H    0.002386   0.240350   0.000000   0.000000   0.000000  -0.000000
              25         26         27         28         29         30
     1  C   -0.028531  -0.026571   0.000271  -0.000109  -0.000002   0.000002
     2  O   -0.000388   0.003493  -0.000001   0.000003  -0.000000  -0.000000
     3  C    0.002439   0.005398  -0.002452  -0.006547  -0.000130  -0.000084
     4  C   -0.001783  -0.000179  -0.039710  -0.038756  -0.003127   0.004162
     5  C   -0.002820   0.004055   0.003959   0.000352   0.000508  -0.000036
     6  C   -0.038163  -0.029868  -0.000127   0.000100   0.000014   0.000011
     7  C    0.367843   0.368682   0.000010  -0.000071  -0.000003  -0.000000
     8  C   -0.000042   0.000008   0.379048   0.378737  -0.034329  -0.032446
     9  C   -0.000001   0.000000  -0.030511  -0.040635   0.379117   0.378742
    10  C    0.000003   0.000001   0.004210  -0.004944  -0.038026  -0.033376
    11  C    0.000022  -0.000065  -0.000188  -0.000730  -0.008115   0.004860
    12  C    0.000000  -0.000000  -0.000111  -0.000036  -0.004671  -0.006495
    13  C   -0.000000  -0.000000   0.000001   0.000003  -0.000016   0.000037
    14  C   -0.000000  -0.000000  -0.000000   0.000001  -0.000001  -0.000003
    15  C   -0.000028   0.000000   0.000009  -0.000008   0.000077  -0.000119
    16  C    0.000000   0.000000  -0.000001  -0.000009  -0.000300   0.003389
    17  C   -0.000000  -0.000000  -0.000000  -0.000000  -0.000023  -0.000027
    18  C   -0.000000   0.000000  -0.000000  -0.000000  -0.000002  -0.000009
    19  C   -0.000000   0.000000   0.000000  -0.000004  -0.000005  -0.000006
    20  O   -0.000000   0.000000   0.000000  -0.000000  -0.000000   0.000000
    21  H   -0.000155  -0.000096   0.005205   0.000203  -0.000004  -0.000008
    22  H    0.004067  -0.000174  -0.000095   0.001729   0.000086  -0.000015
    23  H    0.004976  -0.003469   0.000001   0.000001  -0.000005   0.000000
    24  H   -0.005142  -0.002220   0.000002   0.000007   0.000001   0.000000
    25  H    0.536058  -0.021323   0.000000   0.000008  -0.000000   0.000000
    26  H   -0.021323   0.506936   0.000000  -0.000001  -0.000000   0.000000
    27  H    0.000000   0.000000   0.532040  -0.027407  -0.003320  -0.001395
    28  H    0.000008  -0.000001  -0.027407   0.554461   0.004849  -0.005511
    29  H   -0.000000  -0.000000  -0.003320   0.004849   0.562934  -0.031459
    30  H    0.000000   0.000000  -0.001395  -0.005511  -0.031459   0.557770
    31  H   -0.000001   0.000000   0.000060   0.004687   0.005638  -0.002822
    32  H    0.000009  -0.000002  -0.000064   0.000135   0.006373   0.000109
    33  H   -0.000000   0.000000   0.000003   0.000003   0.004543  -0.000065
    34  H    0.000000   0.000000  -0.000000  -0.000000  -0.000006   0.000001
    35  H    0.000000   0.000000   0.000000  -0.000000   0.000000  -0.000000
    36  H    0.000006   0.000001  -0.000000  -0.000001  -0.000000   0.000003
    37  H    0.000006   0.000000  -0.000000   0.000000  -0.000008   0.000002
    38  H    0.000000  -0.000000   0.000002   0.000006   0.000193   0.001508
    39  H   -0.000000   0.000000   0.000000  -0.000003   0.000038   0.000292
    40  H    0.000000   0.000000   0.000000  -0.000000  -0.000001   0.000002
    41  H   -0.000000   0.000000   0.000000   0.000000   0.000000   0.000002
    42  H   -0.000000   0.000000   0.000000  -0.000000  -0.000001  -0.000000
    43  H    0.000000  -0.000000  -0.000000   0.000000   0.000000   0.000001
    44  H    0.000000  -0.000000   0.000000   0.000000   0.000000  -0.000000
    45  H   -0.000000   0.000000  -0.000000  -0.000009  -0.000001   0.000004
    46  H    0.000000   0.000000  -0.000000   0.000000  -0.000000  -0.000000
              31         32         33         34         35         36
     1  C    0.000005   0.000052   0.000000   0.000000   0.000000  -0.000000
     2  O    0.000000  -0.000000   0.000000   0.000000  -0.000000  -0.000000
     3  C   -0.000244   0.000204  -0.000002  -0.000000  -0.000000  -0.000006
     4  C   -0.005058  -0.003443  -0.000070   0.000003   0.000001   0.000213
     5  C   -0.002053  -0.042785   0.000126   0.000038  -0.000099  -0.002735
     6  C    0.000270  -0.004089   0.000002  -0.000026   0.000004  -0.002795
     7  C   -0.000015  -0.000155  -0.000000  -0.000000  -0.000000  -0.000077
     8  C    0.000998  -0.000081   0.000123   0.000000  -0.000000  -0.000010
     9  C   -0.050324  -0.007161  -0.006190  -0.000046   0.000009  -0.000039
    10  C    0.383232  -0.047559  -0.043038  -0.000495  -0.000022  -0.002808
    11  C   -0.052661   0.376076  -0.004958  -0.003727   0.004074  -0.044027
    12  C   -0.045948  -0.003253   0.381362  -0.006379   0.005724  -0.000071
    13  C   -0.008278  -0.001215  -0.052947  -0.039171  -0.031546  -0.009653
    14  C    0.000401  -0.000127  -0.006292   0.377484   0.375749  -0.034046
    15  C   -0.001822  -0.045561  -0.000726  -0.036921  -0.033774   0.380835
    16  C   -0.005614  -0.000074  -0.046797   0.000087  -0.000221  -0.000012
    17  C    0.000015   0.000004  -0.002058   0.000045   0.000028  -0.000002
    18  C    0.000010  -0.000047  -0.003553  -0.005795  -0.003498  -0.000044
    19  C    0.000808   0.000077   0.006856   0.006228  -0.005763   0.004965
    20  O   -0.000001   0.000000   0.000054  -0.000043   0.002074  -0.000003
    21  H   -0.000002  -0.000026  -0.000000  -0.000000   0.000000  -0.000000
    22  H    0.006712   0.006201   0.000001   0.000004  -0.000001   0.004745
    23  H    0.000009   0.004901  -0.000001   0.000004   0.000001   0.000273
    24  H    0.000002   0.000085  -0.000000   0.000006   0.000002   0.001866
    25  H   -0.000001   0.000009  -0.000000   0.000000   0.000000   0.000006
    26  H    0.000000  -0.000002   0.000000   0.000000   0.000000   0.000001
    27  H    0.000060  -0.000064   0.000003  -0.000000   0.000000  -0.000000
    28  H    0.004687   0.000135   0.000003  -0.000000  -0.000000  -0.000001
    29  H    0.005638   0.006373   0.004543  -0.000006   0.000000  -0.000000
    30  H   -0.002822   0.000109  -0.000065   0.000001  -0.000000   0.000003
    31  H    0.616293   0.006162   0.006265   0.000039  -0.000005   0.001145
    32  H    0.006162   0.607610   0.003555   0.002990  -0.000086   0.005497
    33  H    0.006265   0.003555   0.618866   0.005699   0.000028   0.000060
    34  H    0.000039   0.002990   0.005699   0.580565  -0.030760   0.004887
    35  H   -0.000005  -0.000086   0.000028  -0.030760   0.550807  -0.004267
    36  H    0.001145   0.005497   0.000060   0.004887  -0.004267   0.576198
    37  H   -0.000094  -0.006269  -0.000075  -0.004476  -0.001680  -0.033832
    38  H   -0.000153   0.000000  -0.005387  -0.000003   0.000003   0.000000
    39  H    0.004661   0.000002   0.005352  -0.000007   0.000003  -0.000005
    40  H    0.000002  -0.000000   0.001095  -0.000016  -0.000001   0.000000
    41  H   -0.000003  -0.000000   0.000014  -0.000002   0.000001  -0.000000
    42  H   -0.000007  -0.000001   0.003719   0.005385   0.000406   0.000000
    43  H    0.000076   0.000002  -0.000095  -0.000138   0.000002   0.000032
    44  H   -0.000018   0.000002  -0.000110   0.000116   0.004494   0.001116
    45  H    0.004460  -0.000017   0.000064  -0.000143  -0.000004  -0.000225
    46  H   -0.000001  -0.000000   0.000005  -0.000001  -0.000047  -0.000001
              37         38         39         40         41         42
     1  C   -0.000012   0.000000   0.000000   0.000000   0.000000   0.000000
     2  O   -0.000000  -0.000000   0.000000  -0.000000  -0.000000  -0.000000
     3  C    0.000019   0.000000  -0.000000   0.000000   0.000000   0.000000
     4  C   -0.000199  -0.000001  -0.000000   0.000000  -0.000000   0.000000
     5  C   -0.006451   0.000000   0.000000  -0.000000  -0.000000  -0.000000
     6  C    0.003904  -0.000000   0.000000   0.000000   0.000000  -0.000000
     7  C    0.000123  -0.000000  -0.000000  -0.000000  -0.000000  -0.000000
     8  C   -0.000009  -0.000026  -0.000026  -0.000000  -0.000000  -0.000000
     9  C   -0.000108   0.001161  -0.000324  -0.000006   0.000001   0.000008
    10  C    0.003990  -0.001768  -0.004302  -0.000045  -0.000168  -0.000373
    11  C   -0.028804  -0.000072   0.000080   0.000004   0.000003  -0.000010
    12  C    0.000061  -0.026006  -0.038717  -0.000113   0.004625  -0.000626
    13  C    0.004871   0.005139  -0.007246   0.003384   0.000206  -0.067369
    14  C   -0.033243  -0.000142   0.000067  -0.000133  -0.000101  -0.007009
    15  C    0.380259  -0.000003  -0.000022   0.000003   0.000003   0.000111
    16  C    0.000007   0.377380   0.386180  -0.028966  -0.029673   0.002940
    17  C    0.000003  -0.026668  -0.034722   0.376183   0.371700  -0.041224
    18  C   -0.000070   0.003064   0.000777  -0.024158  -0.034909   0.395396
    19  C    0.000025   0.000056   0.003237   0.000065   0.000467   0.006708
    20  O    0.000001  -0.000037   0.000055   0.002133  -0.004100  -0.040000
    21  H    0.000000  -0.000000   0.000000   0.000000   0.000000   0.000000
    22  H    0.000000   0.000000  -0.000004  -0.000000  -0.000000  -0.000000
    23  H    0.001512   0.000000  -0.000000  -0.000000   0.000000  -0.000000
    24  H   -0.000879  -0.000000  -0.000000  -0.000000   0.000000   0.000000
    25  H    0.000006   0.000000  -0.000000   0.000000  -0.000000  -0.000000
    26  H    0.000000  -0.000000   0.000000   0.000000   0.000000   0.000000
    27  H   -0.000000   0.000002   0.000000   0.000000   0.000000   0.000000
    28  H    0.000000   0.000006  -0.000003  -0.000000   0.000000  -0.000000
    29  H   -0.000008   0.000193   0.000038  -0.000001   0.000000  -0.000001
    30  H    0.000002   0.001508   0.000292   0.000002   0.000002  -0.000000
    31  H   -0.000094  -0.000153   0.004661   0.000002  -0.000003  -0.000007
    32  H   -0.006269   0.000000   0.000002  -0.000000  -0.000000  -0.000001
    33  H   -0.000075  -0.005387   0.005352   0.001095   0.000014   0.003719
    34  H   -0.004476  -0.000003  -0.000007  -0.000016  -0.000002   0.005385
    35  H   -0.001680   0.000003   0.000003  -0.000001   0.000001   0.000406
    36  H   -0.033832   0.000000  -0.000005   0.000000  -0.000000   0.000000
    37  H    0.554931  -0.000000  -0.000000  -0.000000  -0.000000  -0.000005
    38  H   -0.000000   0.547230  -0.034735  -0.006340   0.001995  -0.000132
    39  H   -0.000000  -0.034735   0.566792   0.004003  -0.008424  -0.000143
    40  H   -0.000000  -0.006340   0.004003   0.531461  -0.029064  -0.006512
    41  H   -0.000000   0.001995  -0.008424  -0.029064   0.565812   0.003620
    42  H   -0.000005  -0.000132  -0.000143  -0.006512   0.003620   0.584189
    43  H   -0.000002   0.000027   0.000315  -0.000037   0.000105   0.000273
    44  H   -0.000062   0.000000   0.000021  -0.000001   0.000004  -0.000070
    45  H    0.000082  -0.000030   0.000513   0.000001  -0.000007  -0.000105
    46  H   -0.000000  -0.000011  -0.000136  -0.000058   0.009933   0.006332
              43         44         45         46
     1  C   -0.000000   0.000000   0.000000   0.000000
     2  O    0.000000  -0.000000  -0.000000  -0.000000
     3  C    0.000000  -0.000000  -0.000000  -0.000000
     4  C   -0.000000  -0.000000   0.000002   0.000000
     5  C   -0.000002  -0.000011   0.000109  -0.000000
     6  C   -0.000000   0.000000   0.000001   0.000000
     7  C    0.000000  -0.000000  -0.000000  -0.000000
     8  C   -0.000000  -0.000000   0.000014  -0.000000
     9  C   -0.000019  -0.000001  -0.000000  -0.000000
    10  C   -0.000090   0.000026   0.001776  -0.000004
    11  C    0.000011   0.000229  -0.000699   0.000001
    12  C   -0.001767   0.005057  -0.007228  -0.000080
    13  C   -0.037957  -0.028966  -0.031996  -0.003308
    14  C    0.004680  -0.004447  -0.002739  -0.000131
    15  C    0.000192  -0.001580   0.001291   0.000003
    16  C    0.000889  -0.000101  -0.000613   0.000226
    17  C    0.002397   0.000032   0.000198  -0.008535
    18  C   -0.004961  -0.003116   0.004673  -0.029048
    19  C    0.377091   0.379640   0.372680   0.002386
    20  O    0.002199   0.002627   0.000467   0.240350
    21  H   -0.000000   0.000000  -0.000000   0.000000
    22  H    0.000002   0.000000   0.000292   0.000000
    23  H    0.000000   0.000000   0.000000   0.000000
    24  H    0.000000  -0.000001  -0.000003  -0.000000
    25  H    0.000000   0.000000  -0.000000   0.000000
    26  H   -0.000000  -0.000000   0.000000   0.000000
    27  H   -0.000000   0.000000  -0.000000  -0.000000
    28  H    0.000000   0.000000  -0.000009   0.000000
    29  H    0.000000   0.000000  -0.000001  -0.000000
    30  H    0.000001  -0.000000   0.000004  -0.000000
    31  H    0.000076  -0.000018   0.004460  -0.000001
    32  H    0.000002   0.000002  -0.000017  -0.000000
    33  H   -0.000095  -0.000110   0.000064   0.000005
    34  H   -0.000138   0.000116  -0.000143  -0.000001
    35  H    0.000002   0.004494  -0.000004  -0.000047
    36  H    0.000032   0.001116  -0.000225  -0.000001
    37  H   -0.000002  -0.000062   0.000082  -0.000000
    38  H    0.000027   0.000000  -0.000030  -0.000011
    39  H    0.000315   0.000021   0.000513  -0.000136
    40  H   -0.000037  -0.000001   0.000001  -0.000058
    41  H    0.000105   0.000004  -0.000007   0.009933
    42  H    0.000273  -0.000070  -0.000105   0.006332
    43  H    0.565082  -0.025451  -0.029032   0.002179
    44  H   -0.025451   0.519990  -0.030020  -0.000170
    45  H   -0.029032  -0.030020   0.555411  -0.000027
    46  H    0.002179  -0.000170  -0.000027   0.379936
 Mulliken charges:
               1
     1  C    0.455064
     2  O   -0.512068
     3  C   -0.275358
     4  C    0.166515
     5  C   -0.180020
     6  C   -0.334134
     7  C   -0.402132
     8  C   -0.383239
     9  C   -0.307910
    10  C   -0.127556
    11  C   -0.115138
    12  C   -0.127244
    13  C    0.060143
    14  C   -0.316778
    15  C   -0.324985
    16  C   -0.318557
    17  C   -0.363656
    18  C    0.127301
    19  C   -0.520166
    20  O   -0.657273
    21  H    0.174406
    22  H    0.157704
    23  H    0.167308
    24  H    0.169688
    25  H    0.182940
    26  H    0.195395
    27  H    0.180563
    28  H    0.179496
    29  H    0.159184
    30  H    0.162979
    31  H    0.133175
    32  H    0.141971
    33  H    0.134568
    34  H    0.144572
    35  H    0.168363
    36  H    0.152816
    37  H    0.166481
    38  H    0.163748
    39  H    0.156427
    40  H    0.177115
    41  H    0.147957
    42  H    0.154501
    43  H    0.143997
    44  H    0.180771
    45  H    0.160860
    46  H    0.400206
 Sum of Mulliken charges =  -0.00000
 Mulliken charges with hydrogens summed into heavy atoms:
               1
     1  C    0.455064
     2  O   -0.512068
     3  C   -0.100952
     4  C    0.166515
     5  C   -0.022315
     6  C    0.002862
     7  C   -0.023797
     8  C   -0.023181
     9  C    0.014252
    10  C    0.005619
    11  C    0.026833
    12  C    0.007324
    13  C    0.060143
    14  C   -0.003844
    15  C   -0.005687
    16  C    0.001618
    17  C   -0.038584
    18  C    0.281802
    19  C   -0.034537
    20  O   -0.257067
 Electronic spatial extent (au):  <R**2>=           6807.3225
 Charge=             -0.0000 electrons
 Dipole moment (field-independent basis, Debye):
    X=             -4.3914    Y=              1.5253    Z=              1.3896  Tot=              4.8520
 Quadrupole moment (field-independent basis, Debye-Ang):
   XX=           -162.3919   YY=           -117.8999   ZZ=           -117.5676
   XY=             -8.5866   XZ=             -1.1441   YZ=             -0.7619
 Traceless Quadrupole moment (field-independent basis, Debye-Ang):
   XX=            -29.7721   YY=             14.7200   ZZ=             15.0522
   XY=             -8.5866   XZ=             -1.1441   YZ=             -0.7619
 Octapole moment (field-independent basis, Debye-Ang**2):
  XXX=           -261.7393  YYY=              1.9906  ZZZ=             -0.1606  XYY=             24.6223
  XXY=             36.4679  XXZ=             47.3149  XZZ=             -9.5623  YZZ=             -3.2268
  YYZ=             -0.2008  XYZ=              3.3363
 Hexadecapole moment (field-independent basis, Debye-Ang**3):
 XXXX=          -8855.3844 YYYY=          -1422.8955 ZZZZ=           -407.8523 XXXY=           -185.8883
 XXXZ=            -92.5405 YYYX=              7.7776 YYYZ=             -5.3914 ZZZX=              0.7183
 ZZZY=              1.1322 XXYY=          -1420.0925 XXZZ=          -1175.1778 YYZZ=           -308.7719
 XXYZ=            -30.3777 YYXZ=             -6.0392 ZZXY=              1.3582
 N-N= 1.669328000348D+03 E-N=-5.315698595177D+03  KE= 8.440213528406D+02

 **********************************************************************

            Electrostatic Properties Using The SCF Density.

 **********************************************************************

       Atomic Center    1 is at   4.640224 -0.156176 -0.027390
       Atomic Center    2 is at   5.869524 -0.086581 -0.220225
       Atomic Center    3 is at   3.803196  1.002880 -0.132691
       Atomic Center    4 is at   2.470980  0.935257  0.112462
       Atomic Center    5 is at   1.757691 -0.387348  0.308062
       Atomic Center    6 is at   2.607628 -1.590596 -0.102558
       Atomic Center    7 is at   4.035761 -1.462704  0.401082
       Atomic Center    8 is at   1.676737  2.191220  0.277130
       Atomic Center    9 is at   0.269666  2.123139 -0.313042
       Atomic Center   10 is at  -0.419721  0.830990  0.119118
       Atomic Center   11 is at   0.391624 -0.368811 -0.408329
       Atomic Center   12 is at  -1.858994  0.754673 -0.339324
       Atomic Center   13 is at  -2.527302 -0.597448 -0.025297
       Atomic Center   14 is at  -1.779628 -1.694768 -0.780049
       Atomic Center   15 is at  -0.316636 -1.735373 -0.318648
       Atomic Center   16 is at  -2.834275  1.775464  0.226748
       Atomic Center   17 is at  -4.198189  1.201364 -0.189147
       Atomic Center   18 is at  -3.961338 -0.304383 -0.505576
       Atomic Center   19 is at  -2.534539 -0.906253  1.475001
       Atomic Center   20 is at  -4.968692 -1.162197  0.041531
       Atomic Center   21 is at   4.302778  1.955150 -0.304982
       Atomic Center   22 is at   1.546567 -0.461860  1.388488
       Atomic Center   23 is at   2.612588 -1.677547 -1.198455
       Atomic Center   24 is at   2.165926 -2.507187  0.297633
       Atomic Center   25 is at   4.044397 -1.486017  1.500759
       Atomic Center   26 is at   4.670924 -2.281557  0.046723
       Atomic Center   27 is at   2.236336  3.045312 -0.114615
       Atomic Center   28 is at   1.594982  2.369873  1.363441
       Atomic Center   29 is at   0.311300  2.169351 -1.411294
       Atomic Center   30 is at  -0.294817  2.998747  0.020296
       Atomic Center   31 is at  -0.401678  0.804917  1.217614
       Atomic Center   32 is at   0.579700 -0.178847 -1.478644
       Atomic Center   33 is at  -1.870656  0.858433 -1.436665
       Atomic Center   34 is at  -1.827251 -1.497404 -1.860953
       Atomic Center   35 is at  -2.243378 -2.678522 -0.618617
       Atomic Center   36 is at  -0.269671 -2.113480  0.711145
       Atomic Center   37 is at   0.228424 -2.462930 -0.931142
       Atomic Center   38 is at  -2.670365  2.788962 -0.135874
       Atomic Center   39 is at  -2.757892  1.823950  1.315643
       Atomic Center   40 is at  -4.606453  1.719305 -1.063135
       Atomic Center   41 is at  -4.932501  1.321142  0.608286
       Atomic Center   42 is at  -3.991109 -0.479585 -1.584832
       Atomic Center   43 is at  -3.304001 -0.338564  1.996728
       Atomic Center   44 is at  -2.728162 -1.968248  1.650314
       Atomic Center   45 is at  -1.582374 -0.680635  1.953737
       Atomic Center   46 is at  -5.357580 -0.719304  0.832643
 -----------------------------------------------------------------

              Electrostatic Properties (Atomic Units)

 -----------------------------------------------------------------
    Center     Electric         -------- Electric Field --------
               Potential          X             Y             Z
 -----------------------------------------------------------------
    1 Atom    -14.674772      0.004763     -0.001981     -0.000682
    2 Atom    -22.355280      0.102826      0.005667     -0.016497
    3 Atom    -14.747464     -0.009917     -0.000308      0.002109
    4 Atom    -14.710248      0.012503      0.000277     -0.002461
    5 Atom    -14.719110     -0.002649     -0.003538     -0.001952
    6 Atom    -14.732954     -0.000308     -0.001023     -0.000177
    7 Atom    -14.741360      0.001101     -0.001214     -0.002472
    8 Atom    -14.725861     -0.001520      0.002430     -0.000990
    9 Atom    -14.732299     -0.002177     -0.001860     -0.000431
   10 Atom    -14.732306     -0.001149     -0.000317     -0.001396
   11 Atom    -14.726722     -0.001583      0.000539      0.000225
   12 Atom    -14.738513      0.000356     -0.002439      0.003281
   13 Atom    -14.735735     -0.001430      0.001259     -0.002534
   14 Atom    -14.742308     -0.002566      0.001610      0.001477
   15 Atom    -14.736981     -0.000807     -0.000289     -0.000267
   16 Atom    -14.738234      0.001933     -0.000668     -0.000527
   17 Atom    -14.734938      0.000470     -0.001033     -0.001344
   18 Atom    -14.690837      0.017175      0.010248     -0.007395
   19 Atom    -14.748493      0.000463     -0.001620     -0.002051
   20 Atom    -22.314604     -0.029652     -0.098157     -0.044428
   21 Atom     -1.105029      0.015512      0.026678     -0.005280
   22 Atom     -1.105597     -0.006650     -0.004862      0.030997
   23 Atom     -1.118149     -0.000405     -0.003669     -0.029180
   24 Atom     -1.118255     -0.013263     -0.026320      0.008316
   25 Atom     -1.106285      0.002393     -0.002921      0.029931
   26 Atom     -1.117879      0.019732     -0.018703     -0.008554
   27 Atom     -1.110001      0.015612      0.023968     -0.011846
   28 Atom     -1.102299     -0.002928      0.006483      0.027931
   29 Atom     -1.116947      0.000941      0.002403     -0.028755
   30 Atom     -1.116887     -0.017337      0.024593      0.008354
   31 Atom     -1.119258     -0.001254     -0.000453      0.031728
   32 Atom     -1.120726      0.005443      0.004344     -0.029789
   33 Atom     -1.121775      0.000446      0.003563     -0.031428
   34 Atom     -1.125414     -0.001913      0.003953     -0.029185
   35 Atom     -1.127715     -0.014357     -0.023933      0.003583
   36 Atom     -1.122307      0.000835     -0.011432      0.027771
   37 Atom     -1.123108      0.014509     -0.019706     -0.015335
   38 Atom     -1.120043      0.004517      0.030630     -0.012577
   39 Atom     -1.120454      0.004051      0.001397      0.032262
   40 Atom     -1.117331     -0.011705      0.013648     -0.022644
   41 Atom     -1.110801     -0.023959      0.006432      0.023083
   42 Atom     -1.127466     -0.002859     -0.005274     -0.032567
   43 Atom     -1.118056     -0.021511      0.015382      0.019947
   44 Atom     -1.122404     -0.009752     -0.028033      0.003934
   45 Atom     -1.118904      0.026778      0.006077      0.015671
   46 Atom     -0.997802     -0.010780      0.006975      0.018936
 -----------------------------------------------------------------
 -----------------------------------------------------
    Center         ---- Electric Field Gradient ----
                     XX            YY            ZZ
 -----------------------------------------------------
    1 Atom     -493.308364   -493.250749   -493.938740
    2 Atom    -1217.173840  -1214.674087  -1217.555770
    3 Atom     -493.114405   -493.187497   -493.422163
    4 Atom     -493.167089   -493.264536   -493.805209
    5 Atom     -492.745087   -492.799022   -492.772209
    6 Atom     -492.620000   -492.597481   -492.584901
    7 Atom     -492.696618   -492.713566   -492.716554
    8 Atom     -492.575195   -492.617494   -492.592146
    9 Atom     -492.677272   -492.632191   -492.643112
   10 Atom     -492.772120   -492.803354   -492.788602
   11 Atom     -492.823275   -492.794858   -492.800483
   12 Atom     -492.932598   -492.950822   -492.946125
   13 Atom     -492.923184   -492.933743   -492.976786
   14 Atom     -492.702776   -492.661746   -492.688761
   15 Atom     -492.626665   -492.637702   -492.595826
   16 Atom     -492.680720   -492.626029   -492.623166
   17 Atom     -492.709092   -492.718920   -492.689554
   18 Atom     -492.857558   -492.843284   -492.689911
   19 Atom     -492.579521   -492.575219   -492.611354
   20 Atom    -1214.443245  -1214.198143  -1214.812983
   21 Atom       -1.692387     -1.942233     -1.598125
   22 Atom       -1.635973     -1.624964     -2.012068
   23 Atom       -1.621293     -1.619112     -2.035684
   24 Atom       -1.702584     -1.934305     -1.685092
   25 Atom       -1.598492     -1.599243     -2.020958
   26 Atom       -1.744517     -1.844965     -1.647086
   27 Atom       -1.737804     -1.885251     -1.672939
   28 Atom       -1.606539     -1.615279     -2.002284
   29 Atom       -1.620883     -1.620232     -2.037371
   30 Atom       -1.746710     -1.906401     -1.667109
   31 Atom       -1.646233     -1.644150     -2.059718
   32 Atom       -1.646326     -1.649173     -2.016982
   33 Atom       -1.644264     -1.641709     -2.044327
   34 Atom       -1.626629     -1.638885     -2.031176
   35 Atom       -1.691225     -1.954395     -1.626615
   36 Atom       -1.628655     -1.675193     -2.000136
   37 Atom       -1.735921     -1.815815     -1.759873
   38 Atom       -1.639975     -2.018507     -1.679936
   39 Atom       -1.634185     -1.630730     -2.066610
   40 Atom       -1.679140     -1.717987     -1.898533
   41 Atom       -1.832402     -1.641875     -1.871157
   42 Atom       -1.671043     -1.679568     -2.084398
   43 Atom       -1.849149     -1.742134     -1.727488
   44 Atom       -1.611182     -2.016557     -1.615709
   45 Atom       -1.964067     -1.634943     -1.705115
   46 Atom       -1.507383     -1.549192     -1.786029
 -----------------------------------------------------
 -----------------------------------------------------
    Center         ---- Electric Field Gradient ----
                     XY            XZ            YZ
 -----------------------------------------------------
    1 Atom       -0.034614     -0.088822     -0.167422
    2 Atom       -0.230075     -0.007330     -0.654740
    3 Atom       -0.013868     -0.052833     -0.030388
    4 Atom       -0.003262     -0.103960     -0.015860
    5 Atom       -0.025804     -0.011287      0.000869
    6 Atom        0.023724     -0.004992     -0.022345
    7 Atom       -0.010945     -0.031929      0.005687
    8 Atom        0.025748     -0.021853     -0.011920
    9 Atom       -0.006799     -0.020459      0.020738
   10 Atom       -0.001045      0.010547     -0.002937
   11 Atom       -0.006009     -0.020828     -0.010904
   12 Atom        0.017657     -0.002863     -0.001868
   13 Atom       -0.002226      0.004509      0.013846
   14 Atom        0.004793     -0.012419     -0.018278
   15 Atom       -0.021911     -0.010064      0.011125
   16 Atom       -0.013567     -0.007820     -0.017600
   17 Atom       -0.002535      0.005687     -0.035642
   18 Atom       -0.169455      0.150006      0.131409
   19 Atom        0.013395      0.004600      0.008144
   20 Atom       -0.695925      1.564558     -0.357323
   21 Atom       -0.172111      0.033579      0.062813
   22 Atom       -0.004383      0.078481      0.028830
   23 Atom        0.002276      0.000674     -0.033813
   24 Atom       -0.146543      0.064496      0.133262
   25 Atom       -0.002075     -0.002053      0.009659
   26 Atom        0.185092      0.079512     -0.105060
   27 Atom       -0.170633      0.080620      0.123635
   28 Atom        0.007764      0.031854     -0.065465
   29 Atom       -0.002690      0.015365      0.016574
   30 Atom        0.179110      0.068091     -0.107392
   31 Atom       -0.001453     -0.006387      0.011828
   32 Atom       -0.012362      0.066724      0.067823
   33 Atom        0.000137     -0.004294      0.038169
   34 Atom        0.005895     -0.017483      0.075771
   35 Atom       -0.157981      0.026284      0.056079
   36 Atom        0.003999     -0.018251      0.136698
   37 Atom        0.140014      0.119632     -0.159449
   38 Atom       -0.063539      0.021907      0.141909
   39 Atom       -0.001942     -0.030136     -0.017790
   40 Atom        0.075580     -0.128676      0.163517
   41 Atom        0.027223      0.223436     -0.031563
   42 Atom       -0.006602     -0.007366     -0.062423
   43 Atom        0.171576      0.151785     -0.110859
   44 Atom       -0.075665      0.015411      0.067603
   45 Atom       -0.084267     -0.170962     -0.039793
   46 Atom        0.082070      0.198271     -0.214454
 -----------------------------------------------------
 -----------------------------------------------------
    Center         ---- Electric Field Gradient ----
                   ----       Eigenvalues       ----
 -----------------------------------------------------
    1 Atom     -493.990370   -493.297503   -493.209980
    2 Atom    -1217.703625  -1217.186523  -1214.513549
    3 Atom     -493.435185   -493.184237   -493.104643
    4 Atom     -493.822187   -493.264071   -493.150575
    5 Atom     -492.809700   -492.774786   -492.731832
    6 Atom     -492.636392   -492.604276   -492.561715
    7 Atom     -492.740184   -492.716811   -492.669744
    8 Atom     -492.629738   -492.606321   -492.548776
    9 Atom     -492.686994   -492.654438   -492.611143
   10 Atom     -492.803954   -492.793281   -492.766840
   11 Atom     -492.838320   -492.796613   -492.783683
   12 Atom     -492.961581   -492.946596   -492.921369
   13 Atom     -492.981278   -492.929780   -492.922656
   14 Atom     -492.710714   -492.691973   -492.650596
   15 Atom     -492.654902   -492.618954   -492.586337
   16 Atom     -492.686182   -492.636971   -492.606763
   17 Atom     -492.742819   -492.709910   -492.664839
   18 Atom     -493.113718   -492.681552   -492.595483
   19 Atom     -492.613203   -492.590803   -492.562088
   20 Atom    -1216.224216  -1214.556584  -1212.673571
   21 Atom       -2.041419     -1.604745     -1.586582
   22 Atom       -2.029884     -1.623448     -1.619674
   23 Atom       -2.038412     -1.622143     -1.615534
   24 Atom       -2.063222     -1.631633     -1.627126
   25 Atom       -2.021189     -1.600890     -1.596614
   26 Atom       -2.031665     -1.603260     -1.601644
   27 Atom       -2.054501     -1.625674     -1.615819
   28 Atom       -2.015671     -1.606713     -1.601719
   29 Atom       -2.038601     -1.622052     -1.617833
   30 Atom       -2.063449     -1.630823     -1.625947
   31 Atom       -2.060152     -1.646979     -1.642970
   32 Atom       -2.040764     -1.637141     -1.634575
   33 Atom       -2.047959     -1.644230     -1.638111
   34 Atom       -2.046098     -1.627939     -1.622652
   35 Atom       -2.037743     -1.617286     -1.617206
   36 Atom       -2.050805     -1.629381     -1.623799
   37 Atom       -2.055761     -1.630310     -1.625537
   38 Atom       -2.080373     -1.630340     -1.627705
   39 Atom       -2.069429     -1.632311     -1.629786
   40 Atom       -2.054387     -1.621528     -1.619745
   41 Atom       -2.080016     -1.638064     -1.627354
   42 Atom       -2.093967     -1.675963     -1.665080
   43 Atom       -2.076570     -1.626316     -1.615884
   44 Atom       -2.041489     -1.605634     -1.596325
   45 Atom       -2.069047     -1.620715     -1.614363
   46 Atom       -2.003807     -1.447214     -1.391582
 -----------------------------------------------------
 -----------------------------------------------------
    Center         ---- Electric Field Gradient ----
                       ( tensor representation )
                   3XX-RR        3YY-RR        3ZZ-RR
 -----------------------------------------------------
    1 Atom        0.190920      0.248536     -0.439456
    2 Atom       -0.705941      1.793812     -1.087871
    3 Atom        0.126950      0.053858     -0.180808
    4 Atom        0.245189      0.147742     -0.392931
    5 Atom        0.027019     -0.026916     -0.000103
    6 Atom       -0.019206      0.003313      0.015893
    7 Atom        0.012295     -0.004653     -0.007641
    8 Atom        0.019750     -0.022549      0.002799
    9 Atom       -0.026414      0.018667      0.007747
   10 Atom        0.015905     -0.015329     -0.000576
   11 Atom       -0.017070      0.011348      0.005723
   12 Atom        0.010583     -0.007640     -0.002943
   13 Atom        0.021387      0.010828     -0.032215
   14 Atom       -0.018348      0.022682     -0.004333
   15 Atom       -0.006600     -0.017638      0.024238
   16 Atom       -0.037415      0.017276      0.020139
   17 Atom       -0.003237     -0.013065      0.016301
   18 Atom       -0.060640     -0.046366      0.107006
   19 Atom        0.009177      0.013479     -0.022655
   20 Atom        0.041545      0.286647     -0.328192
   21 Atom        0.051861     -0.197985      0.146123
   22 Atom        0.121695      0.132705     -0.254400
   23 Atom        0.137403      0.139584     -0.276987
   24 Atom        0.071410     -0.160312      0.088902
   25 Atom        0.141072      0.140321     -0.281394
   26 Atom        0.001006     -0.099443      0.098436
   27 Atom        0.027528     -0.119920      0.092392
   28 Atom        0.134828      0.126089     -0.260917
   29 Atom        0.138612      0.139263     -0.277876
   30 Atom        0.026697     -0.132994      0.106297
   31 Atom        0.137134      0.139217     -0.276351
   32 Atom        0.124501      0.121654     -0.246156
   33 Atom        0.132503      0.135058     -0.267561
   34 Atom        0.138934      0.126678     -0.265612
   35 Atom        0.066187     -0.196983      0.130797
   36 Atom        0.139340      0.092801     -0.232141
   37 Atom        0.034615     -0.045279      0.010664
   38 Atom        0.139498     -0.239035      0.099537
   39 Atom        0.142990      0.146445     -0.289435
   40 Atom        0.086080      0.047233     -0.133313
   41 Atom       -0.050591      0.139937     -0.089346
   42 Atom        0.140627      0.132101     -0.272728
   43 Atom       -0.076226      0.030790      0.045436
   44 Atom        0.136634     -0.268741      0.132107
   45 Atom       -0.196026      0.133099      0.062927
   46 Atom        0.106818      0.065009     -0.171828
 -----------------------------------------------------
 -----------------------------------------------------
    Center         ---- Electric Field Gradient ----
                       ( tensor representation )
                   ----       Eigenvalues       ----
 -----------------------------------------------------
    1 Atom       -0.491085      0.201781      0.289304
    2 Atom       -1.235726     -0.718624      1.954350
    3 Atom       -0.193830      0.057118      0.136712
    4 Atom       -0.409910      0.148207      0.261703
    5 Atom       -0.037594     -0.002680      0.040274
    6 Atom       -0.035598     -0.003481      0.039079
    7 Atom       -0.031271     -0.007898      0.039169
    8 Atom       -0.034793     -0.011376      0.046169
    9 Atom       -0.036136     -0.003580      0.039715
   10 Atom       -0.015929     -0.005256      0.021185
   11 Atom       -0.032114      0.009592      0.022522
   12 Atom       -0.018399     -0.003414      0.021813
   13 Atom       -0.036707      0.014791      0.021915
   14 Atom       -0.026286     -0.007545      0.033832
   15 Atom       -0.034838      0.001110      0.033727
   16 Atom       -0.042877      0.006335      0.036542
   17 Atom       -0.036963     -0.004054      0.041017
   18 Atom       -0.316800      0.115365      0.201435
   19 Atom       -0.024505     -0.002105      0.026610
   20 Atom       -1.739425     -0.071794      1.811219
   21 Atom       -0.297170      0.139504      0.157667
   22 Atom       -0.272215      0.134220      0.137995
   23 Atom       -0.279716      0.136553      0.143163
   24 Atom       -0.289228      0.142360      0.146868
   25 Atom       -0.281624      0.138674      0.142950
   26 Atom       -0.286142      0.142263      0.143879
   27 Atom       -0.289169      0.139657      0.149512
   28 Atom       -0.274303      0.134654      0.139649
   29 Atom       -0.279105      0.137443      0.141662
   30 Atom       -0.290043      0.142584      0.147459
   31 Atom       -0.276785      0.136388      0.140397
   32 Atom       -0.269937      0.133685      0.136252
   33 Atom       -0.271193      0.132537      0.138656
   34 Atom       -0.280535      0.137624      0.142911
   35 Atom       -0.280331      0.140126      0.140206
   36 Atom       -0.282810      0.138614      0.144196
   37 Atom       -0.285225      0.140226      0.144999
   38 Atom       -0.300901      0.149133      0.151768
   39 Atom       -0.292254      0.144864      0.147389
   40 Atom       -0.289167      0.143692      0.145475
   41 Atom       -0.298205      0.143747      0.154457
   42 Atom       -0.282297      0.135707      0.146590
   43 Atom       -0.303647      0.146607      0.157039
   44 Atom       -0.293673      0.142182      0.151491
   45 Atom       -0.301005      0.147326      0.153679
   46 Atom       -0.389606      0.166987      0.222619
 -----------------------------------------------------
 Unable to Open any file for archive entry.
 1\1\GINC-MIKE125\SP\RwB97XD\6-31G(d)\C18H26O2\ARKANIL\21-May-2026\0\\#
  wb97xd/6-31g(d) prop=efg\\19NT_md_min_distance_cutoff7\\0,1\C,0,-2.44
 3598,2.53413,-0.299645\O,0,-3.313221,3.283845,-0.784301\C,0,-2.460534,
 1.121032,-0.540442\C,0,-1.535762,0.299729,0.016092\C,0,-0.322821,0.837
 327,0.748271\C,0,-0.10216,2.333342,0.520117\C,0,-1.404293,3.110712,0.6
 18711\C,0,-1.738072,-1.181367,-0.012296\C,0,-0.454333,-1.984062,-0.213
 501\C,0,0.637498,-1.473162,0.72381\C,0,0.926923,0.004757,0.395188\C,0,
 1.901622,-2.30064,0.654736\C,0,3.055563,-1.72107,1.494974\C,0,3.415238
 ,-0.34419,0.940343\C,0,2.200048,0.587543,1.040694\C,0,1.821268,-3.7499
 38,1.109382\C,0,3.301579,-4.152346,1.207209\C,0,4.110964,-2.825562,1.2
 96885\C,0,2.692933,-1.608798,2.978955\O,0,5.143422,-2.859194,2.288264\
 H,0,-3.312167,0.727499,-1.093558\H,0,-0.518468,0.673325,1.82171\H,0,0.
 343034,2.489798,-0.472808\H,0,0.603637,2.718644,1.260918\H,0,-1.79728,
 3.046877,1.644086\H,0,-1.268402,4.171101,0.380737\H,0,-2.497215,-1.444
 073,-0.754439\H,0,-2.176413,-1.456297,0.962867\H,0,-0.11185,-1.905621,
 -1.255892\H,0,-0.667006,-3.040846,-0.02797\H,0,0.239647,-1.528769,1.74
 6708\H,0,1.069236,0.065019,-0.697126\H,0,2.249621,-2.300367,-0.391187\
 H,0,3.729641,-0.439746,-0.109225\H,0,4.262739,0.097205,1.484227\H,0,2.
 008866,0.824765,2.095596\H,0,2.443197,1.540945,0.557492\H,0,1.249272,-
 4.3902,0.439737\H,0,1.341253,-3.824348,2.088119\H,0,3.619925,-4.740185
 ,0.340089\H,0,3.479849,-4.777488,2.082924\H,0,4.626372,-2.625279,0.353
 16\H,0,2.739155,-2.576679,3.47656\H,0,3.382768,-0.935687,3.495779\H,0,
 1.691896,-1.209029,3.136501\H,0,4.885011,-3.509298,2.983846\\Version=E
 S64L-G16RevC.01\State=1-A\HF=-851.7881622\RMSD=3.547e-09\Dipole=0.7197
 584,-1.6085466,0.7338436\Quadrupole=-12.8158816,3.6328725,9.183009,14.
 271423,-7.1698846,4.8281218\PG=C01 [X(C18H26O2)]\\@
 The archive entry for this job was punched.


 MAN IS A SINGULAR CREATURE.  HE HAS A SET OF GIFTS
 WHICH MAKE HIM UNIQUE AMONG THE ANIMALS: SO THAT, 
 UNLIKE THEM, HE IS NOT A FIGURE IN THE LANDSCAPE --
 HE IS A SHAPER OF THE LANDSCAPE.

                       -- JACOB BRONOWSKI
 Job cpu time:       0 days  0 hours 16 minutes 46.7 seconds.
 Elapsed time:       0 days  0 hours  0 minutes 16.0 seconds.
 File lengths (MBytes):  RWF=     71 Int=      0 D2E=      0 Chk=      8 Scr=      1
 Normal termination of Gaussian 16 at Thu May 21 09:54:54 2026.
