 Entering Gaussian System, Link 0=g16
 Initial command:
 /cm/shared/apps/spack/cpu/opt/spack/linux-centos8-zen/gcc-8.3.1/gaussian-16.C.01-po5bqktfeugvmjyga3v7eigbecnokxng/g16/l1.exe "/scratch/hklem/job_32994904/Gau-974670.inp" -scrdir="/scratch/hklem/job_32994904/"
 Entering Link 1 = /cm/shared/apps/spack/cpu/opt/spack/linux-centos8-zen/gcc-8.3.1/gaussian-16.C.01-po5bqktfeugvmjyga3v7eigbecnokxng/g16/l1.exe PID=    974671.
  
 Copyright (c) 1988-2019, Gaussian, Inc.  All Rights Reserved.
  
 This is part of the Gaussian(R) 16 program.  It is based on
 the Gaussian(R) 09 system (copyright 2009, Gaussian, Inc.),
 the Gaussian(R) 03 system (copyright 2003, Gaussian, Inc.),
 the Gaussian(R) 98 system (copyright 1998, Gaussian, Inc.),
 the Gaussian(R) 94 system (copyright 1995, Gaussian, Inc.),
 the Gaussian 92(TM) system (copyright 1992, Gaussian, Inc.),
 the Gaussian 90(TM) system (copyright 1990, Gaussian, Inc.),
 the Gaussian 88(TM) system (copyright 1988, Gaussian, Inc.),
 the Gaussian 86(TM) system (copyright 1986, Carnegie Mellon
 University), and the Gaussian 82(TM) system (copyright 1983,
 Carnegie Mellon University). Gaussian is a federally registered
 trademark of Gaussian, Inc.
  
 This software contains proprietary and confidential information,
 including trade secrets, belonging to Gaussian, Inc.
  
 This software is provided under written license and may be
 used, copied, transmitted, or stored only in accord with that
 written license.
  
 The following legend is applicable only to US Government
 contracts under FAR:
  
                    RESTRICTED RIGHTS LEGEND
  
 Use, reproduction and disclosure by the US Government is
 subject to restrictions as set forth in subparagraphs (a)
 and (c) of the Commercial Computer Software - Restricted
 Rights clause in FAR 52.227-19.
  
 Gaussian, Inc.
 340 Quinnipiac St., Bldg. 40, Wallingford CT 06492
  
  
 ---------------------------------------------------------------
 Warning -- This program may not be used in any manner that
 competes with the business of Gaussian, Inc. or will provide
 assistance to any competitor of Gaussian, Inc.  The licensee
 of this program is prohibited from giving any competitor of
 Gaussian, Inc. access to this program.  By using this program,
 the user acknowledges that Gaussian, Inc. is engaged in the
 business of creating and licensing software in the field of
 computational chemistry and represents and warrants to the
 licensee that it is not a competitor of Gaussian, Inc. and that
 it will not use this program in any manner prohibited above.
 ---------------------------------------------------------------
  

 Cite this work as:
 Gaussian 16, Revision C.01,
 M. J. Frisch, G. W. Trucks, H. B. Schlegel, G. E. Scuseria, 
 M. A. Robb, J. R. Cheeseman, G. Scalmani, V. Barone, 
 G. A. Petersson, H. Nakatsuji, X. Li, M. Caricato, A. V. Marenich, 
 J. Bloino, B. G. Janesko, R. Gomperts, B. Mennucci, H. P. Hratchian, 
 J. V. Ortiz, A. F. Izmaylov, J. L. Sonnenberg, D. Williams-Young, 
 F. Ding, F. Lipparini, F. Egidi, J. Goings, B. Peng, A. Petrone, 
 T. Henderson, D. Ranasinghe, V. G. Zakrzewski, J. Gao, N. Rega, 
 G. Zheng, W. Liang, M. Hada, M. Ehara, K. Toyota, R. Fukuda, 
 J. Hasegawa, M. Ishida, T. Nakajima, Y. Honda, O. Kitao, H. Nakai, 
 T. Vreven, K. Throssell, J. A. Montgomery, Jr., J. E. Peralta, 
 F. Ogliaro, M. J. Bearpark, J. J. Heyd, E. N. Brothers, K. N. Kudin, 
 V. N. Staroverov, T. A. Keith, R. Kobayashi, J. Normand, 
 K. Raghavachari, A. P. Rendell, J. C. Burant, S. S. Iyengar, 
 J. Tomasi, M. Cossi, J. M. Millam, M. Klene, C. Adamo, R. Cammi, 
 J. W. Ochterski, R. L. Martin, K. Morokuma, O. Farkas, 
 J. B. Foresman, and D. J. Fox, Gaussian, Inc., Wallingford CT, 2019.
 
 ******************************************
 Gaussian 16:  ES64L-G16RevC.01  3-Jul-2019
                12-Aug-2024 
 ******************************************
 %nprocshared=24
 Will use up to   24 processors via shared memory.
 %mem=48GB
 --------------------------
 # wb97xd 6-31G(d) prop=efg
 --------------------------
 1/38=1,172=1/1;
 2/12=2,17=6,18=5,40=1/2;
 3/5=1,6=6,7=1,11=2,25=1,30=1,74=-58/1,2,3;
 4//1;
 5/5=2,38=5/2;
 6/7=2,8=2,9=2,10=2,14=1,28=1/1,2;
 99/5=1,9=1/99;
 ----------------------------------------------------
 19nt_mm_min_distance_cutoff6_nowat_xtb_ligand_conf_1
 ----------------------------------------------------
 Symbolic Z-matrix:
 Charge =  0 Multiplicity = 1
 C                     43.2454   42.517    31.1243 
 O                     42.8751   41.4418   31.6529 
 C                     43.1282   43.7702   31.755 
 C                     43.3839   44.9579   31.126 
 C                     43.9692   44.9813   29.7408 
 C                     44.7144   43.6712   29.4767 
 C                     43.7853   42.493    29.7175 
 C                     42.9391   46.2125   31.7187 
 C                     43.7675   47.4422   31.3743 
 C                     44.0438   47.4822   29.8763 
 C                     44.8456   46.2263   29.5002 
 C                     44.8334   48.7225   29.4896 
 C                     45.2085   48.7656   28.001 
 C                     46.0953   47.5626   27.6986 
 C                     45.3639   46.2667   28.0561 
 C                     44.2019   50.0923   29.7224 
 C                     45.1064   51.0285   28.9033 
 C                     45.9243   50.1317   27.9457 
 C                     44.0052   48.7915   27.0509 
 O                     45.9902   50.7224   26.6657 
 H                     42.7217   43.7777   32.7565 
 H                     43.1161   45.0404   29.0482 
 H                     45.575    43.6024   30.147 
 H                     45.0792   43.6342   28.4504 
 H                     42.9291   42.5584   29.0359 
 H                     44.2923   41.5419   29.5345 
 H                     42.7828   46.118    32.7926 
 H                     41.9169   46.3654   31.2619 
 H                     44.7114   47.4191   31.926 
 H                     43.2305   48.3385   31.6777 
 H                     43.0815   47.472    29.3572 
 H                     45.7112   46.1686   30.1704 
 H                     45.776    48.7007   30.0507 
 H                     47.0213   47.6368   28.2736 
 H                     46.3626   47.5355   26.6394 
 H                     44.5271   46.1292   27.3685 
 H                     46.0613   45.4417   27.9026 
 H                     44.1809   50.37     30.7742 
 H                     43.1773   50.1027   29.3527 
 H                     45.7725   51.5874   29.5584 
 H                     44.5344   51.7429   28.3126 
 H                     46.9478   50.0053   28.3322 
 H                     43.5754   49.7876   27.0056 
 H                     44.3277   48.5142   26.0484 
 H                     43.2317   48.0972   27.3628 
 H                     46.2137   50.0307   26.0339 
 
                          Input orientation:                          
 ---------------------------------------------------------------------
 Center     Atomic      Atomic             Coordinates (Angstroms)
 Number     Number       Type             X           Y           Z
 ---------------------------------------------------------------------
      1          6           0       43.245400   42.517000   31.124300
      2          8           0       42.875100   41.441800   31.652900
      3          6           0       43.128200   43.770200   31.755000
      4          6           0       43.383900   44.957900   31.126000
      5          6           0       43.969200   44.981300   29.740800
      6          6           0       44.714400   43.671200   29.476700
      7          6           0       43.785300   42.493000   29.717500
      8          6           0       42.939100   46.212500   31.718700
      9          6           0       43.767500   47.442200   31.374300
     10          6           0       44.043800   47.482200   29.876300
     11          6           0       44.845600   46.226300   29.500200
     12          6           0       44.833400   48.722500   29.489600
     13          6           0       45.208500   48.765600   28.001000
     14          6           0       46.095300   47.562600   27.698600
     15          6           0       45.363900   46.266700   28.056100
     16          6           0       44.201900   50.092300   29.722400
     17          6           0       45.106400   51.028500   28.903300
     18          6           0       45.924300   50.131700   27.945700
     19          6           0       44.005200   48.791500   27.050900
     20          8           0       45.990200   50.722400   26.665700
     21          1           0       42.721700   43.777700   32.756500
     22          1           0       43.116100   45.040400   29.048200
     23          1           0       45.575000   43.602400   30.147000
     24          1           0       45.079200   43.634200   28.450400
     25          1           0       42.929100   42.558400   29.035900
     26          1           0       44.292300   41.541900   29.534500
     27          1           0       42.782800   46.118000   32.792600
     28          1           0       41.916900   46.365400   31.261900
     29          1           0       44.711400   47.419100   31.926000
     30          1           0       43.230500   48.338500   31.677700
     31          1           0       43.081500   47.472000   29.357200
     32          1           0       45.711200   46.168600   30.170400
     33          1           0       45.776000   48.700700   30.050700
     34          1           0       47.021300   47.636800   28.273600
     35          1           0       46.362600   47.535500   26.639400
     36          1           0       44.527100   46.129200   27.368500
     37          1           0       46.061300   45.441700   27.902600
     38          1           0       44.180900   50.370000   30.774200
     39          1           0       43.177300   50.102700   29.352700
     40          1           0       45.772500   51.587400   29.558400
     41          1           0       44.534400   51.742900   28.312600
     42          1           0       46.947800   50.005300   28.332200
     43          1           0       43.575400   49.787600   27.005600
     44          1           0       44.327700   48.514200   26.048400
     45          1           0       43.231700   48.097200   27.362800
     46          1           0       46.213700   50.030700   26.033900
 ---------------------------------------------------------------------
                    Distance matrix (angstroms):
                    1          2          3          4          5
     1  C    0.000000
     2  O    1.254032   0.000000
     3  C    1.407845   2.344340   0.000000
     4  C    2.444827   3.591582   1.368084   0.000000
     5  C    2.917316   4.169082   2.496206   1.503962   0.000000
     6  C    2.490928   3.617885   2.777856   2.479116   1.530174
     7  C    1.507035   2.383120   2.492875   2.867181   2.495195
     8  C    3.755509   4.771583   2.449879   1.457107   2.547361
     9  C    4.959101   6.072791   3.746628   2.525975   2.960580
    10  C    5.181521   6.403796   4.259904   2.892976   2.505679
    11  C    4.353992   5.604322   3.750468   2.527574   1.541425
    12  C    6.610765   7.843685   5.706577   4.353282   3.847924
    13  C    7.256292   8.509946   6.585908   5.252939   4.345537
    14  C    6.731674   7.966829   6.296059   5.087556   3.918417
    15  C    5.287924   6.512354   4.991265   3.880418   2.536859
    16  C    7.763078   8.962052   6.727053   5.385284   5.116328
    17  C    8.991206  10.219776   8.045395   6.690261   6.209932
    18  C    8.675463   9.927503   7.924495   6.583020   5.794085
    19  C    7.519258   8.744920   6.936219   5.629293   4.664170
    20  O    9.733531  10.986608   9.078827   7.740577   6.819158
    21  H    2.127840   2.588029   1.080880   2.118941   3.478413
    22  H    3.270238   4.448872   2.990037   2.096611   1.100440
    23  H    2.749590   3.771656   2.932687   2.756219   2.155216
    24  H    3.429388   4.463259   3.839958   3.432937   2.170694
    25  H    2.112623   2.845769   2.983556   3.214492   2.729311
    26  H    2.138758   2.550705   3.354261   3.876483   3.460697
    27  H    3.995551   4.813967   2.589996   2.117713   3.465994
    28  H    4.073577   5.031189   2.906107   2.037551   2.905411
    29  H    5.179041   6.258969   3.981235   2.908567   3.356908
    30  H    5.847763   6.905896   4.570099   3.428755   3.945637
    31  H    5.263224   6.455707   4.410776   3.088818   2.671843
    32  H    4.508245   5.708232   3.864605   2.792005   2.151465
    33  H    6.767178   7.979592   5.850240   4.570226   4.146625
    34  H    6.971102   8.184661   6.498228   5.342600   4.303449
    35  H    7.417318   8.627341   7.127986   5.970448   4.676642
    36  H    5.366263   6.561776   5.173315   4.098494   2.693833
    37  H    5.182906   6.341594   5.122302   4.218156   2.822734
    38  H    7.916271   9.065869   6.754814   5.481770   5.490976
    39  H    7.790125   8.966239   6.773036   5.445755   5.196774
    40  H    9.545179  10.757093   8.539672   7.218937   6.850235
    41  H    9.730591  10.955526   8.797242   7.434722   6.933862
    42  H    8.807850  10.047262   8.073498   6.781073   6.008060
    43  H    8.362668   9.578110   7.678925   6.351407   5.544088
    44  H    7.931112   9.139984   7.517288   6.270570   5.122863
    45  H    6.729614   7.926315   6.166446   4.903065   3.988436
    46  H    9.548752  10.792989   9.024697   7.724672   6.653971
                    6          7          8          9         10
     6  C    0.000000
     7  C    1.519660   0.000000
     8  C    3.825763   4.307614   0.000000
     9  C    4.326424   5.219184   1.522176   0.000000
    10  C    3.890129   4.998415   2.495383   1.523793   0.000000
    11  C    2.558574   3.887028   2.925179   2.480517   1.536756
    12  C    5.052718   6.321165   3.854525   2.515433   1.520312
    13  C    5.326794   6.657130   5.048741   3.899618   2.553506
    14  C    4.495722   5.925614   5.286357   4.352461   2.992907
    15  C    3.029286   4.415092   4.392861   3.865326   2.556019
    16  C    6.446204   7.610712   4.542326   3.152857   2.619409
    17  C    7.390015   8.675424   5.984774   4.556319   3.827805
    18  C    6.748769   8.127997   6.205407   4.862149   3.779332
    19  C    5.710074   6.843260   5.438397   4.535295   3.114264
    20  O    7.697325   9.049756   7.428406   6.153944   4.959367
    21  H    3.839177   3.466586   2.655662   4.053731   4.875123
    22  H    2.147763   2.717543   2.921766   3.406421   2.740212
    23  H    1.093009   2.149015   4.028751   4.417849   4.179797
    24  H    1.089835   2.140574   4.680752   4.977008   4.232298
    25  H    2.149401   1.096328   4.533207   5.479282   5.117874
    26  H    2.171504   1.093220   5.330702   6.202727   5.955312
    27  H    4.551165   4.858176   1.089321   2.175940   3.457740
    28  H    4.274536   4.568542   1.130017   2.144027   2.773235
    29  H    4.477257   5.477371   2.154044   1.093551   2.156604
    30  H    5.369362   6.190320   2.146269   1.088014   2.154008
    31  H    4.138445   5.041388   2.680168   2.130769   1.093430
    32  H    2.777019   4.174236   3.175484   2.617136   2.142956
    33  H    5.172267   6.527591   4.125696   2.714740   2.125012
    34  H    4.742913   6.246217   5.528264   4.498825   3.384975
    35  H    5.069482   6.445462   6.266576   5.400234   3.982109
    36  H    3.243663   4.392040   4.631730   4.283386   2.890199
    37  H    2.725179   4.143533   4.990479   4.616949   3.482734
    38  H    6.844125   7.957402   4.440603   3.017123   3.027278
    39  H    6.613792   7.642662   4.559424   3.393149   2.809270
    40  H    7.987019   9.310338   6.448612   4.949768   4.465661
    41  H    8.157197   9.385923   6.688185   5.334619   4.565020
    42  H    6.813133   8.267715   6.474827   5.092952   4.145298
    43  H    6.694326   7.785220   5.949750   4.962191   3.711494
    44  H    5.946211   7.071870   6.275216   5.461522   3.974725
    45  H    5.124105   6.103945   4.755163   4.099785   2.712087
    46  H    7.385392   8.734011   7.590692   6.419042   5.095818
                   11         12         13         14         15
    11  C    0.000000
    12  C    2.496252   0.000000
    13  C    2.971084   1.535737   0.000000
    14  C    2.567725   2.479000   1.524818   0.000000
    15  C    1.534826   2.892630   2.504334   1.530395   0.000000
    16  C    3.925516   1.526218   2.395119   3.752348   4.331514
    17  C    4.846177   2.394977   2.438296   3.800222   4.843428
    18  C    4.339610   2.357867   1.543262   2.586614   3.906976
    19  C    3.644941   2.576419   1.533392   2.509627   3.038274
    20  O    5.436857   3.648588   2.494624   3.325998   4.709430
    21  H    4.594571   6.291499   7.326534   7.161634   5.938864
    22  H    2.145188   4.086785   4.399077   4.130199   2.746030
    23  H    2.799147   5.215129   5.603416   4.684929   3.393364
    24  H    2.806356   5.199149   5.152664   4.126741   2.677047
    25  H    4.164377   6.467483   6.692982   6.070849   4.543099
    26  H    4.717088   7.201099   7.441296   6.547531   5.065346
    27  H    3.886743   4.679550   5.987757   6.245667   5.396167
    28  H    3.420558   4.147643   5.218147   5.620447   4.708365
    29  H    2.706527   2.765824   4.179210   4.450470   4.090221
    30  H    3.436778   2.739439   4.196787   4.964105   4.686122
    31  H    2.164317   2.156486   2.834927   3.441243   2.890495
    32  H    1.096248   2.785036   3.421025   2.863663   2.144879
    33  H    2.700250   1.097180   2.127801   2.632413   3.173738
    34  H    2.868402   2.728426   2.152846   1.092523   2.161355
    35  H    3.492774   3.445441   2.167729   1.092743   2.148091
    36  H    2.157549   3.364237   2.795526   2.150082   1.091757
    37  H    2.155423   3.845771   3.432967   2.130960   1.091125
    38  H    4.385790   2.188655   3.364625   4.583202   5.062077
    39  H    4.222731   2.160176   2.782212   4.207479   4.601879
    40  H    5.440949   3.015675   3.272025   4.445455   5.543799
    41  H    5.651559   3.255387   3.068521   4.504255   5.544604
    42  H    4.479320   2.730538   2.161415   2.663642   4.069656
    43  H    4.529823   2.981150   2.168484   3.432313   4.086443
    44  H    4.173443   3.484391   2.156770   2.598675   3.186821
    45  H    3.267020   2.734908   2.182154   2.932365   2.894421
    46  H    5.325448   3.944424   2.545661   2.979390   4.356506
                   16         17         18         19         20
    16  C    0.000000
    17  C    1.538023   0.000000
    18  C    2.474849   1.546030   0.000000
    19  C    2.977866   3.106155   2.505943   0.000000
    20  O    3.597007   2.425212   1.411265   2.795886   0.000000
    21  H    7.160372   8.550324   8.589165   7.703209   9.798459
    22  H    5.211065   6.311864   5.918009   4.341711   6.798668
    23  H    6.647142   7.544093   6.899238   6.243146   7.936387
    24  H    6.640384   7.408207   6.571638   5.450671   7.365980
    25  H    7.671437   8.746474   8.216729   6.629461   9.035435
    26  H    8.552942   9.542366   8.886640   7.668598   9.767009
    27  H    5.218720   6.681226   7.033580   6.450503   8.308238
    28  H    4.634767   6.122124   6.421951   5.289563   7.529959
    29  H    3.501634   4.724459   4.967103   5.113590   6.341757
    30  H    2.800470   4.295625   4.939630   4.713030   6.198312
    31  H    2.873089   4.117637   4.140996   2.813063   5.125408
    32  H    4.227779   5.058651   4.549820   4.418294   5.753074
    33  H    2.126528   2.680213   2.549663   3.484649   3.948592
    34  H    4.009678   3.945503   2.745078   3.453286   3.628972
    35  H    4.550905   4.347911   2.939180   2.702629   3.208692
    36  H    4.620905   5.166657   4.278473   2.731500   4.871558
    37  H    5.328895   5.755482   4.692198   4.021704   5.424092
    38  H    1.088045   2.188707   3.331162   4.047900   4.503057
    39  H    1.089308   2.186434   3.086503   2.775418   3.939087
    40  H    2.174627   1.088676   2.177822   4.150658   3.027100
    41  H    2.196036   1.089256   2.159260   3.253106   2.423438
    42  H    3.078992   2.182624   1.101323   3.431317   2.051451
    43  H    2.804701   2.735884   2.553336   1.085816   2.611636
    44  H    4.000563   3.883109   2.960606   1.088994   2.832157
    45  H    3.238738   3.805281   3.424771   1.085190   3.871298
    46  H    4.201924   3.233446   1.936216   2.728988   0.963106
                   21         22         23         24         25
    21  H    0.000000
    22  H    3.937188   0.000000
    23  H    3.870600   3.053096   0.000000
    24  H    4.911303   2.487675   1.767846   0.000000
    25  H    3.920787   2.489065   3.053730   2.474487   0.000000
    26  H    4.224556   3.722826   2.503225   2.484392   1.772058
    27  H    2.341376   3.910606   4.596066   5.504309   5.177350
    28  H    3.094790   2.845026   4.717930   5.036281   4.524696
    29  H    4.231835   4.060164   4.298586   5.151751   5.929222
    30  H    4.714190   4.219576   5.501851   5.996966   6.362351
    31  H    5.033145   2.451399   4.670667   4.420611   4.926452
    32  H    4.619678   3.044127   2.569918   3.127460   4.696884
    33  H    6.394219   4.634422   5.103169   5.358723   6.845620
    34  H    7.312702   4.753092   4.677370   4.452395   6.566380
    35  H    8.049604   4.750537   5.328494   4.488539   6.504126
    36  H    6.149761   2.449040   3.899086   2.774950   4.252580
    37  H    6.122268   3.185537   2.942251   2.128770   4.405504
    38  H    7.036846   5.702413   6.938105   7.181782   8.099987
    39  H    7.197156   5.071819   6.973792   6.802416   7.555027
    40  H    8.973664   7.083782   8.009100   8.059883   9.480547
    41  H    9.299384   6.890297   8.409258   8.128149   9.351748
    42  H    8.730255   6.312275   6.795234   6.640524   8.491258
    43  H    8.361851   5.188360   7.219660   6.497168   7.536654
    44  H    8.367334   4.747005   6.517673   5.490788   6.808288
    45  H    6.928938   3.492558   5.783256   4.951212   5.793888
    46  H    9.822801   6.601835   7.658235   6.931217   8.696888
                   26         27         28         29         30
    26  H    0.000000
    27  H    5.816743   0.000000
    28  H    5.647352   1.775959   0.000000
    29  H    6.358962   2.482610   3.059500   0.000000
    30  H    7.205172   2.524690   2.406566   1.760686   0.000000
    31  H    6.055044   3.704661   2.491734   3.042714   2.481480
    32  H    4.880983   3.931160   3.953077   2.376022   3.624126
    33  H    7.329137   4.811195   4.670469   2.508510   3.042678
    34  H    6.795963   6.379106   6.049900   4.327015   5.143000
    35  H    6.970724   7.258522   6.519271   5.539689   5.986596
    36  H    5.078386   5.697681   4.693346   4.740107   5.013121
    37  H    4.582674   5.926048   5.414256   4.681889   5.536809
    38  H    8.915414   4.910003   4.626053   3.211835   2.417967
    39  H    8.635020   5.278861   4.381902   4.022070   2.919051
    40  H   10.153996   7.022300   6.710950   4.909805   4.637731
    41  H   10.276773   7.401216   6.668372   5.637662   4.961249
    42  H    8.951332   7.235571   6.866001   4.960374   5.271519
    43  H    8.654528   6.898083   5.707729   5.577690   4.903811
    44  H    7.795326   7.322071   6.132689   5.991048   5.737921
    45  H    6.986638   5.796678   4.464394   4.844804   4.321642
    46  H    9.381136   8.529966   7.696031   6.617719   6.604203
                   31         32         33         34         35
    31  H    0.000000
    32  H    3.045565   0.000000
    33  H    3.041542   2.535756   0.000000
    34  H    4.089422   2.733098   2.416762   0.000000
    35  H    4.260996   3.841965   3.652226   1.764867   0.000000
    36  H    2.801392   3.042086   3.920020   3.051737   2.424526
    37  H    3.888083   2.407046   3.913670   2.424398   2.463829
    38  H    3.408075   4.512001   2.419578   4.668110   5.467246
    39  H    2.632448   4.750413   3.034147   4.692702   4.909037
    40  H    4.921227   5.453595   2.928380   4.337909   5.028586
    41  H    4.630626   5.992420   3.717196   4.800651   4.883045
    42  H    4.734608   4.430398   2.455268   2.370365   3.050892
    43  H    3.337059   5.260681   3.911090   4.255349   3.602019
    44  H    3.686103   4.940323   4.260371   3.602336   2.334085
    45  H    2.095487   4.213079   3.749997   3.924614   3.262108
    46  H    5.234687   5.681457   4.253841   3.376275   2.571930
                   36         37         38         39         40
    36  H    0.000000
    37  H    1.763998   0.000000
    38  H    5.450049   6.005841   0.000000
    39  H    4.641951   5.669671   1.760490   0.000000
    40  H    6.011541   6.371398   2.343805   2.996950   0.000000
    41  H    5.692539   6.496510   2.840650   2.369343   1.763261
    42  H    4.670402   4.668713   3.708383   3.907375   2.321193
    43  H    3.797541   5.086369   3.861109   2.401385   3.818811
    44  H    2.733249   3.985434   5.079245   3.842545   4.883862
    45  H    2.356081   3.917869   4.207642   2.825720   4.843327
    46  H    4.455051   4.957236   5.168931   4.498816   3.878153
                   41         42         43         44         45
    41  H    0.000000
    42  H    2.973909   0.000000
    43  H    2.539907   3.630474   0.000000
    44  H    3.948902   3.782069   1.761742   0.000000
    45  H    3.986261   4.288354   1.761583   1.761463   0.000000
    46  H    3.308195   2.412826   2.822043   2.420120   3.794301
                   46
    46  H    0.000000
 Stoichiometry    C18H26O2
 Framework group  C1[X(C18H26O2)]
 Deg. of freedom   132
 Full point group                 C1      NOp   1
 Largest Abelian subgroup         C1      NOp   1
 Largest concise Abelian subgroup C1      NOp   1
                         Standard orientation:                         
 ---------------------------------------------------------------------
 Center     Atomic      Atomic             Coordinates (Angstroms)
 Number     Number       Type             X           Y           Z
 ---------------------------------------------------------------------
      1          6           0        4.683121   -0.142225    0.062862
      2          8           0        5.934151   -0.062683    0.097379
      3          6           0        3.840239    0.975687   -0.084961
      4          6           0        2.478642    0.914455    0.033195
      5          6           0        1.780285   -0.409955    0.175105
      6          6           0        2.660603   -1.518753   -0.405448
      7          6           0        4.029765   -1.486871    0.253143
      8          6           0        1.700422    2.136100    0.191683
      9          6           0        0.270300    2.086561   -0.327274
     10          6           0       -0.410305    0.806002    0.140584
     11          6           0        0.364741   -0.389830   -0.434664
     12          6           0       -1.856611    0.743563   -0.323795
     13          6           0       -2.560643   -0.568309    0.052794
     14          6           0       -1.825157   -1.716235   -0.630136
     15          6           0       -0.354955   -1.725907   -0.205257
     16          6           0       -2.830042    1.808532    0.173811
     17          6           0       -4.200693    1.218417   -0.198472
     18          6           0       -3.973029   -0.280976   -0.498805
     19          6           0       -2.653846   -0.819783    1.562551
     20          8           0       -5.007745   -1.052531    0.071926
     21          1           0        4.319333    1.937578   -0.201302
     22          1           0        1.670649   -0.584746    1.256029
     23          1           0        2.768431   -1.369091   -1.482780
     24          1           0        2.208446   -2.496767   -0.241794
     25          1           0        3.919526   -1.648820    1.331825
     26          1           0        4.680576   -2.271094   -0.142545
     27          1           0        2.236616    3.007156   -0.182988
     28          1           0        1.639771    2.259536    1.313299
     29          1           0        0.271310    2.129235   -1.419992
     30          1           0       -0.278009    2.953383    0.035702
     31          1           0       -0.364613    0.781463    1.232784
     32          1           0        0.461429   -0.237225   -1.515925
     33          1           0       -1.852817    0.794803   -1.419771
     34          1           0       -1.897314   -1.603517   -1.714431
     35          1           0       -2.274821   -2.676157   -0.364731
     36          1           0       -0.291804   -1.992901    0.851464
     37          1           0        0.148246   -2.506748   -0.777648
     38          1           0       -2.666684    2.776585   -0.295263
     39          1           0       -2.729801    1.937032    1.250858
     40          1           0       -4.609212    1.720987   -1.073544
     41          1           0       -4.923049    1.308485    0.611816
     42          1           0       -3.963351   -0.448551   -1.587261
     43          1           0       -3.451614   -0.227270    2.000147
     44          1           0       -2.872696   -1.871187    1.742997
     45          1           0       -1.725959   -0.574471    2.068993
     46          1           0       -4.690854   -1.958812    0.148130
 ---------------------------------------------------------------------
 Rotational constants (GHZ):           0.9395158           0.1756837           0.1557045
 Standard basis: 6-31G(d) (6D, 7F)
 There are   352 symmetry adapted cartesian basis functions of A   symmetry.
 There are   352 symmetry adapted basis functions of A   symmetry.
   352 basis functions,   664 primitive gaussians,   352 cartesian basis functions
    75 alpha electrons       75 beta electrons
       nuclear repulsion energy      1671.2172079226 Hartrees.
 NAtoms=   46 NActive=   46 NUniq=   46 SFac= 1.00D+00 NAtFMM=   60 NAOKFM=F Big=F
 Integral buffers will be    131072 words long.
 Raffenetti 2 integral format.
 Two-electron integral symmetry is turned on.
 Nuclear repulsion after empirical dispersion term =     1671.1680734865 Hartrees.
 One-electron integrals computed using PRISM.
 NBasis=   352 RedAO= T EigKep=  1.19D-03  NBF=   352
 NBsUse=   352 1.00D-06 EigRej= -1.00D+00 NBFU=   352
 ExpMin= 1.61D-01 ExpMax= 5.48D+03 ExpMxC= 8.25D+02 IAcc=3 IRadAn=         5 AccDes= 0.00D+00
 Harris functional with IExCor= 4639 and IRadAn=       5 diagonalized for initial guess.
 HarFok:  IExCor= 4639 AccDes= 0.00D+00 IRadAn=         5 IDoV= 1 UseB2=F ITyADJ=14
 ICtDFT=  3500011 ScaDFX=  1.000000  1.000000  1.000000  1.000000
 FoFCou: FMM=F IPFlag=           0 FMFlag=      100000 FMFlg1=           0
         NFxFlg=           0 DoJE=T BraDBF=F KetDBF=T FulRan=T
         wScrn=  0.000000 ICntrl=       500 IOpCl=  0 I1Cent=   200000004 NGrid=           0
         NMat0=    1 NMatS0=      1 NMatT0=    0 NMatD0=    1 NMtDS0=    0 NMtDT0=    0
 Petite list used in FoFCou.
 Requested convergence on RMS density matrix=1.00D-08 within 128 cycles.
 Requested convergence on MAX density matrix=1.00D-06.
 Requested convergence on             energy=1.00D-06.
 No special actions if energy rises.
 Integral accuracy reduced to 1.0D-05 until final iterations.
 Initial convergence to 1.0D-05 achieved.  Increase integral accuracy.
 SCF Done:  E(RwB97XD) =  -851.784601223     A.U. after   15 cycles
            NFock= 15  Conv=0.37D-08     -V/T= 2.0088

 **********************************************************************

            Population analysis using the SCF Density.

 **********************************************************************

 Orbital symmetries:
       Occupied  (A) (A) (A) (A) (A) (A) (A) (A) (A) (A) (A) (A)
                 (A) (A) (A) (A) (A) (A) (A) (A) (A) (A) (A) (A)
                 (A) (A) (A) (A) (A) (A) (A) (A) (A) (A) (A) (A)
                 (A) (A) (A) (A) (A) (A) (A) (A) (A) (A) (A) (A)
                 (A) (A) (A) (A) (A) (A) (A) (A) (A) (A) (A) (A)
                 (A) (A) (A) (A) (A) (A) (A) (A) (A) (A) (A) (A)
                 (A) (A) (A)
       Virtual   (A) (A) (A) (A) (A) (A) (A) (A) (A) (A) (A) (A)
                 (A) (A) (A) (A) (A) (A) (A) (A) (A) (A) (A) (A)
                 (A) (A) (A) (A) (A) (A) (A) (A) (A) (A) (A) (A)
                 (A) (A) (A) (A) (A) (A) (A) (A) (A) (A) (A) (A)
                 (A) (A) (A) (A) (A) (A) (A) (A) (A) (A) (A) (A)
                 (A) (A) (A) (A) (A) (A) (A) (A) (A) (A) (A) (A)
                 (A) (A) (A) (A) (A) (A) (A) (A) (A) (A) (A) (A)
                 (A) (A) (A) (A) (A) (A) (A) (A) (A) (A) (A) (A)
                 (A) (A) (A) (A) (A) (A) (A) (A) (A) (A) (A) (A)
                 (A) (A) (A) (A) (A) (A) (A) (A) (A) (A) (A) (A)
                 (A) (A) (A) (A) (A) (A) (A) (A) (A) (A) (A) (A)
                 (A) (A) (A) (A) (A) (A) (A) (A) (A) (A) (A) (A)
                 (A) (A) (A) (A) (A) (A) (A) (A) (A) (A) (A) (A)
                 (A) (A) (A) (A) (A) (A) (A) (A) (A) (A) (A) (A)
                 (A) (A) (A) (A) (A) (A) (A) (A) (A) (A) (A) (A)
                 (A) (A) (A) (A) (A) (A) (A) (A) (A) (A) (A) (A)
                 (A) (A) (A) (A) (A) (A) (A) (A) (A) (A) (A) (A)
                 (A) (A) (A) (A) (A) (A) (A) (A) (A) (A) (A) (A)
                 (A) (A) (A) (A) (A) (A) (A) (A) (A) (A) (A) (A)
                 (A) (A) (A) (A) (A) (A) (A) (A) (A) (A) (A) (A)
                 (A) (A) (A) (A) (A) (A) (A) (A) (A) (A) (A) (A)
                 (A) (A) (A) (A) (A) (A) (A) (A) (A) (A) (A) (A)
                 (A) (A) (A) (A) (A) (A) (A) (A) (A) (A) (A) (A)
                 (A)
 The electronic state is 1-A.
 Alpha  occ. eigenvalues --  -19.26635 -19.23211 -10.36503 -10.34066 -10.33357
 Alpha  occ. eigenvalues --  -10.31645 -10.31095 -10.30960 -10.30451 -10.30286
 Alpha  occ. eigenvalues --  -10.30211 -10.30054 -10.29979 -10.29884 -10.29827
 Alpha  occ. eigenvalues --  -10.29315 -10.29255 -10.29197 -10.28779 -10.28770
 Alpha  occ. eigenvalues --   -1.12382  -1.09738  -0.98730  -0.96132  -0.91246
 Alpha  occ. eigenvalues --   -0.90641  -0.87661  -0.84580  -0.82853  -0.81763
 Alpha  occ. eigenvalues --   -0.78114  -0.77707  -0.74007  -0.72130  -0.69869
 Alpha  occ. eigenvalues --   -0.68096  -0.65702  -0.65558  -0.63155  -0.61287
 Alpha  occ. eigenvalues --   -0.60174  -0.58418  -0.57387  -0.55799  -0.55565
 Alpha  occ. eigenvalues --   -0.54576  -0.53568  -0.53222  -0.51919  -0.50936
 Alpha  occ. eigenvalues --   -0.50142  -0.49771  -0.48999  -0.48215  -0.48056
 Alpha  occ. eigenvalues --   -0.46963  -0.46739  -0.46604  -0.45141  -0.44725
 Alpha  occ. eigenvalues --   -0.44232  -0.43557  -0.43186  -0.42584  -0.42280
 Alpha  occ. eigenvalues --   -0.41460  -0.41087  -0.40543  -0.39778  -0.38466
 Alpha  occ. eigenvalues --   -0.36901  -0.36361  -0.34161  -0.32324  -0.30759
 Alpha virt. eigenvalues --    0.01766   0.13171   0.14040   0.14833   0.16559
 Alpha virt. eigenvalues --    0.17006   0.17709   0.18670   0.19287   0.20212
 Alpha virt. eigenvalues --    0.20543   0.20969   0.21905   0.22726   0.23372
 Alpha virt. eigenvalues --    0.23458   0.23804   0.24823   0.25055   0.25477
 Alpha virt. eigenvalues --    0.25772   0.26136   0.26398   0.27152   0.27482
 Alpha virt. eigenvalues --    0.27698   0.28212   0.28701   0.29360   0.30572
 Alpha virt. eigenvalues --    0.30875   0.31018   0.31732   0.32303   0.33471
 Alpha virt. eigenvalues --    0.33784   0.34064   0.35002   0.36150   0.36326
 Alpha virt. eigenvalues --    0.37196   0.37691   0.39089   0.39759   0.40883
 Alpha virt. eigenvalues --    0.41920   0.42672   0.44869   0.45297   0.50484
 Alpha virt. eigenvalues --    0.51430   0.58089   0.58778   0.59282   0.60061
 Alpha virt. eigenvalues --    0.61463   0.61863   0.62374   0.62999   0.65396
 Alpha virt. eigenvalues --    0.65998   0.66254   0.66935   0.68085   0.69351
 Alpha virt. eigenvalues --    0.70021   0.71314   0.72414   0.72969   0.73617
 Alpha virt. eigenvalues --    0.73752   0.73995   0.75039   0.76024   0.76280
 Alpha virt. eigenvalues --    0.77355   0.78032   0.78693   0.80077   0.80883
 Alpha virt. eigenvalues --    0.82951   0.83210   0.84314   0.85197   0.85327
 Alpha virt. eigenvalues --    0.86387   0.87427   0.88863   0.89926   0.90567
 Alpha virt. eigenvalues --    0.90965   0.92321   0.93284   0.93519   0.94882
 Alpha virt. eigenvalues --    0.95042   0.95726   0.96148   0.96573   0.97162
 Alpha virt. eigenvalues --    0.97583   0.97683   0.97998   0.98388   0.98925
 Alpha virt. eigenvalues --    0.99597   1.00025   1.00721   1.01102   1.02573
 Alpha virt. eigenvalues --    1.03316   1.03924   1.04217   1.04479   1.04958
 Alpha virt. eigenvalues --    1.05605   1.06036   1.07021   1.07750   1.08314
 Alpha virt. eigenvalues --    1.09399   1.10590   1.11006   1.12527   1.13647
 Alpha virt. eigenvalues --    1.14522   1.15775   1.16337   1.19931   1.21063
 Alpha virt. eigenvalues --    1.22053   1.23710   1.25232   1.28330   1.28809
 Alpha virt. eigenvalues --    1.30215   1.31148   1.34924   1.35344   1.38032
 Alpha virt. eigenvalues --    1.39455   1.42335   1.43516   1.45561   1.47252
 Alpha virt. eigenvalues --    1.50679   1.52489   1.54096   1.56336   1.58196
 Alpha virt. eigenvalues --    1.62012   1.62926   1.65358   1.66605   1.67134
 Alpha virt. eigenvalues --    1.71035   1.72245   1.72910   1.75321   1.76878
 Alpha virt. eigenvalues --    1.78346   1.80074   1.80548   1.82595   1.84149
 Alpha virt. eigenvalues --    1.85541   1.86961   1.87839   1.88423   1.89661
 Alpha virt. eigenvalues --    1.89990   1.92373   1.93382   1.95532   1.95950
 Alpha virt. eigenvalues --    1.96205   1.97201   1.97637   1.99215   2.00093
 Alpha virt. eigenvalues --    2.00889   2.02279   2.02536   2.02749   2.03756
 Alpha virt. eigenvalues --    2.04999   2.06118   2.06837   2.07004   2.08230
 Alpha virt. eigenvalues --    2.08889   2.09898   2.10742   2.11742   2.12547
 Alpha virt. eigenvalues --    2.13481   2.15093   2.15557   2.16110   2.17830
 Alpha virt. eigenvalues --    2.19338   2.20698   2.21265   2.24250   2.25720
 Alpha virt. eigenvalues --    2.26607   2.28451   2.30309   2.31684   2.33396
 Alpha virt. eigenvalues --    2.34507   2.36642   2.37490   2.38772   2.40854
 Alpha virt. eigenvalues --    2.41459   2.42550   2.43334   2.45784   2.46719
 Alpha virt. eigenvalues --    2.47789   2.50378   2.51280   2.52222   2.53119
 Alpha virt. eigenvalues --    2.55846   2.58761   2.59218   2.61479   2.62814
 Alpha virt. eigenvalues --    2.63770   2.64625   2.65172   2.66950   2.67876
 Alpha virt. eigenvalues --    2.69121   2.71266   2.72093   2.75702   2.76905
 Alpha virt. eigenvalues --    2.79162   2.79833   2.81322   2.83724   2.85376
 Alpha virt. eigenvalues --    2.87096   2.90430   2.94440   2.97716   3.00375
 Alpha virt. eigenvalues --    3.01604   3.02949   3.07325   3.09304   3.11138
 Alpha virt. eigenvalues --    3.21977   3.27949   4.01133   4.08434   4.25902
 Alpha virt. eigenvalues --    4.27566   4.31208   4.34734   4.36371   4.38871
 Alpha virt. eigenvalues --    4.42028   4.42902   4.48934   4.54380   4.55804
 Alpha virt. eigenvalues --    4.65804   4.67811   4.74465   4.77666   4.81166
 Alpha virt. eigenvalues --    4.86712   4.93352
          Condensed to atoms (all electrons):
               1          2          3          4          5          6
     1  C    4.428100   0.523577   0.375954   0.002057  -0.022195  -0.028392
     2  O    0.523577   8.124327  -0.059795   0.005019   0.000236   0.002922
     3  C    0.375954  -0.059795   5.294145   0.513593  -0.045139   0.007488
     4  C    0.002057   0.005019   0.513593   4.870210   0.373377  -0.047135
     5  C   -0.022195   0.000236  -0.045139   0.373377   5.103453   0.353236
     6  C   -0.028392   0.002922   0.007488  -0.047135   0.353236   5.150021
     7  C    0.341440  -0.079878  -0.138071  -0.001537  -0.035328   0.285084
     8  C    0.003898  -0.000096  -0.040020   0.365762  -0.069060   0.005167
     9  C   -0.000135   0.000000   0.003528  -0.034108  -0.012751  -0.000297
    10  C   -0.000011   0.000000   0.000446  -0.014490  -0.040287   0.004191
    11  C   -0.000087   0.000000   0.003973  -0.030436   0.364367  -0.048489
    12  C   -0.000000   0.000000   0.000004   0.000344   0.003864  -0.000137
    13  C   -0.000000   0.000000   0.000000   0.000005   0.000062  -0.000007
    14  C    0.000000  -0.000000   0.000001  -0.000096   0.003604   0.000229
    15  C   -0.000002  -0.000000  -0.000123   0.004389  -0.042933  -0.004641
    16  C   -0.000000  -0.000000   0.000000  -0.000002  -0.000114   0.000001
    17  C   -0.000000   0.000000  -0.000000   0.000000   0.000002  -0.000000
    18  C    0.000000  -0.000000  -0.000000   0.000000   0.000004   0.000000
    19  C   -0.000000  -0.000000   0.000000   0.000001   0.000050  -0.000000
    20  O    0.000000   0.000000   0.000000   0.000000  -0.000000  -0.000000
    21  H   -0.029401   0.000650   0.359427  -0.048306   0.004898  -0.000481
    22  H    0.000847   0.000014  -0.004906  -0.042391   0.367943  -0.034765
    23  H   -0.002879   0.000066   0.003840  -0.004410  -0.042734   0.386108
    24  H    0.003553  -0.000073  -0.000210   0.004977  -0.033122   0.376734
    25  H   -0.026870  -0.000443   0.002080  -0.001343  -0.004592  -0.039604
    26  H   -0.024302   0.002406   0.005158  -0.000157   0.004335  -0.031654
    27  H    0.000255  -0.000002  -0.003045  -0.039282   0.004406  -0.000157
    28  H   -0.000113   0.000007  -0.010850  -0.043677   0.000727   0.000176
    29  H    0.000001  -0.000000  -0.000212  -0.003593   0.000652   0.000014
    30  H    0.000001  -0.000000  -0.000089   0.004321   0.000012   0.000011
    31  H    0.000005   0.000000  -0.000264  -0.004696  -0.000980   0.000177
    32  H    0.000020  -0.000000  -0.000099  -0.003774  -0.040609  -0.004478
    33  H    0.000000   0.000000  -0.000001  -0.000075   0.000191   0.000001
    34  H    0.000000   0.000000  -0.000000   0.000002   0.000053  -0.000018
    35  H    0.000000  -0.000000  -0.000000   0.000001  -0.000105   0.000001
    36  H    0.000002  -0.000000  -0.000010   0.000144  -0.003787  -0.000999
    37  H   -0.000009  -0.000000   0.000013  -0.000096  -0.006073   0.001446
    38  H    0.000000  -0.000000   0.000000  -0.000002   0.000001  -0.000000
    39  H    0.000000   0.000000  -0.000000  -0.000000   0.000001   0.000000
    40  H    0.000000  -0.000000   0.000000   0.000000  -0.000000   0.000000
    41  H    0.000000  -0.000000   0.000000  -0.000000  -0.000000   0.000000
    42  H    0.000000  -0.000000  -0.000000   0.000000  -0.000000  -0.000000
    43  H   -0.000000  -0.000000   0.000000   0.000000  -0.000001  -0.000000
    44  H    0.000000   0.000000  -0.000000  -0.000000  -0.000006   0.000000
    45  H    0.000000  -0.000000  -0.000000   0.000003   0.000037   0.000002
    46  H   -0.000000   0.000000  -0.000000   0.000000  -0.000000   0.000000
               7          8          9         10         11         12
     1  C    0.341440   0.003898  -0.000135  -0.000011  -0.000087  -0.000000
     2  O   -0.079878  -0.000096   0.000000   0.000000   0.000000   0.000000
     3  C   -0.138071  -0.040020   0.003528   0.000446   0.003973   0.000004
     4  C   -0.001537   0.365762  -0.034108  -0.014490  -0.030436   0.000344
     5  C   -0.035328  -0.069060  -0.012751  -0.040287   0.364367   0.003864
     6  C    0.285084   0.005167  -0.000297   0.004191  -0.048489  -0.000137
     7  C    5.361148  -0.000072   0.000040  -0.000109   0.004638   0.000002
     8  C   -0.000072   5.166264   0.334243  -0.044564  -0.016712   0.004057
     9  C    0.000040   0.334243   5.105142   0.368762  -0.043848  -0.043730
    10  C   -0.000109  -0.044564   0.368762   5.030056   0.371048   0.365274
    11  C    0.004638  -0.016712  -0.043848   0.371048   5.041287  -0.038682
    12  C    0.000002   0.004057  -0.043730   0.365274  -0.038682   5.107540
    13  C    0.000000  -0.000144   0.004416  -0.026469  -0.012763   0.356231
    14  C   -0.000002  -0.000011  -0.000067  -0.011687  -0.038436  -0.049846
    15  C    0.000152   0.000385   0.004556  -0.041816   0.367920  -0.018695
    16  C   -0.000000   0.000086  -0.004308  -0.035121   0.004410   0.362679
    17  C    0.000000  -0.000000   0.000119   0.004625  -0.000188  -0.063598
    18  C   -0.000000   0.000002  -0.000121   0.004112   0.000143  -0.066691
    19  C    0.000000  -0.000001   0.000239  -0.007569  -0.001953  -0.055912
    20  O    0.000000  -0.000000   0.000000  -0.000075  -0.000003   0.003679
    21  H    0.007084  -0.007321   0.000233   0.000002  -0.000092   0.000000
    22  H   -0.006253   0.001049  -0.000396  -0.005826  -0.043323   0.000034
    23  H   -0.041491   0.000046  -0.000037   0.000072  -0.003267  -0.000000
    24  H   -0.030513  -0.000121  -0.000010   0.000005  -0.008314  -0.000003
    25  H    0.367035  -0.000039  -0.000002   0.000000   0.000045   0.000000
    26  H    0.369392   0.000009   0.000000   0.000002  -0.000076  -0.000000
    27  H    0.000009   0.378937  -0.031295   0.004246  -0.000197  -0.000114
    28  H   -0.000119   0.377338  -0.044314  -0.005445  -0.000895  -0.000015
    29  H   -0.000004  -0.035955   0.379850  -0.038223  -0.008134  -0.004510
    30  H   -0.000000  -0.031049   0.380545  -0.034011   0.005108  -0.006983
    31  H   -0.000013   0.000703  -0.048668   0.380898  -0.049587  -0.042423
    32  H   -0.000068   0.000013  -0.006260  -0.046686   0.378605  -0.003820
    33  H   -0.000000   0.000117  -0.005958  -0.044249  -0.005774   0.383206
    34  H   -0.000000   0.000000  -0.000029  -0.000431  -0.003678  -0.006298
    35  H   -0.000000  -0.000000   0.000011  -0.000124   0.004259   0.006645
    36  H   -0.000066  -0.000010  -0.000004  -0.003558  -0.043176  -0.000536
    37  H    0.000020  -0.000012  -0.000133   0.004449  -0.031516   0.000149
    38  H    0.000000  -0.000012   0.001151  -0.001808  -0.000075  -0.028084
    39  H   -0.000000  -0.000028  -0.000490  -0.004265   0.000076  -0.038521
    40  H   -0.000000  -0.000000  -0.000006  -0.000073   0.000004   0.000940
    41  H   -0.000000  -0.000000   0.000001  -0.000137   0.000003   0.003821
    42  H   -0.000000  -0.000000   0.000007  -0.000318  -0.000002  -0.003048
    43  H    0.000000  -0.000000  -0.000013   0.000045  -0.000001  -0.002135
    44  H   -0.000000  -0.000000   0.000000  -0.000015   0.000148   0.005390
    45  H    0.000000   0.000010  -0.000059   0.001862  -0.000251  -0.006355
    46  H    0.000000   0.000000   0.000000  -0.000006   0.000001   0.000472
              13         14         15         16         17         18
     1  C   -0.000000   0.000000  -0.000002  -0.000000  -0.000000   0.000000
     2  O    0.000000  -0.000000  -0.000000  -0.000000   0.000000  -0.000000
     3  C    0.000000   0.000001  -0.000123   0.000000  -0.000000  -0.000000
     4  C    0.000005  -0.000096   0.004389  -0.000002   0.000000   0.000000
     5  C    0.000062   0.003604  -0.042933  -0.000114   0.000002   0.000004
     6  C   -0.000007   0.000229  -0.004641   0.000001  -0.000000   0.000000
     7  C    0.000000  -0.000002   0.000152  -0.000000   0.000000  -0.000000
     8  C   -0.000144  -0.000011   0.000385   0.000086  -0.000000   0.000002
     9  C    0.004416  -0.000067   0.004556  -0.004308   0.000119  -0.000121
    10  C   -0.026469  -0.011687  -0.041816  -0.035121   0.004625   0.004112
    11  C   -0.012763  -0.038436   0.367920   0.004410  -0.000188   0.000143
    12  C    0.356231  -0.049846  -0.018695   0.362679  -0.063598  -0.066691
    13  C    5.100759   0.378620  -0.039566  -0.064157  -0.062025   0.385059
    14  C    0.378620   5.116968   0.353762   0.006137   0.006820  -0.045097
    15  C   -0.039566   0.353762   5.096761   0.000240  -0.000257   0.004520
    16  C   -0.064157   0.006137   0.000240   5.106016   0.345449  -0.062061
    17  C   -0.062025   0.006820  -0.000257   0.345449   5.178636   0.354430
    18  C    0.385059  -0.045097   0.004520  -0.062061   0.354430   4.799458
    19  C    0.333831  -0.069176  -0.003572  -0.002369  -0.009976  -0.053667
    20  O   -0.048206  -0.000383   0.000012   0.002302  -0.048896   0.250328
    21  H   -0.000000  -0.000000   0.000002  -0.000000  -0.000000  -0.000000
    22  H   -0.000031   0.000053  -0.006987  -0.000000   0.000000  -0.000000
    23  H    0.000000  -0.000036  -0.000838   0.000000   0.000000  -0.000000
    24  H   -0.000003   0.000026   0.003263   0.000000   0.000000   0.000000
    25  H    0.000000  -0.000000  -0.000026   0.000000   0.000000  -0.000000
    26  H   -0.000000  -0.000000  -0.000001   0.000000  -0.000000  -0.000000
    27  H    0.000001  -0.000000   0.000010  -0.000001  -0.000000  -0.000000
    28  H    0.000004   0.000000  -0.000010  -0.000012  -0.000000   0.000000
    29  H    0.000036  -0.000011   0.000114  -0.000428  -0.000024  -0.000004
    30  H    0.000025  -0.000005  -0.000144   0.003821  -0.000019  -0.000008
    31  H   -0.007507   0.000346  -0.002469  -0.004163   0.000008   0.000013
    32  H   -0.001176  -0.000503  -0.044585  -0.000048   0.000003  -0.000056
    33  H   -0.053784  -0.006387  -0.000953  -0.045661  -0.002611  -0.002524
    34  H   -0.038006   0.378675  -0.036692   0.000037   0.000073  -0.006016
    35  H   -0.036620   0.371322  -0.034643  -0.000238  -0.000030  -0.003235
    36  H   -0.008605  -0.035960   0.381738  -0.000019   0.000000  -0.000027
    37  H    0.005013  -0.034862   0.380813   0.000009   0.000003  -0.000086
    38  H    0.006017  -0.000152  -0.000004   0.379043  -0.028874   0.003083
    39  H   -0.007337   0.000051  -0.000024   0.385877  -0.032931   0.001271
    40  H    0.003153  -0.000168   0.000004  -0.033270   0.378300  -0.027607
    41  H   -0.000890  -0.000121   0.000004  -0.025568   0.370771  -0.031698
    42  H   -0.065115  -0.009305   0.000147   0.004204  -0.052644   0.389254
    43  H   -0.033539   0.004533   0.000120   0.001351   0.002152  -0.007093
    44  H   -0.031873  -0.006591  -0.001065  -0.000111  -0.000019  -0.003717
    45  H   -0.034487  -0.002355   0.000923  -0.000485  -0.000207   0.004929
    46  H   -0.006153   0.001879  -0.000100  -0.000371   0.007449  -0.032101
              19         20         21         22         23         24
     1  C   -0.000000   0.000000  -0.029401   0.000847  -0.002879   0.003553
     2  O   -0.000000   0.000000   0.000650   0.000014   0.000066  -0.000073
     3  C    0.000000   0.000000   0.359427  -0.004906   0.003840  -0.000210
     4  C    0.000001   0.000000  -0.048306  -0.042391  -0.004410   0.004977
     5  C    0.000050  -0.000000   0.004898   0.367943  -0.042734  -0.033122
     6  C   -0.000000  -0.000000  -0.000481  -0.034765   0.386108   0.376734
     7  C    0.000000   0.000000   0.007084  -0.006253  -0.041491  -0.030513
     8  C   -0.000001  -0.000000  -0.007321   0.001049   0.000046  -0.000121
     9  C    0.000239   0.000000   0.000233  -0.000396  -0.000037  -0.000010
    10  C   -0.007569  -0.000075   0.000002  -0.005826   0.000072   0.000005
    11  C   -0.001953  -0.000003  -0.000092  -0.043323  -0.003267  -0.008314
    12  C   -0.055912   0.003679   0.000000   0.000034  -0.000000  -0.000003
    13  C    0.333831  -0.048206  -0.000000  -0.000031   0.000000  -0.000003
    14  C   -0.069176  -0.000383  -0.000000   0.000053  -0.000036   0.000026
    15  C   -0.003572   0.000012   0.000002  -0.006987  -0.000838   0.003263
    16  C   -0.002369   0.002302  -0.000000  -0.000000   0.000000   0.000000
    17  C   -0.009976  -0.048896  -0.000000   0.000000   0.000000   0.000000
    18  C   -0.053667   0.250328  -0.000000  -0.000000  -0.000000   0.000000
    19  C    5.226771   0.004434   0.000000  -0.000052  -0.000000  -0.000001
    20  O    0.004434   8.278464   0.000000  -0.000000  -0.000000   0.000000
    21  H    0.000000   0.000000   0.538068  -0.000224  -0.000143   0.000014
    22  H   -0.000052  -0.000000  -0.000224   0.585099   0.005517  -0.002525
    23  H   -0.000000  -0.000000  -0.000143   0.005517   0.554611  -0.029673
    24  H   -0.000001   0.000000   0.000014  -0.002525  -0.029673   0.553364
    25  H   -0.000000   0.000000  -0.000181   0.006272   0.005050  -0.003930
    26  H    0.000000  -0.000000  -0.000117  -0.000124  -0.002639  -0.003047
    27  H    0.000000   0.000000   0.005379  -0.000110  -0.000004   0.000002
    28  H   -0.000004  -0.000000   0.000134   0.001411   0.000004   0.000009
    29  H   -0.000005  -0.000000  -0.000008   0.000074  -0.000004   0.000002
    30  H   -0.000004  -0.000000  -0.000007  -0.000004   0.000000   0.000000
    31  H    0.001240  -0.000001  -0.000002   0.005422   0.000006   0.000001
    32  H    0.000052   0.000000  -0.000012   0.005849   0.004592   0.000041
    33  H    0.006540   0.000057  -0.000000   0.000001  -0.000002  -0.000000
    34  H    0.006382  -0.000069   0.000000   0.000004   0.000001   0.000009
    35  H   -0.007927   0.001077   0.000000  -0.000003   0.000000   0.000006
    36  H    0.004804  -0.000002  -0.000000   0.005762   0.000099   0.000799
    37  H   -0.000060   0.000001   0.000000   0.000023   0.000591   0.002290
    38  H    0.000034  -0.000043  -0.000000   0.000000   0.000000  -0.000000
    39  H    0.003508   0.000020   0.000000  -0.000002  -0.000000  -0.000000
    40  H    0.000170   0.002005  -0.000000  -0.000000  -0.000000   0.000000
    41  H    0.000810   0.003376  -0.000000  -0.000000  -0.000000   0.000000
    42  H    0.007910  -0.042593  -0.000000  -0.000000  -0.000000   0.000000
    43  H    0.383267   0.003146  -0.000000   0.000001   0.000000   0.000000
    44  H    0.376074   0.001959   0.000000   0.000001   0.000000  -0.000000
    45  H    0.373328   0.000594  -0.000000   0.000041  -0.000000  -0.000000
    46  H   -0.000724   0.244756   0.000000  -0.000000   0.000000   0.000000
              25         26         27         28         29         30
     1  C   -0.026870  -0.024302   0.000255  -0.000113   0.000001   0.000001
     2  O   -0.000443   0.002406  -0.000002   0.000007  -0.000000  -0.000000
     3  C    0.002080   0.005158  -0.003045  -0.010850  -0.000212  -0.000089
     4  C   -0.001343  -0.000157  -0.039282  -0.043677  -0.003593   0.004321
     5  C   -0.004592   0.004335   0.004406   0.000727   0.000652   0.000012
     6  C   -0.039604  -0.031654  -0.000157   0.000176   0.000014   0.000011
     7  C    0.367035   0.369392   0.000009  -0.000119  -0.000004  -0.000000
     8  C   -0.000039   0.000009   0.378937   0.377338  -0.035955  -0.031049
     9  C   -0.000002   0.000000  -0.031295  -0.044314   0.379850   0.380545
    10  C    0.000000   0.000002   0.004246  -0.005445  -0.038223  -0.034011
    11  C    0.000045  -0.000076  -0.000197  -0.000895  -0.008134   0.005108
    12  C    0.000000  -0.000000  -0.000114  -0.000015  -0.004510  -0.006983
    13  C    0.000000  -0.000000   0.000001   0.000004   0.000036   0.000025
    14  C   -0.000000  -0.000000  -0.000000   0.000000  -0.000011  -0.000005
    15  C   -0.000026  -0.000001   0.000010  -0.000010   0.000114  -0.000144
    16  C    0.000000   0.000000  -0.000001  -0.000012  -0.000428   0.003821
    17  C    0.000000  -0.000000  -0.000000  -0.000000  -0.000024  -0.000019
    18  C   -0.000000  -0.000000  -0.000000   0.000000  -0.000004  -0.000008
    19  C   -0.000000   0.000000   0.000000  -0.000004  -0.000005  -0.000004
    20  O    0.000000  -0.000000   0.000000  -0.000000  -0.000000  -0.000000
    21  H   -0.000181  -0.000117   0.005379   0.000134  -0.000008  -0.000007
    22  H    0.006272  -0.000124  -0.000110   0.001411   0.000074  -0.000004
    23  H    0.005050  -0.002639  -0.000004   0.000004  -0.000004   0.000000
    24  H   -0.003930  -0.003047   0.000002   0.000009   0.000002   0.000000
    25  H    0.534669  -0.020524  -0.000000   0.000013   0.000000   0.000000
    26  H   -0.020524   0.506917  -0.000000  -0.000001  -0.000000   0.000000
    27  H   -0.000000  -0.000000   0.523385  -0.023137  -0.002800  -0.001721
    28  H    0.000013  -0.000001  -0.023137   0.564828   0.005149  -0.005627
    29  H    0.000000  -0.000000  -0.002800   0.005149   0.563009  -0.030487
    30  H    0.000000   0.000000  -0.001721  -0.005627  -0.030487   0.549209
    31  H   -0.000002   0.000000   0.000052   0.005378   0.005582  -0.002859
    32  H    0.000010  -0.000001  -0.000043   0.000118   0.005779   0.000100
    33  H   -0.000000   0.000000   0.000003   0.000003   0.004519  -0.000053
    34  H   -0.000000   0.000000  -0.000000  -0.000000  -0.000009   0.000001
    35  H    0.000000   0.000000   0.000000  -0.000000   0.000000  -0.000000
    36  H    0.000003   0.000001  -0.000000  -0.000002  -0.000001   0.000004
    37  H    0.000013   0.000002  -0.000000   0.000000  -0.000005   0.000002
    38  H    0.000000  -0.000000   0.000002   0.000005   0.000263   0.001119
    39  H   -0.000000   0.000000   0.000001  -0.000002   0.000052   0.000407
    40  H    0.000000   0.000000   0.000000   0.000000  -0.000000   0.000003
    41  H   -0.000000   0.000000   0.000000   0.000000   0.000000   0.000002
    42  H   -0.000000   0.000000   0.000000  -0.000000  -0.000002  -0.000000
    43  H    0.000000  -0.000000   0.000000   0.000000   0.000000   0.000000
    44  H    0.000000  -0.000000   0.000000   0.000000   0.000000  -0.000000
    45  H    0.000000   0.000000  -0.000000  -0.000009  -0.000001   0.000003
    46  H    0.000000   0.000000   0.000000   0.000000   0.000000   0.000000
              31         32         33         34         35         36
     1  C    0.000005   0.000020   0.000000   0.000000   0.000000   0.000002
     2  O    0.000000  -0.000000   0.000000   0.000000  -0.000000  -0.000000
     3  C   -0.000264  -0.000099  -0.000001  -0.000000  -0.000000  -0.000010
     4  C   -0.004696  -0.003774  -0.000075   0.000002   0.000001   0.000144
     5  C   -0.000980  -0.040609   0.000191   0.000053  -0.000105  -0.003787
     6  C    0.000177  -0.004478   0.000001  -0.000018   0.000001  -0.000999
     7  C   -0.000013  -0.000068  -0.000000  -0.000000  -0.000000  -0.000066
     8  C    0.000703   0.000013   0.000117   0.000000  -0.000000  -0.000010
     9  C   -0.048668  -0.006260  -0.005958  -0.000029   0.000011  -0.000004
    10  C    0.380898  -0.046686  -0.044249  -0.000431  -0.000124  -0.003558
    11  C   -0.049587   0.378605  -0.005774  -0.003678   0.004259  -0.043176
    12  C   -0.042423  -0.003820   0.383206  -0.006298   0.006645  -0.000536
    13  C   -0.007507  -0.001176  -0.053784  -0.038006  -0.036620  -0.008605
    14  C    0.000346  -0.000503  -0.006387   0.378675   0.371322  -0.035960
    15  C   -0.002469  -0.044585  -0.000953  -0.036692  -0.034643   0.381738
    16  C   -0.004163  -0.000048  -0.045661   0.000037  -0.000238  -0.000019
    17  C    0.000008   0.000003  -0.002611   0.000073  -0.000030   0.000000
    18  C    0.000013  -0.000056  -0.002524  -0.006016  -0.003235  -0.000027
    19  C    0.001240   0.000052   0.006540   0.006382  -0.007927   0.004804
    20  O   -0.000001   0.000000   0.000057  -0.000069   0.001077  -0.000002
    21  H   -0.000002  -0.000012  -0.000000   0.000000   0.000000  -0.000000
    22  H    0.005422   0.005849   0.000001   0.000004  -0.000003   0.005762
    23  H    0.000006   0.004592  -0.000002   0.000001   0.000000   0.000099
    24  H    0.000001   0.000041  -0.000000   0.000009   0.000006   0.000799
    25  H   -0.000002   0.000010  -0.000000  -0.000000   0.000000   0.000003
    26  H    0.000000  -0.000001   0.000000   0.000000   0.000000   0.000001
    27  H    0.000052  -0.000043   0.000003  -0.000000   0.000000  -0.000000
    28  H    0.005378   0.000118   0.000003  -0.000000  -0.000000  -0.000002
    29  H    0.005582   0.005779   0.004519  -0.000009   0.000000  -0.000001
    30  H   -0.002859   0.000100  -0.000053   0.000001  -0.000000   0.000004
    31  H    0.605644   0.005853   0.005981   0.000040  -0.000007   0.001745
    32  H    0.005853   0.600600   0.004350   0.003139  -0.000071   0.005471
    33  H    0.005981   0.004350   0.617679   0.005102   0.000029   0.000078
    34  H    0.000040   0.003139   0.005102   0.571554  -0.031363   0.004995
    35  H   -0.000007  -0.000071   0.000029  -0.031363   0.589398  -0.004336
    36  H    0.001745   0.005471   0.000078   0.004995  -0.004336   0.572085
    37  H   -0.000073  -0.005143  -0.000081  -0.004555  -0.002347  -0.031029
    38  H   -0.000138  -0.000001  -0.006026  -0.000001   0.000003   0.000000
    39  H    0.004087   0.000003   0.005394  -0.000008   0.000004  -0.000006
    40  H    0.000001  -0.000000   0.001056  -0.000021   0.000001  -0.000000
    41  H   -0.000005  -0.000000  -0.000008  -0.000001  -0.000001  -0.000000
    42  H   -0.000010  -0.000007   0.004604   0.006224   0.000033  -0.000003
    43  H   -0.000000   0.000001  -0.000095  -0.000137   0.000004  -0.000000
    44  H   -0.000059   0.000002  -0.000120   0.000141   0.005884   0.000777
    45  H    0.004694  -0.000020   0.000064  -0.000144  -0.000103   0.000126
    46  H   -0.000000  -0.000000  -0.000009  -0.000029   0.002729  -0.000004
              37         38         39         40         41         42
     1  C   -0.000009   0.000000   0.000000   0.000000   0.000000   0.000000
     2  O   -0.000000  -0.000000   0.000000  -0.000000  -0.000000  -0.000000
     3  C    0.000013   0.000000  -0.000000   0.000000   0.000000  -0.000000
     4  C   -0.000096  -0.000002  -0.000000   0.000000  -0.000000   0.000000
     5  C   -0.006073   0.000001   0.000001  -0.000000  -0.000000  -0.000000
     6  C    0.001446  -0.000000   0.000000   0.000000   0.000000  -0.000000
     7  C    0.000020   0.000000  -0.000000  -0.000000  -0.000000  -0.000000
     8  C   -0.000012  -0.000012  -0.000028  -0.000000  -0.000000  -0.000000
     9  C   -0.000133   0.001151  -0.000490  -0.000006   0.000001   0.000007
    10  C    0.004449  -0.001808  -0.004265  -0.000073  -0.000137  -0.000318
    11  C   -0.031516  -0.000075   0.000076   0.000004   0.000003  -0.000002
    12  C    0.000149  -0.028084  -0.038521   0.000940   0.003821  -0.003048
    13  C    0.005013   0.006017  -0.007337   0.003153  -0.000890  -0.065115
    14  C   -0.034862  -0.000152   0.000051  -0.000168  -0.000121  -0.009305
    15  C    0.380813  -0.000004  -0.000024   0.000004   0.000004   0.000147
    16  C    0.000009   0.379043   0.385877  -0.033270  -0.025568   0.004204
    17  C    0.000003  -0.028874  -0.032931   0.378300   0.370771  -0.052644
    18  C   -0.000086   0.003083   0.001271  -0.027607  -0.031698   0.389254
    19  C   -0.000060   0.000034   0.003508   0.000170   0.000810   0.007910
    20  O    0.000001  -0.000043   0.000020   0.002005   0.003376  -0.042593
    21  H    0.000000  -0.000000   0.000000  -0.000000  -0.000000  -0.000000
    22  H    0.000023   0.000000  -0.000002  -0.000000  -0.000000  -0.000000
    23  H    0.000591   0.000000  -0.000000  -0.000000  -0.000000  -0.000000
    24  H    0.002290  -0.000000  -0.000000   0.000000   0.000000   0.000000
    25  H    0.000013   0.000000  -0.000000   0.000000  -0.000000  -0.000000
    26  H    0.000002  -0.000000   0.000000   0.000000   0.000000   0.000000
    27  H   -0.000000   0.000002   0.000001   0.000000   0.000000   0.000000
    28  H    0.000000   0.000005  -0.000002   0.000000   0.000000  -0.000000
    29  H   -0.000005   0.000263   0.000052  -0.000000   0.000000  -0.000002
    30  H    0.000002   0.001119   0.000407   0.000003   0.000002  -0.000000
    31  H   -0.000073  -0.000138   0.004087   0.000001  -0.000005  -0.000010
    32  H   -0.005143  -0.000001   0.000003  -0.000000  -0.000000  -0.000007
    33  H   -0.000081  -0.006026   0.005394   0.001056  -0.000008   0.004604
    34  H   -0.004555  -0.000001  -0.000008  -0.000021  -0.000001   0.006224
    35  H   -0.002347   0.000003   0.000004   0.000001  -0.000001   0.000033
    36  H   -0.031029   0.000000  -0.000006  -0.000000  -0.000000  -0.000003
    37  H    0.555660  -0.000000  -0.000000  -0.000000  -0.000000  -0.000005
    38  H   -0.000000   0.551284  -0.032797  -0.007110   0.002024  -0.000189
    39  H   -0.000000  -0.032797   0.561761   0.003943  -0.008245  -0.000179
    40  H   -0.000000  -0.007110   0.003943   0.542506  -0.025418  -0.006419
    41  H   -0.000000   0.002024  -0.008245  -0.025418   0.523029   0.004729
    42  H   -0.000005  -0.000189  -0.000179  -0.006419   0.004729   0.633143
    43  H   -0.000000   0.000021  -0.000089  -0.000056   0.001049   0.000358
    44  H   -0.000058  -0.000001   0.000033   0.000000   0.000002  -0.000094
    45  H    0.000045  -0.000039   0.000424   0.000003   0.000031  -0.000070
    46  H    0.000003   0.000005   0.000002  -0.000216  -0.000063  -0.000675
              43         44         45         46
     1  C   -0.000000   0.000000   0.000000  -0.000000
     2  O   -0.000000   0.000000  -0.000000   0.000000
     3  C    0.000000  -0.000000  -0.000000  -0.000000
     4  C    0.000000  -0.000000   0.000003   0.000000
     5  C   -0.000001  -0.000006   0.000037  -0.000000
     6  C   -0.000000   0.000000   0.000002   0.000000
     7  C    0.000000  -0.000000   0.000000   0.000000
     8  C   -0.000000  -0.000000   0.000010   0.000000
     9  C   -0.000013   0.000000  -0.000059   0.000000
    10  C    0.000045  -0.000015   0.001862  -0.000006
    11  C   -0.000001   0.000148  -0.000251   0.000001
    12  C   -0.002135   0.005390  -0.006355   0.000472
    13  C   -0.033539  -0.031873  -0.034487  -0.006153
    14  C    0.004533  -0.006591  -0.002355   0.001879
    15  C    0.000120  -0.001065   0.000923  -0.000100
    16  C    0.001351  -0.000111  -0.000485  -0.000371
    17  C    0.002152  -0.000019  -0.000207   0.007449
    18  C   -0.007093  -0.003717   0.004929  -0.032101
    19  C    0.383267   0.376074   0.373328  -0.000724
    20  O    0.003146   0.001959   0.000594   0.244756
    21  H   -0.000000   0.000000  -0.000000   0.000000
    22  H    0.000001   0.000001   0.000041  -0.000000
    23  H    0.000000   0.000000  -0.000000   0.000000
    24  H    0.000000  -0.000000  -0.000000   0.000000
    25  H    0.000000   0.000000   0.000000   0.000000
    26  H   -0.000000  -0.000000   0.000000   0.000000
    27  H    0.000000   0.000000  -0.000000   0.000000
    28  H    0.000000   0.000000  -0.000009   0.000000
    29  H    0.000000   0.000000  -0.000001   0.000000
    30  H    0.000000  -0.000000   0.000003   0.000000
    31  H   -0.000000  -0.000059   0.004694  -0.000000
    32  H    0.000001   0.000002  -0.000020  -0.000000
    33  H   -0.000095  -0.000120   0.000064  -0.000009
    34  H   -0.000137   0.000141  -0.000144  -0.000029
    35  H    0.000004   0.005884  -0.000103   0.002729
    36  H   -0.000000   0.000777   0.000126  -0.000004
    37  H   -0.000000  -0.000058   0.000045   0.000003
    38  H    0.000021  -0.000001  -0.000039   0.000005
    39  H   -0.000089   0.000033   0.000424   0.000002
    40  H   -0.000056   0.000000   0.000003  -0.000216
    41  H    0.001049   0.000002   0.000031  -0.000063
    42  H    0.000358  -0.000094  -0.000070  -0.000675
    43  H    0.511188  -0.024914  -0.025942  -0.000088
    44  H   -0.024914   0.550017  -0.028179   0.002088
    45  H   -0.025942  -0.028179   0.548950  -0.000131
    46  H   -0.000088   0.002088  -0.000131   0.374730
 Mulliken charges:
               1
     1  C    0.454686
     2  O   -0.518938
     3  C   -0.266815
     4  C    0.175400
     5  C   -0.185694
     6  C   -0.331753
     7  C   -0.402521
     8  C   -0.392861
     9  C   -0.305805
    10  C   -0.132722
    11  C   -0.116083
    12  C   -0.124194
    13  C    0.005229
    14  C   -0.311768
    15  C   -0.319688
    16  C   -0.323152
    17  C   -0.346541
    18  C    0.145203
    19  C   -0.516474
    20  O   -0.655937
    21  H    0.170404
    22  H    0.162502
    23  H    0.167553
    24  H    0.166449
    25  H    0.182366
    26  H    0.194422
    27  H    0.185221
    28  H    0.178930
    29  H    0.159323
    30  H    0.168376
    31  H    0.136049
    32  H    0.142858
    33  H    0.135394
    34  H    0.151075
    35  H    0.139745
    36  H    0.153506
    37  H    0.165598
    38  H    0.161303
    39  H    0.158008
    40  H    0.168276
    41  H    0.182505
    42  H    0.130066
    43  H    0.186866
    44  H    0.154306
    45  H    0.162771
    46  H    0.406556
 Sum of Mulliken charges =  -0.00000
 Mulliken charges with hydrogens summed into heavy atoms:
               1
     1  C    0.454686
     2  O   -0.518938
     3  C   -0.096411
     4  C    0.175400
     5  C   -0.023192
     6  C    0.002248
     7  C   -0.025733
     8  C   -0.028711
     9  C    0.021895
    10  C    0.003327
    11  C    0.026775
    12  C    0.011200
    13  C    0.005229
    14  C   -0.020949
    15  C   -0.000583
    16  C   -0.003841
    17  C    0.004241
    18  C    0.275270
    19  C   -0.012532
    20  O   -0.249380
 Electronic spatial extent (au):  <R**2>=           6856.2338
 Charge=             -0.0000 electrons
 Dipole moment (field-independent basis, Debye):
    X=             -3.6631    Y=             -0.3274    Z=             -0.0983  Tot=              3.6790
 Quadrupole moment (field-independent basis, Debye-Ang):
   XX=           -175.3961   YY=           -111.9944   ZZ=           -118.8115
   XY=              0.5236   XZ=              0.7615   YZ=             -0.2582
 Traceless Quadrupole moment (field-independent basis, Debye-Ang):
   XX=            -39.9955   YY=             23.4063   ZZ=             16.5892
   XY=              0.5236   XZ=              0.7615   YZ=             -0.2582
 Octapole moment (field-independent basis, Debye-Ang**2):
  XXX=           -197.7752  YYY=            -11.5101  ZZZ=              0.1623  XYY=             -5.7782
  XXY=             -5.5701  XXZ=             -8.6997  XZZ=             -0.8258  YZZ=             -1.2949
  YYZ=              0.3442  XYZ=              1.3542
 Hexadecapole moment (field-independent basis, Debye-Ang**3):
 XXXX=          -9660.8049 YYYY=          -1372.6938 ZZZZ=           -403.0214 XXXY=            -23.6300
 XXXZ=            -26.2897 YYYX=             79.8905 YYYZ=             -7.9452 ZZZX=             10.6223
 ZZZY=              2.0556 XXYY=          -1289.9791 XXZZ=          -1230.7709 YYZZ=           -304.9882
 XXYZ=             -7.1933 YYXZ=             -7.9391 ZZXY=             -5.5409
 N-N= 1.671168073487D+03 E-N=-5.319397536542D+03  KE= 8.443439933624D+02

 **********************************************************************

            Electrostatic Properties Using The SCF Density.

 **********************************************************************

       Atomic Center    1 is at   4.683121 -0.142225  0.062862
       Atomic Center    2 is at   5.934151 -0.062683  0.097379
       Atomic Center    3 is at   3.840239  0.975687 -0.084961
       Atomic Center    4 is at   2.478642  0.914455  0.033195
       Atomic Center    5 is at   1.780285 -0.409955  0.175105
       Atomic Center    6 is at   2.660603 -1.518753 -0.405448
       Atomic Center    7 is at   4.029765 -1.486871  0.253143
       Atomic Center    8 is at   1.700422  2.136100  0.191683
       Atomic Center    9 is at   0.270300  2.086561 -0.327274
       Atomic Center   10 is at  -0.410305  0.806002  0.140584
       Atomic Center   11 is at   0.364741 -0.389830 -0.434664
       Atomic Center   12 is at  -1.856611  0.743563 -0.323795
       Atomic Center   13 is at  -2.560643 -0.568309  0.052794
       Atomic Center   14 is at  -1.825157 -1.716235 -0.630136
       Atomic Center   15 is at  -0.354955 -1.725907 -0.205257
       Atomic Center   16 is at  -2.830042  1.808532  0.173811
       Atomic Center   17 is at  -4.200693  1.218417 -0.198472
       Atomic Center   18 is at  -3.973029 -0.280976 -0.498805
       Atomic Center   19 is at  -2.653846 -0.819783  1.562551
       Atomic Center   20 is at  -5.007745 -1.052531  0.071926
       Atomic Center   21 is at   4.319333  1.937578 -0.201302
       Atomic Center   22 is at   1.670649 -0.584746  1.256029
       Atomic Center   23 is at   2.768431 -1.369091 -1.482780
       Atomic Center   24 is at   2.208446 -2.496767 -0.241794
       Atomic Center   25 is at   3.919526 -1.648820  1.331825
       Atomic Center   26 is at   4.680576 -2.271094 -0.142545
       Atomic Center   27 is at   2.236616  3.007156 -0.182988
       Atomic Center   28 is at   1.639771  2.259536  1.313299
       Atomic Center   29 is at   0.271310  2.129235 -1.419992
       Atomic Center   30 is at  -0.278009  2.953383  0.035702
       Atomic Center   31 is at  -0.364613  0.781463  1.232784
       Atomic Center   32 is at   0.461429 -0.237225 -1.515925
       Atomic Center   33 is at  -1.852817  0.794803 -1.419771
       Atomic Center   34 is at  -1.897314 -1.603517 -1.714431
       Atomic Center   35 is at  -2.274821 -2.676157 -0.364731
       Atomic Center   36 is at  -0.291804 -1.992901  0.851464
       Atomic Center   37 is at   0.148246 -2.506748 -0.777648
       Atomic Center   38 is at  -2.666684  2.776585 -0.295263
       Atomic Center   39 is at  -2.729801  1.937032  1.250858
       Atomic Center   40 is at  -4.609212  1.720987 -1.073544
       Atomic Center   41 is at  -4.923049  1.308485  0.611816
       Atomic Center   42 is at  -3.963351 -0.448551 -1.587261
       Atomic Center   43 is at  -3.451614 -0.227270  2.000147
       Atomic Center   44 is at  -2.872696 -1.871187  1.742997
       Atomic Center   45 is at  -1.725959 -0.574471  2.068993
       Atomic Center   46 is at  -4.690854 -1.958812  0.148130
 -----------------------------------------------------------------

              Electrostatic Properties (Atomic Units)

 -----------------------------------------------------------------
    Center     Electric         -------- Electric Field --------
               Potential          X             Y             Z
 -----------------------------------------------------------------
    1 Atom    -14.675861      0.005796     -0.004410      0.000153
    2 Atom    -22.356207      0.103160      0.006141      0.002590
    3 Atom    -14.749150     -0.010454      0.001922      0.000746
    4 Atom    -14.707832      0.014386     -0.001681     -0.001892
    5 Atom    -14.718832     -0.002268     -0.004515     -0.003221
    6 Atom    -14.734194      0.000071     -0.000674      0.000714
    7 Atom    -14.742895      0.001175     -0.000270     -0.002844
    8 Atom    -14.724177     -0.003233      0.003839      0.000931
    9 Atom    -14.732866     -0.002420     -0.002180      0.000185
   10 Atom    -14.730829     -0.001379      0.000200     -0.003810
   11 Atom    -14.725541     -0.001851      0.000616      0.002275
   12 Atom    -14.737669     -0.000276     -0.001056      0.004525
   13 Atom    -14.733134     -0.001387      0.001646     -0.003393
   14 Atom    -14.737036     -0.001325      0.004241      0.001768
   15 Atom    -14.734793     -0.000092      0.000321     -0.001078
   16 Atom    -14.742160      0.001154     -0.000878     -0.000820
   17 Atom    -14.747320     -0.002568     -0.001187      0.001087
   18 Atom    -14.693499      0.019043      0.012073     -0.007840
   19 Atom    -14.747185     -0.000823      0.001893     -0.001598
   20 Atom    -22.314399     -0.102742      0.043973      0.030934
   21 Atom     -1.108165      0.018688      0.032810     -0.003304
   22 Atom     -1.100639     -0.004986     -0.007943      0.032525
   23 Atom     -1.117072      0.002028      0.002426     -0.033193
   24 Atom     -1.117900     -0.014196     -0.029279      0.002943
   25 Atom     -1.106780     -0.000247     -0.007966      0.031493
   26 Atom     -1.118128      0.022236     -0.018578     -0.008611
   27 Atom     -1.105489      0.017061      0.027093     -0.010715
   28 Atom     -1.094508     -0.001321      0.009120      0.015113
   29 Atom     -1.115048     -0.002124      0.002999     -0.033056
   30 Atom     -1.116087     -0.017297      0.028680      0.009631
   31 Atom     -1.114410     -0.000896     -0.001351      0.035065
   32 Atom     -1.115779      0.002526      0.004474     -0.033942
   33 Atom     -1.120741      0.000682      0.001621     -0.034259
   34 Atom     -1.118733     -0.003347      0.001632     -0.033729
   35 Atom     -1.116656     -0.012570     -0.031088      0.004884
   36 Atom     -1.117037      0.003505     -0.011358      0.032310
   37 Atom     -1.119202      0.016143     -0.024496     -0.013681
   38 Atom     -1.124389      0.004845      0.030882     -0.012932
   39 Atom     -1.124119      0.002364      0.005740      0.033914
   40 Atom     -1.128069     -0.015784      0.015368     -0.024808
   41 Atom     -1.127517     -0.024255      0.001368      0.022447
   42 Atom     -1.132948     -0.000650     -0.004608     -0.031337
   43 Atom     -1.120641     -0.026502      0.015152      0.016403
   44 Atom     -1.115124     -0.006938     -0.030900      0.011482
   45 Atom     -1.116050      0.028416      0.005731      0.019522
   46 Atom     -0.997439      0.010060     -0.045902      0.004272
 -----------------------------------------------------------------
 -----------------------------------------------------
    Center         ---- Electric Field Gradient ----
                     XX            YY            ZZ
 -----------------------------------------------------
    1 Atom     -493.287444   -493.208472   -493.957780
    2 Atom    -1217.261596  -1214.615449  -1217.626084
    3 Atom     -493.133091   -493.179964   -493.427416
    4 Atom     -493.205307   -493.284584   -493.892104
    5 Atom     -492.772266   -492.810393   -492.800619
    6 Atom     -492.655712   -492.628786   -492.633240
    7 Atom     -492.728832   -492.744463   -492.760446
    8 Atom     -492.615264   -492.645059   -492.677223
    9 Atom     -492.702687   -492.645804   -492.661751
   10 Atom     -492.786865   -492.808104   -492.805223
   11 Atom     -492.834479   -492.799367   -492.806888
   12 Atom     -492.933050   -492.948702   -492.937023
   13 Atom     -492.953850   -492.955952   -493.000644
   14 Atom     -492.747452   -492.726406   -492.724277
   15 Atom     -492.658077   -492.648371   -492.623502
   16 Atom     -492.683602   -492.634950   -492.622985
   17 Atom     -492.671657   -492.707442   -492.633933
   18 Atom     -492.859421   -492.778413   -492.696436
   19 Atom     -492.563069   -492.595974   -492.621898
   20 Atom    -1214.366882  -1215.698251  -1213.034077
   21 Atom       -1.706337     -1.985967     -1.605518
   22 Atom       -1.624425     -1.630389     -2.019394
   23 Atom       -1.628576     -1.629455     -2.046585
   24 Atom       -1.713516     -1.990490     -1.640677
   25 Atom       -1.607818     -1.612473     -2.020274
   26 Atom       -1.758338     -1.830342     -1.662184
   27 Atom       -1.733800     -1.906482     -1.669623
   28 Atom       -1.578444     -1.583161     -1.922762
   29 Atom       -1.628031     -1.627318     -2.061560
   30 Atom       -1.748575     -1.919542     -1.681759
   31 Atom       -1.645391     -1.643232     -2.073607
   32 Atom       -1.642947     -1.649542     -2.051304
   33 Atom       -1.650873     -1.645566     -2.065339
   34 Atom       -1.633705     -1.635666     -2.062523
   35 Atom       -1.715924     -1.974994     -1.660791
   36 Atom       -1.633934     -1.656213     -2.042685
   37 Atom       -1.732722     -1.861186     -1.752214
   38 Atom       -1.644511     -1.991575     -1.717677
   39 Atom       -1.636814     -1.638091     -2.070785
   40 Atom       -1.694705     -1.730402     -1.923933
   41 Atom       -1.808782     -1.616462     -1.863152
   42 Atom       -1.676936     -1.685304     -2.073719
   43 Atom       -1.848843     -1.745946     -1.688259
   44 Atom       -1.632109     -2.040792     -1.633927
   45 Atom       -1.959371     -1.640310     -1.720639
   46 Atom       -1.536653     -2.061923     -1.429546
 -----------------------------------------------------
 -----------------------------------------------------
    Center         ---- Electric Field Gradient ----
                     XY            XZ            YZ
 -----------------------------------------------------
    1 Atom       -0.017397      0.029754     -0.102088
    2 Atom       -0.122473      0.046052     -0.403997
    3 Atom       -0.013635     -0.025048     -0.027170
    4 Atom       -0.008881     -0.058457     -0.005633
    5 Atom       -0.024465     -0.010088     -0.002982
    6 Atom        0.029273      0.000126     -0.027262
    7 Atom       -0.007161     -0.031963      0.002441
    8 Atom        0.016800     -0.017077     -0.008897
    9 Atom       -0.006263     -0.018397      0.021835
   10 Atom       -0.001553      0.007806     -0.000487
   11 Atom       -0.009487     -0.013878     -0.008994
   12 Atom        0.009225     -0.010014      0.003998
   13 Atom        0.002032      0.004715      0.006642
   14 Atom       -0.015318     -0.008704     -0.010746
   15 Atom       -0.019402     -0.006948      0.016037
   16 Atom       -0.002597     -0.002350     -0.015072
   17 Atom       -0.013857     -0.023250     -0.036683
   18 Atom       -0.174686      0.132391      0.120045
   19 Atom       -0.014465     -0.004329      0.018895
   20 Atom       -0.215979      0.787825      0.786366
   21 Atom       -0.177516      0.022696      0.045968
   22 Atom       -0.006353      0.042898      0.066576
   23 Atom       -0.003395      0.040736      0.058226
   24 Atom       -0.165224      0.027412      0.059267
   25 Atom       -0.008159      0.043859      0.063587
   26 Atom        0.185508      0.092968     -0.114287
   27 Atom       -0.172635      0.075834      0.124331
   28 Atom        0.005300      0.020416     -0.041335
   29 Atom       -0.002039     -0.001076      0.015965
   30 Atom        0.179085      0.074524     -0.120416
   31 Atom       -0.001393     -0.017216      0.011852
   32 Atom       -0.005484      0.036016      0.058978
   33 Atom       -0.000629      0.002149      0.018868
   34 Atom        0.004671     -0.028826      0.045491
   35 Atom       -0.159986      0.046287      0.093799
   36 Atom        0.003505     -0.026645      0.104549
   37 Atom        0.145481      0.106648     -0.165653
   38 Atom       -0.061504      0.028430      0.174129
   39 Atom       -0.004872     -0.040198     -0.051951
   40 Atom        0.076616     -0.136682      0.166609
   41 Atom        0.026168      0.219656     -0.030509
   42 Atom       -0.004193      0.007821     -0.059966
   43 Atom        0.186273      0.137048     -0.098886
   44 Atom       -0.090730      0.013704      0.070519
   45 Atom       -0.090811     -0.183842     -0.046619
   46 Atom        0.206429      0.001343      0.060915
 -----------------------------------------------------
 -----------------------------------------------------
    Center         ---- Electric Field Gradient ----
                   ----       Eigenvalues       ----
 -----------------------------------------------------
    1 Atom     -493.972520   -493.291025   -493.190153
    2 Atom    -1217.681473  -1217.265480  -1214.556175
    3 Atom     -493.432689   -493.179416   -493.128367
    4 Atom     -493.897110   -493.285343   -493.199541
    5 Atom     -492.824542   -492.799889   -492.758847
    6 Atom     -492.680050   -492.642503   -492.595185
    7 Atom     -492.780380   -492.745852   -492.707510
    8 Atom     -492.682224   -492.652577   -492.602745
    9 Atom     -492.709810   -492.673272   -492.627160
   10 Atom     -492.808252   -492.808054   -492.783886
   11 Atom     -492.843659   -492.803698   -492.793378
   12 Atom     -492.956485   -492.938460   -492.923830
   13 Atom     -493.002008   -492.957005   -492.951433
   14 Atom     -492.760111   -492.724203   -492.713822
   15 Atom     -492.673672   -492.645713   -492.610565
   16 Atom     -492.683916   -492.644872   -492.612749
   17 Atom     -492.730886   -492.668288   -492.613859
   18 Atom     -493.081002   -492.643298   -492.609970
   19 Atom     -492.631982   -492.593245   -492.555714
   20 Atom    -1216.027845  -1214.530596  -1212.540769
   21 Atom       -2.077682     -1.620194     -1.599946
   22 Atom       -2.035050     -1.620394     -1.618763
   23 Atom       -2.058436     -1.625780     -1.620400
   24 Atom       -2.077354     -1.636425     -1.630904
   25 Atom       -2.034617     -1.604440     -1.601507
   26 Atom       -2.040655     -1.606056     -1.604153
   27 Atom       -2.066589     -1.627176     -1.616139
   28 Atom       -1.928968     -1.580570     -1.574830
   29 Atom       -2.062148     -1.629556     -1.625205
   30 Atom       -2.082534     -1.635926     -1.631416
   31 Atom       -2.074620     -1.645875     -1.641735
   32 Atom       -2.062943     -1.641131     -1.639720
   33 Atom       -2.066196     -1.650907     -1.644674
   34 Atom       -2.069269     -1.632992     -1.629634
   35 Atom       -2.077557     -1.639945     -1.634207
   36 Atom       -2.070786     -1.634410     -1.627636
   37 Atom       -2.075897     -1.638072     -1.632153
   38 Atom       -2.086539     -1.634997     -1.632227
   39 Atom       -2.080629     -1.633130     -1.631931
   40 Atom       -2.083053     -1.635230     -1.630756
   41 Atom       -2.060933     -1.614814     -1.612649
   42 Atom       -2.082891     -1.681853     -1.671215
   43 Atom       -2.066174     -1.614275     -1.602599
   44 Atom       -2.071812     -1.622299     -1.612718
   45 Atom       -2.082739     -1.621855     -1.615725
   46 Atom       -2.137950     -1.474272     -1.415899
 -----------------------------------------------------
 -----------------------------------------------------
    Center         ---- Electric Field Gradient ----
                       ( tensor representation )
                   3XX-RR        3YY-RR        3ZZ-RR
 -----------------------------------------------------
    1 Atom        0.197121      0.276093     -0.473215
    2 Atom       -0.760553      1.885594     -1.125041
    3 Atom        0.113733      0.066860     -0.180592
    4 Atom        0.255358      0.176081     -0.431439
    5 Atom        0.022160     -0.015966     -0.006193
    6 Atom       -0.016466      0.010460      0.006006
    7 Atom        0.015748      0.000118     -0.015866
    8 Atom        0.030585      0.000790     -0.031375
    9 Atom       -0.032606      0.024276      0.008330
   10 Atom        0.013199     -0.008040     -0.005159
   11 Atom       -0.020901      0.014211      0.006690
   12 Atom        0.006541     -0.009110      0.002569
   13 Atom        0.016299      0.014196     -0.030495
   14 Atom       -0.014740      0.006306      0.008434
   15 Atom       -0.014761     -0.005054      0.019815
   16 Atom       -0.036423      0.012229      0.024194
   17 Atom       -0.000647     -0.036431      0.037078
   18 Atom       -0.081331     -0.000323      0.081654
   19 Atom        0.030578     -0.002327     -0.028251
   20 Atom       -0.000478     -1.331848      1.332326
   21 Atom        0.059603     -0.220026      0.160423
   22 Atom        0.133644      0.127681     -0.261325
   23 Atom        0.139629      0.138750     -0.278380
   24 Atom        0.068045     -0.208929      0.140884
   25 Atom        0.139037      0.134382     -0.273419
   26 Atom       -0.008050     -0.080054      0.088104
   27 Atom        0.036168     -0.136514      0.100346
   28 Atom        0.116345      0.111628     -0.227973
   29 Atom        0.144272      0.144985     -0.289257
   30 Atom        0.034717     -0.136250      0.101533
   31 Atom        0.142019      0.144178     -0.286197
   32 Atom        0.138317      0.131722     -0.270040
   33 Atom        0.136386      0.141693     -0.278080
   34 Atom        0.143593      0.141632     -0.285225
   35 Atom        0.067979     -0.191091      0.123112
   36 Atom        0.143677      0.121398     -0.265074
   37 Atom        0.049319     -0.079145      0.029826
   38 Atom        0.140077     -0.206987      0.066910
   39 Atom        0.145083      0.143805     -0.288888
   40 Atom        0.088309      0.052612     -0.140920
   41 Atom       -0.045984      0.146337     -0.100353
   42 Atom        0.135050      0.126683     -0.261733
   43 Atom       -0.087827      0.015070      0.072757
   44 Atom        0.136834     -0.271850      0.135016
   45 Atom       -0.185931      0.133130      0.052801
   46 Atom        0.139387     -0.385882      0.246495
 -----------------------------------------------------
 -----------------------------------------------------
    Center         ---- Electric Field Gradient ----
                       ( tensor representation )
                   ----       Eigenvalues       ----
 -----------------------------------------------------
    1 Atom       -0.487954      0.193541      0.294413
    2 Atom       -1.180430     -0.764437      1.944868
    3 Atom       -0.185865      0.067408      0.118457
    4 Atom       -0.436445      0.175322      0.261124
    5 Atom       -0.030116     -0.005463      0.035579
    6 Atom       -0.040804     -0.003257      0.044061
    7 Atom       -0.035800     -0.001271      0.037071
    8 Atom       -0.036375     -0.006729      0.043104
    9 Atom       -0.039730     -0.003191      0.042921
   10 Atom       -0.008188     -0.007990      0.016178
   11 Atom       -0.030081      0.009880      0.020201
   12 Atom       -0.016893      0.001131      0.015762
   13 Atom       -0.031860      0.013144      0.018716
   14 Atom       -0.027399      0.008509      0.018890
   15 Atom       -0.030355     -0.002397      0.032752
   16 Atom       -0.036737      0.002307      0.034430
   17 Atom       -0.059875      0.002723      0.057152
   18 Atom       -0.302912      0.134792      0.168120
   19 Atom       -0.038335      0.000402      0.037933
   20 Atom       -1.661442     -0.164192      1.825634
   21 Atom       -0.311742      0.145747      0.165994
   22 Atom       -0.276981      0.137675      0.139306
   23 Atom       -0.290231      0.142426      0.147805
   24 Atom       -0.295793      0.145136      0.150657
   25 Atom       -0.287762      0.142415      0.145347
   26 Atom       -0.290367      0.144232      0.146135
   27 Atom       -0.296621      0.142792      0.153829
   28 Atom       -0.234178      0.114219      0.119959
   29 Atom       -0.289845      0.142747      0.147098
   30 Atom       -0.299242      0.147366      0.151876
   31 Atom       -0.287210      0.141535      0.145675
   32 Atom       -0.281678      0.140133      0.141545
   33 Atom       -0.278937      0.136352      0.142585
   34 Atom       -0.291971      0.144307      0.147664
   35 Atom       -0.293654      0.143958      0.149696
   36 Atom       -0.293175      0.143200      0.149975
   37 Atom       -0.293856      0.143968      0.149888
   38 Atom       -0.301951      0.149591      0.152361
   39 Atom       -0.298732      0.148766      0.149966
   40 Atom       -0.300040      0.147783      0.152257
   41 Atom       -0.298134      0.147985      0.150149
   42 Atom       -0.270904      0.130133      0.140771
   43 Atom       -0.305158      0.146741      0.158417
   44 Atom       -0.302869      0.146644      0.156225
   45 Atom       -0.309299      0.151585      0.157714
   46 Atom       -0.461910      0.201769      0.260141
 -----------------------------------------------------
 Unable to Open any file for archive entry.
 1\1\GINC-EXP-3-47\SP\RwB97XD\6-31G(d)\C18H26O2\HKLEM\12-Aug-2024\0\\# 
 wb97xd 6-31G(d) prop=efg\\19nt_mm_min_distance_cutoff6_nowat_xtb_ligan
 d_conf_1\\0,1\C,0,43.2454,42.517,31.1243\O,0,42.8751,41.4418,31.6529\C
 ,0,43.1282,43.7702,31.755\C,0,43.3839,44.9579,31.126\C,0,43.9692,44.98
 13,29.7408\C,0,44.7144,43.6712,29.4767\C,0,43.7853,42.493,29.7175\C,0,
 42.9391,46.2125,31.7187\C,0,43.7675,47.4422,31.3743\C,0,44.0438,47.482
 2,29.8763\C,0,44.8456,46.2263,29.5002\C,0,44.8334,48.7225,29.4896\C,0,
 45.2085,48.7656,28.001\C,0,46.0953,47.5626,27.6986\C,0,45.3639,46.2667
 ,28.0561\C,0,44.2019,50.0923,29.7224\C,0,45.1064,51.0285,28.9033\C,0,4
 5.9243,50.1317,27.9457\C,0,44.0052,48.7915,27.0509\O,0,45.9902,50.7224
 ,26.6657\H,0,42.7217,43.7777,32.7565\H,0,43.1161,45.0404,29.0482\H,0,4
 5.575,43.6024,30.147\H,0,45.0792,43.6342,28.4504\H,0,42.9291,42.5584,2
 9.0359\H,0,44.2923,41.5419,29.5345\H,0,42.7828,46.118,32.7926\H,0,41.9
 169,46.3654,31.2619\H,0,44.7114,47.4191,31.926\H,0,43.2305,48.3385,31.
 6777\H,0,43.0815,47.472,29.3572\H,0,45.7112,46.1686,30.1704\H,0,45.776
 ,48.7007,30.0507\H,0,47.0213,47.6368,28.2736\H,0,46.3626,47.5355,26.63
 94\H,0,44.5271,46.1292,27.3685\H,0,46.0613,45.4417,27.9026\H,0,44.1809
 ,50.37,30.7742\H,0,43.1773,50.1027,29.3527\H,0,45.7725,51.5874,29.5584
 \H,0,44.5344,51.7429,28.3126\H,0,46.9478,50.0053,28.3322\H,0,43.5754,4
 9.7876,27.0056\H,0,44.3277,48.5142,26.0484\H,0,43.2317,48.0972,27.3628
 \H,0,46.2137,50.0307,26.0339\\Version=ES64L-G16RevC.01\State=1-A\HF=-8
 51.7846012\RMSD=3.708e-09\Dipole=0.4407446,1.2217139,-0.6388986\Quadru
 pole=10.8137597,-20.2581221,9.4443624,-9.5236856,2.1867412,16.3200103\
 PG=C01 [X(C18H26O2)]\\@
 The archive entry for this job was punched.


 NEVER LISTEN TO CRITICISM
 OR YOU'LL BE DOIN' EVERYBODY ELSE'S THING BUT BUT YOUR OWN.

                                               -- ANDY CAPP
 Job cpu time:       0 days  0 hours 10 minutes 17.7 seconds.
 Elapsed time:       0 days  0 hours  0 minutes 27.1 seconds.
 File lengths (MBytes):  RWF=     71 Int=      0 D2E=      0 Chk=      8 Scr=      1
 Normal termination of Gaussian 16 at Mon Aug 12 07:19:57 2024.
