 Entering Gaussian System, Link 0=g16
 Input=19nt.com
 Output=19nt.log
 Initial command:
 /usr/local/packages/license/gaussian/g16-c01/g16/l1.exe "/work/arkanil/gauss_scratch/Gau-2048859.inp" -scrdir="/work/arkanil/gauss_scratch/"
 Entering Link 1 = /usr/local/packages/license/gaussian/g16-c01/g16/l1.exe PID=   2048866.
  
 Copyright (c) 1988-2019, Gaussian, Inc.  All Rights Reserved.
  
 This is part of the Gaussian(R) 16 program.  It is based on
 the Gaussian(R) 09 system (copyright 2009, Gaussian, Inc.),
 the Gaussian(R) 03 system (copyright 2003, Gaussian, Inc.),
 the Gaussian(R) 98 system (copyright 1998, Gaussian, Inc.),
 the Gaussian(R) 94 system (copyright 1995, Gaussian, Inc.),
 the Gaussian 92(TM) system (copyright 1992, Gaussian, Inc.),
 the Gaussian 90(TM) system (copyright 1990, Gaussian, Inc.),
 the Gaussian 88(TM) system (copyright 1988, Gaussian, Inc.),
 the Gaussian 86(TM) system (copyright 1986, Carnegie Mellon
 University), and the Gaussian 82(TM) system (copyright 1983,
 Carnegie Mellon University). Gaussian is a federally registered
 trademark of Gaussian, Inc.
  
 This software contains proprietary and confidential information,
 including trade secrets, belonging to Gaussian, Inc.
  
 This software is provided under written license and may be
 used, copied, transmitted, or stored only in accord with that
 written license.
  
 The following legend is applicable only to US Government
 contracts under FAR:
  
                    RESTRICTED RIGHTS LEGEND
  
 Use, reproduction and disclosure by the US Government is
 subject to restrictions as set forth in subparagraphs (a)
 and (c) of the Commercial Computer Software - Restricted
 Rights clause in FAR 52.227-19.
  
 Gaussian, Inc.
 340 Quinnipiac St., Bldg. 40, Wallingford CT 06492
  
  
 ---------------------------------------------------------------
 Warning -- This program may not be used in any manner that
 competes with the business of Gaussian, Inc. or will provide
 assistance to any competitor of Gaussian, Inc.  The licensee
 of this program is prohibited from giving any competitor of
 Gaussian, Inc. access to this program.  By using this program,
 the user acknowledges that Gaussian, Inc. is engaged in the
 business of creating and licensing software in the field of
 computational chemistry and represents and warrants to the
 licensee that it is not a competitor of Gaussian, Inc. and that
 it will not use this program in any manner prohibited above.
 ---------------------------------------------------------------
  

 Cite this work as:
 Gaussian 16, Revision C.01,
 M. J. Frisch, G. W. Trucks, H. B. Schlegel, G. E. Scuseria, 
 M. A. Robb, J. R. Cheeseman, G. Scalmani, V. Barone, 
 G. A. Petersson, H. Nakatsuji, X. Li, M. Caricato, A. V. Marenich, 
 J. Bloino, B. G. Janesko, R. Gomperts, B. Mennucci, H. P. Hratchian, 
 J. V. Ortiz, A. F. Izmaylov, J. L. Sonnenberg, D. Williams-Young, 
 F. Ding, F. Lipparini, F. Egidi, J. Goings, B. Peng, A. Petrone, 
 T. Henderson, D. Ranasinghe, V. G. Zakrzewski, J. Gao, N. Rega, 
 G. Zheng, W. Liang, M. Hada, M. Ehara, K. Toyota, R. Fukuda, 
 J. Hasegawa, M. Ishida, T. Nakajima, Y. Honda, O. Kitao, H. Nakai, 
 T. Vreven, K. Throssell, J. A. Montgomery, Jr., J. E. Peralta, 
 F. Ogliaro, M. J. Bearpark, J. J. Heyd, E. N. Brothers, K. N. Kudin, 
 V. N. Staroverov, T. A. Keith, R. Kobayashi, J. Normand, 
 K. Raghavachari, A. P. Rendell, J. C. Burant, S. S. Iyengar, 
 J. Tomasi, M. Cossi, J. M. Millam, M. Klene, C. Adamo, R. Cammi, 
 J. W. Ochterski, R. L. Martin, K. Morokuma, O. Farkas, 
 J. B. Foresman, and D. J. Fox, Gaussian, Inc., Wallingford CT, 2019.
 
 ******************************************
 Gaussian 16:  ES64L-G16RevC.01  3-Jul-2019
                18-May-2026 
 ******************************************
 %chk=19NT_md_min_distance_cutoff6.chk
 %nprocshared=64
 Will use up to   64 processors via shared memory.
 %mem=200GB
 --------------------------
 # wb97xd/6-31g(d) prop=efg
 --------------------------
 1/38=1,172=1/1;
 2/12=2,17=6,18=5,40=1/2;
 3/5=1,6=6,7=1,11=2,25=1,30=1,74=-58/1,2,3;
 4//1;
 5/5=2,38=5/2;
 6/7=2,8=2,9=2,10=2,14=1,28=1/1,2;
 99/5=1,9=1/99;
 ----------------------------
 19NT_md_min_distance_cutoff6
 ----------------------------
 Symbolic Z-matrix:
 Charge =  0 Multiplicity = 1
 C                    0     4.01964   0.52727   0.79476 
 O                    0     5.23255   0.83408   0.82469 
 C                    0     3.32387   0.13055   1.97605 
 C                    0     2.084    -0.42058   1.90581 
 C                    0     1.28093  -0.43855   0.62633 
 C                    0     1.80003   0.60864  -0.36003 
 C                    0     3.30761   0.48317  -0.52964 
 C                    0     1.55862  -1.15585   3.094 
 C                    0     0.04403  -1.11508   3.2445 
 C                    0    -0.64639  -1.41112   1.91612 
 C                    0    -0.23864  -0.33839   0.88794 
 C                    0    -2.15545  -1.47975   2.0601 
 C                    0    -2.90514  -1.71716   0.73416 
 C                    0    -2.56139  -0.55901  -0.20945 
 C                    0    -1.04432  -0.42857  -0.42098 
 C                    0    -2.76153  -2.51436   3.01497 
 C                    0    -4.25231  -2.54779   2.60192 
 C                    0    -4.3439   -1.7145    1.29848 
 C                    0    -2.58311  -3.06974   0.07133 
 O                    0    -5.36511  -2.15693   0.41471 
 H                    0     3.89508   0.1237    2.90092 
 H                    0     1.45021  -1.44385   0.19939 
 H                    0     1.55054   1.61583   0.0024 
 H                    0     1.31797   0.48889  -1.33347 
 H                    0     3.54726  -0.49141  -0.98251 
 H                    0     3.72171   1.25612  -1.18572 
 H                    0     2.05714  -0.80349   4.0025 
 H                    0     1.88789  -2.19902   2.95614 
 H                    0    -0.27072  -0.12626   3.60069 
 H                    0    -0.25784  -1.82838   4.01744 
 H                    0    -0.27653  -2.37232   1.53941 
 H                    0    -0.441     0.64344   1.34411 
 H                    0    -2.48235  -0.49033   2.42174 
 H                    0    -2.96134   0.37417   0.20512 
 H                    0    -3.04128  -0.68173  -1.18775 
 H                    0    -0.677    -1.27999  -1.01042 
 H                    0    -0.86045   0.46652  -1.02747 
 H                    0    -2.61454  -2.26798   4.06882 
 H                    0    -2.31003  -3.50191   2.85738 
 H                    0    -4.9058   -2.13265   3.37546 
 H                    0    -4.58036  -3.57643   2.41952 
 H                    0    -4.60129  -0.67699   1.53653 
 H                    0    -2.94183  -3.93754   0.63483 
 H                    0    -3.05124  -3.12003  -0.91793 
 H                    0    -1.50868  -3.20876  -0.08436 
 H                    0    -5.57751  -3.09957   0.58869 
 
                          Input orientation:                          
 ---------------------------------------------------------------------
 Center     Atomic      Atomic             Coordinates (Angstroms)
 Number     Number       Type             X           Y           Z
 ---------------------------------------------------------------------
      1          6           0        4.019635    0.527268    0.794760
      2          8           0        5.232554    0.834078    0.824692
      3          6           0        3.323872    0.130553    1.976052
      4          6           0        2.084000   -0.420581    1.905814
      5          6           0        1.280928   -0.438551    0.626331
      6          6           0        1.800026    0.608636   -0.360029
      7          6           0        3.307608    0.483167   -0.529641
      8          6           0        1.558622   -1.155846    3.093997
      9          6           0        0.044026   -1.115079    3.244500
     10          6           0       -0.646387   -1.411123    1.916115
     11          6           0       -0.238642   -0.338388    0.887935
     12          6           0       -2.155449   -1.479749    2.060099
     13          6           0       -2.905140   -1.717157    0.734164
     14          6           0       -2.561394   -0.559013   -0.209448
     15          6           0       -1.044322   -0.428570   -0.420979
     16          6           0       -2.761531   -2.514357    3.014967
     17          6           0       -4.252314   -2.547787    2.601922
     18          6           0       -4.343900   -1.714497    1.298477
     19          6           0       -2.583109   -3.069737    0.071327
     20          8           0       -5.365110   -2.156934    0.414708
     21          1           0        3.895082    0.123696    2.900916
     22          1           0        1.450207   -1.443851    0.199393
     23          1           0        1.550540    1.615827    0.002400
     24          1           0        1.317971    0.488894   -1.333467
     25          1           0        3.547260   -0.491409   -0.982508
     26          1           0        3.721711    1.256115   -1.185719
     27          1           0        2.057142   -0.803489    4.002502
     28          1           0        1.887893   -2.199017    2.956144
     29          1           0       -0.270724   -0.126263    3.600685
     30          1           0       -0.257840   -1.828377    4.017436
     31          1           0       -0.276528   -2.372322    1.539412
     32          1           0       -0.440998    0.643440    1.344112
     33          1           0       -2.482349   -0.490326    2.421743
     34          1           0       -2.961335    0.374165    0.205117
     35          1           0       -3.041280   -0.681725   -1.187745
     36          1           0       -0.676997   -1.279990   -1.010422
     37          1           0       -0.860450    0.466519   -1.027473
     38          1           0       -2.614536   -2.267984    4.068821
     39          1           0       -2.310032   -3.501910    2.857384
     40          1           0       -4.905795   -2.132654    3.375456
     41          1           0       -4.580363   -3.576432    2.419518
     42          1           0       -4.601291   -0.676993    1.536528
     43          1           0       -2.941834   -3.937544    0.634830
     44          1           0       -3.051244   -3.120031   -0.917933
     45          1           0       -1.508677   -3.208761   -0.084360
     46          1           0       -5.577509   -3.099568    0.588689
 ---------------------------------------------------------------------
                    Distance matrix (angstroms):
                    1          2          3          4          5
     1  C    0.000000
     2  O    1.251479   0.000000
     3  C    1.427207   2.337444   0.000000
     4  C    2.424777   3.557582   1.358663   0.000000
     5  C    2.908899   4.156234   2.513811   1.510736   0.000000
     6  C    2.503362   3.638219   2.829831   2.504790   1.529369
     7  C    1.504316   2.379658   2.530434   2.871484   2.508639
     8  C    3.765096   4.754715   2.453718   1.492788   2.584763
     9  C    4.950151   6.047769   3.730677   2.536908   2.973622
    10  C    5.175573   6.387024   4.259497   2.904530   2.514753
    11  C    4.346374   5.595772   3.754385   2.537223   1.545174
    12  C    6.615199   7.839810   5.711663   4.372479   3.866325
    13  C    7.279672   8.528720   6.614900   5.286340   4.378313
    14  C    6.745249   7.984721   6.315716   5.106191   3.934015
    15  C    5.294838   6.522664   5.013930   3.898773   2.550244
    16  C    7.756611   8.939503   6.716176   5.393820   5.133812
    17  C    9.008160  10.225374   8.060013   6.720003   6.242484
    18  C    8.673405   9.921098   7.915683   6.584905   5.806764
    19  C    7.553676   8.768804   6.982998   5.671444   4.707648
    20  O    9.768460  11.019289   9.119693   7.792789   6.867856
    21  H    2.148087   2.569860   1.087061   2.136933   3.510507
    22  H    3.292679   4.459384   3.024217   2.088216   1.105242
    23  H    2.812334   3.852859   3.040731   2.838049   2.163897
    24  H    3.439449   4.483387   3.886510   3.450636   2.168487
    25  H    2.102266   2.804123   3.031471   3.238603   2.779823
    26  H    2.131261   2.550003   3.379639   3.879560   3.480351
    27  H    3.988973   4.781563   2.565841   2.131535   3.483421
    28  H    4.080262   4.992946   2.906805   2.074725   2.982562
    29  H    5.167930   6.238146   3.953038   2.916151   3.369262
    30  H    5.850769   6.886705   4.564353   3.453267   3.974798
    31  H    5.236329   6.414188   4.406577   3.084742   2.645535
    32  H    4.495835   5.700468   3.851837   2.797010   2.156605
    33  H    6.779260   7.989014   5.856307   4.595932   4.169945
    34  H    7.007500   8.230140   6.534477   5.383252   4.339899
    35  H    7.432934   8.648924   7.154339   5.992228   4.693771
    36  H    5.346327   6.539092   5.188026   4.106838   2.687090
    37  H    5.209554   6.378896   5.161646   4.249812   2.853019
    38  H    7.908548   9.040132   6.737756   5.492517   5.511098
    39  H    7.781605   8.934385   6.761095   5.450467   5.220801
    40  H    9.664289  10.867107   8.649154   7.344949   6.978769
    41  H    9.666445  10.876093   8.741586   7.391686   6.885968
    42  H    8.736179   9.974696   7.978316   6.700391   5.956997
    43  H    8.271770   9.467050   7.589951   6.264458   5.484044
    44  H    8.138393   9.343074   7.719038   6.452233   5.323796
    45  H    6.730007   7.912972   6.224937   4.964078   3.995127
    46  H   10.261656  11.505943   9.570425   8.222561   7.356670
                    6          7          8          9         10
     6  C    0.000000
     7  C    1.522273   0.000000
     8  C    3.886125   4.344660   0.000000
     9  C    4.364328   5.239227   1.522601   0.000000
    10  C    3.904510   5.020372   2.512894   1.526080   0.000000
    11  C    2.571077   3.906452   2.960592   2.497308   1.540834
    12  C    5.085681   6.356476   3.868873   2.524575   1.517468
    13  C    5.361451   6.710951   5.080261   3.919421   2.567612
    14  C    4.517528   5.969409   5.314460   4.362016   2.985190
    15  C    3.028172   4.447737   4.433881   3.884782   2.566276
    16  C    6.476997   7.640932   4.529406   3.143535   2.626487
    17  C    7.440899   8.726155   5.995550   4.574286   3.842531
    18  C    6.774616   8.168067   6.194816   4.837376   3.760999
    19  C    5.738325   6.905421   5.472974   4.559776   3.147242
    20  O    7.719311   9.114712   7.491250   6.192894   5.007674
    21  H    3.906173   3.499009   2.670871   4.059956   4.893919
    22  H    2.155929   2.773955   2.910916   3.370180   2.709965
    23  H    1.099105   2.157145   4.152133   4.498738   4.201335
    24  H    1.092839   2.145885   4.729220   5.015321   4.246004
    25  H    2.156480   1.101054   4.584108   5.525324   5.180209
    26  H    2.189490   1.095157   5.367726   6.226939   5.984631
    27  H    4.592590   4.874369   1.094559   2.173544   3.468616
    28  H    4.345991   4.621731   1.102555   2.158221   2.850441
    29  H    4.529386   5.498678   2.159463   1.097129   2.151689
    30  H    5.416276   6.223469   2.145827   1.094234   2.177296
    31  H    4.099520   5.028004   2.695241   2.142601   1.096633
    32  H    2.815581   4.193887   3.209051   2.634219   2.142569
    33  H    5.223477   6.571298   4.150216   2.729435   2.115250
    34  H    4.800513   6.312796   5.578223   4.526355   3.387293
    35  H    5.078227   6.488332   6.302159   5.417721   3.987666
    36  H    3.182069   4.383714   4.675431   4.318730   2.929633
    37  H    2.746600   4.197716   5.046830   4.644274   3.498010
    38  H    6.883169   7.986643   4.427458   3.012747   3.040060
    39  H    6.643863   7.675328   4.530616   3.374672   2.832859
    40  H    8.150862   9.463207   6.543857   5.055031   4.559917
    41  H    8.120963   9.348688   6.633347   5.303190   4.518644
    42  H    6.799017   8.256253   6.371777   4.968708   4.040334
    43  H    6.644000   7.743010   5.834334   4.867448   3.646035
    44  H    6.144024   7.319071   6.419071   5.561149   4.090908
    45  H    5.059252   6.084834   4.870804   4.227966   2.824349
    46  H    8.311370   9.645307   7.808904   6.526345   5.378557
                   11         12         13         14         15
    11  C    0.000000
    12  C    2.520084   0.000000
    13  C    3.005805   1.541591   0.000000
    14  C    2.578391   2.482618   1.532926   0.000000
    15  C    1.539646   2.914675   2.541152   1.537292   0.000000
    16  C    3.952730   1.532815   2.420375   3.776278   4.370931
    17  C    4.891703   2.414771   2.448131   3.836435   4.890831
    18  C    4.349180   2.329054   1.545473   2.605054   3.936668
    19  C    3.691022   2.581893   1.540302   2.526468   3.096126
    20  O    5.460012   3.669852   2.519307   3.286905   4.728089
    21  H    4.620962   6.315610   7.370656   7.199065   5.978101
    22  H    2.132686   4.057619   4.396558   4.128321   2.763753
    23  H    2.793618   5.248911   5.612250   4.656480   3.330483
    24  H    2.835854   5.239894   5.193883   4.172649   2.693474
    25  H    4.225521   6.538743   6.788438   6.157747   4.626218
    26  H    4.746249   7.249917   7.512753   6.612504   5.112540
    27  H    3.897111   4.687876   6.011744   6.255491   5.415425
    28  H    3.501654   4.203434   5.304955   5.701468   4.810128
    29  H    2.721220   2.785232   4.205714   4.466716   4.106534
    30  H    3.466152   2.748387   4.219057   4.978373   4.719909
    31  H    2.136058   2.144329   2.826175   3.401061   2.865452
    32  H    1.101377   2.821331   3.466475   2.890592   2.151453
    33  H    2.722108   1.102999   2.128800   2.633274   3.186346
    34  H    2.896037   2.743612   2.157933   1.096649   2.170557
    35  H    3.504441   3.459773   2.187324   1.096546   2.154033
    36  H    2.163915   3.413770   2.863445   2.170788   1.098766
    37  H    2.168711   3.872736   3.471680   2.148044   1.096735
    38  H    4.414323   2.206137   3.392315   4.607276   5.099737
    39  H    4.263479   2.179150   2.836822   4.257850   4.668523
    40  H    5.584753   3.117828   3.339413   4.563343   5.676953
    41  H    5.628607   3.225751   3.017233   4.482468   5.520964
    42  H    4.423577   2.626916   2.145380   2.687663   4.067625
    43  H    4.508351   2.947974   2.222911   3.503143   4.126522
    44  H    4.348497   3.515914   2.172286   2.701984   3.393915
    45  H    3.285938   2.829576   2.201130   2.853949   2.838732
    46  H    6.018070   4.061940   3.012271   4.023480   5.357560
                   16         17         18         19         20
    16  C    0.000000
    17  C    1.547307   0.000000
    18  C    2.467794   1.549751   0.000000
    19  C    3.000883   3.076132   2.538298   0.000000
    20  O    3.696988   2.484952   1.421150   2.947991   0.000000
    21  H    7.161203   8.579410   8.592298   7.757032   9.855641
    22  H    5.178048   6.285664   5.903635   4.350580   6.855902
    23  H    6.687895   7.600415   6.893134   6.248705   7.888595
    24  H    6.676131   7.465708   6.621091   5.464039   7.397303
    25  H    7.737763   8.826675   8.304772   6.733481   9.173687
    26  H    8.596200   9.612542   8.947058   7.748801   9.837712
    27  H    5.207869   6.694284   7.008211   6.490142   8.354275
    28  H    4.660477   6.160297   6.466673   5.391677   7.685488
    29  H    3.500025   4.765959   4.940993   5.144660   6.342463
    30  H    2.782801   4.298494   4.909337   4.745485   6.258738
    31  H    2.893558   4.119052   4.127263   2.821698   5.215843
    32  H    4.260084   5.127587   4.560109   4.471723   5.740450
    33  H    2.127571   2.719997   2.495134   3.491127   3.887941
    34  H    4.034692   3.993633   2.733026   3.467191   3.496931
    35  H    4.593429   4.394356   2.990775   2.738208   3.185009
    36  H    4.698159   5.238247   4.354996   2.829600   4.977794
    37  H    5.370387   5.810619   4.722425   4.084118   5.408729
    38  H    1.092207   2.216393   3.312379   4.077224   4.574990
    39  H    1.097244   2.179007   3.124365   2.832571   4.136318
    40  H    2.207604   1.094407   2.191899   4.146114   2.996262
    41  H    2.188770   1.094988   2.186195   3.124062   2.578772
    42  H    2.991054   2.180990   1.095141   3.456168   2.008015
    43  H    2.779033   2.741940   2.710748   1.095129   3.015177
    44  H    3.989797   3.762899   2.925570   1.095589   2.838567
    45  H    3.414333   3.896221   3.490495   1.094518   4.028335
    46  H    3.762849   2.472592   1.985954   3.038912   0.981805
                   21         22         23         24         25
    21  H    0.000000
    22  H    3.966465   0.000000
    23  H    4.015561   3.067654   0.000000
    24  H    4.970399   2.470354   1.763124   0.000000
    25  H    3.947191   2.588758   3.065514   2.460467   0.000000
    26  H    4.244174   3.790525   2.501000   2.527533   1.767928
    27  H    2.334778   3.904110   4.702186   5.539783   5.212309
    28  H    3.070318   2.891629   4.836470   5.094157   4.602435
    29  H    4.231559   4.033166   4.393124   5.219983   5.976286
    30  H    4.722708   4.200326   5.590465   6.040289   6.423839
    31  H    5.048379   2.374726   4.648216   4.356882   4.951694
    32  H    4.636309   3.040365   2.590743   3.207380   4.754708
    33  H    6.424816   4.616605   5.152989   5.431658   6.924241
    34  H    7.371602   4.771469   4.683998   4.548941   6.672442
    35  H    8.091908   4.762189   5.270674   4.516044   6.594483
    36  H    6.178414   2.452652   3.791238   2.685741   4.297323
    37  H    6.177771   3.239421   2.862590   2.199921   4.510826
    38  H    7.032728   5.672196   6.997687   7.228396   8.163325
    39  H    7.186818   5.043800   7.017562   6.830238   7.623369
    40  H    9.097898   7.138668   8.192245   8.232966   9.650890
    41  H    9.260446   6.770866   8.389874   8.087157   9.335384
    42  H    8.642396   6.244728   6.742077   6.680855   8.531053
    43  H    8.268751   5.069333   7.170866   6.450852   7.523295
    44  H    8.564859   4.931638   6.667217   5.682169   7.103103
    45  H    7.015537   3.456938   5.713404   4.819010   5.809748
    46  H   10.269655   7.230611   8.566666   8.007458   9.619385
                   26         27         28         29         30
    26  H    0.000000
    27  H    5.824980   0.000000
    28  H    5.697004   1.752429   0.000000
    29  H    6.384369   2.457448   3.061269   0.000000
    30  H    7.240424   2.531750   2.422372   1.752438   0.000000
    31  H    6.047959   3.738190   2.592659   3.048551   2.537091
    32  H    4.909538   3.924455   4.012723   2.390305   3.645557
    33  H    7.386081   4.817037   4.722735   2.532535   3.047139
    34  H    6.882976   6.402508   6.140393   4.361158   5.166609
    35  H    7.035146   7.276496   6.615946   5.559998   6.013007
    36  H    5.080471   5.729919   4.812163   4.770582   5.075015
    37  H    4.652387   5.951967   5.525186   4.703086   5.575015
    38  H    8.954188   4.896296   4.638391   3.209295   2.397897
    39  H    8.681440   5.259751   4.396573   4.013261   2.891008
    40  H   10.330631   7.116344   6.806939   5.055711   4.701937
    41  H   10.260394   7.365563   6.635026   5.645512   4.928818
    42  H    8.967714   7.101532   6.814791   4.828857   5.132851
    43  H    8.642414   6.793620   5.633581   5.518785   4.805667
    44  H    8.068165   7.461411   6.344432   6.091949   5.816300
    45  H    6.964558   5.933198   4.669147   4.961238   4.504973
    46  H   10.420940   8.672600   7.883404   6.787830   6.455316
                   31         32         33         34         35
    31  H    0.000000
    32  H    3.026551   0.000000
    33  H    3.030852   2.571736   0.000000
    34  H    4.065922   2.778834   2.426974   0.000000
    35  H    4.235488   3.863655   3.657518   1.749674   0.000000
    36  H    2.802716   3.049444   3.957603   3.071150   2.445240
    37  H    3.871548   2.414882   3.929784   2.437524   2.469852
    38  H    3.446023   4.541442   2.427016   4.693552   5.507251
    39  H    2.673604   4.792411   3.047805   4.741590   4.985101
    40  H    4.985841   5.636264   3.078945   4.485099   5.138523
    41  H    4.554938   6.008174   3.731718   4.809578   4.874469
    42  H    4.645183   4.369051   2.303989   2.359458   3.139318
    43  H    3.220566   5.267132   3.909923   4.333113   3.732563
    44  H    3.781093   5.108223   4.288639   3.671339   2.453209
    45  H    2.203283   4.244988   3.823412   3.877031   3.154717
    46  H    5.434442   6.400353   4.443900   4.365583   3.928631
                   36         37         38         39         40
    36  H    0.000000
    37  H    1.756200   0.000000
    38  H    5.525296   6.043719   0.000000
    39  H    4.750122   5.739497   1.755812   0.000000
    40  H    6.151885   6.519686   2.397694   2.980142   0.000000
    41  H    5.681056   6.485750   2.880401   2.313370   1.761879
    42  H    4.717059   4.677137   3.590398   3.869714   2.365022
    43  H    3.859914   5.146958   3.832342   2.351318   3.824369
    44  H    3.005221   4.204155   5.077836   3.866296   4.779902
    45  H    2.295526   3.849330   4.399647   3.062999   4.966764
    46  H    5.466538   6.130220   4.645650   3.998157   3.025259
                   41         42         43         44         45
    41  H    0.000000
    42  H    3.030983   0.000000
    43  H    2.449549   3.768030   0.000000
    44  H    3.699336   3.794135   1.758230   0.000000
    45  H    3.979930   4.312933   1.761334   1.755628   0.000000
    46  H    2.138606   2.778537   2.766065   2.941487   4.125568
                   46
    46  H    0.000000
 Stoichiometry    C18H26O2
 Framework group  C1[X(C18H26O2)]
 Deg. of freedom   132
 Full point group                 C1      NOp   1
 Largest Abelian subgroup         C1      NOp   1
 Largest concise Abelian subgroup C1      NOp   1
                         Standard orientation:                         
 ---------------------------------------------------------------------
 Center     Atomic      Atomic             Coordinates (Angstroms)
 Number     Number       Type             X           Y           Z
 ---------------------------------------------------------------------
      1          6           0        4.690050   -0.127857    0.043121
      2          8           0        5.933836   -0.006208    0.109444
      3          6           0        3.841568    1.003896   -0.146971
      4          6           0        2.496051    0.904133    0.013017
      5          6           0        1.799425   -0.426999    0.171522
      6          6           0        2.679148   -1.568990   -0.339273
      7          6           0        4.073536   -1.481941    0.265224
      8          6           0        1.699676    2.155829    0.178725
      9          6           0        0.272498    2.071801   -0.345122
     10          6           0       -0.404213    0.783218    0.113718
     11          6           0        0.380653   -0.421339   -0.440538
     12          6           0       -1.860913    0.722509   -0.307053
     13          6           0       -2.574992   -0.587636    0.080396
     14          6           0       -1.827765   -1.743111   -0.595172
     15          6           0       -0.340036   -1.761950   -0.208421
     16          6           0       -2.817165    1.818688    0.176159
     17          6           0       -4.215454    1.219851   -0.107281
     18          6           0       -3.964850   -0.255946   -0.508470
     19          6           0       -2.669020   -0.818531    1.600388
     20          8           0       -5.025151   -1.129198   -0.143970
     21          1           0        4.329971    1.969979   -0.246198
     22          1           0        1.659762   -0.545945    1.261433
     23          1           0        2.747028   -1.523581   -1.435340
     24          1           0        2.237025   -2.535384   -0.084504
     25          1           0        4.011666   -1.623623    1.355370
     26          1           0        4.748285   -2.251761   -0.123955
     27          1           0        2.235491    3.001497   -0.263778
     28          1           0        1.683667    2.345584    1.264710
     29          1           0        0.273103    2.106734   -1.441695
     30          1           0       -0.283237    2.953521   -0.011843
     31          1           0       -0.342746    0.729342    1.207301
     32          1           0        0.479940   -0.273063   -1.527362
     33          1           0       -1.871894    0.760751   -1.409335
     34          1           0       -1.928697   -1.650053   -1.683194
     35          1           0       -2.268529   -2.713050   -0.335636
     36          1           0       -0.234344   -2.048026    0.847172
     37          1           0        0.153546   -2.549529   -0.790594
     38          1           0       -2.655546    2.780548   -0.315389
     39          1           0       -2.698691    1.992507    1.253051
     40          1           0       -4.741597    1.755247   -0.903681
     41          1           0       -4.845977    1.269138    0.786592
     42          1           0       -3.888055   -0.338311   -1.597805
     43          1           0       -3.316885   -0.104184    2.119317
     44          1           0       -3.074846   -1.816278    1.800689
     45          1           0       -1.689313   -0.776668    2.086589
     46          1           0       -5.537801   -0.745900    0.600485
 ---------------------------------------------------------------------
 Rotational constants (GHZ):           0.9265280           0.1741976           0.1543077
 Standard basis: 6-31G(d) (6D, 7F)
 There are   352 symmetry adapted cartesian basis functions of A   symmetry.
 There are   352 symmetry adapted basis functions of A   symmetry.
   352 basis functions,   664 primitive gaussians,   352 cartesian basis functions
    75 alpha electrons       75 beta electrons
       nuclear repulsion energy      1662.2812610875 Hartrees.
 NAtoms=   46 NActive=   46 NUniq=   46 SFac= 1.00D+00 NAtFMM=   60 NAOKFM=F Big=F
 Integral buffers will be    131072 words long.
 Raffenetti 2 integral format.
 Two-electron integral symmetry is turned on.
 Nuclear repulsion after empirical dispersion term =     1662.2326622579 Hartrees.
 One-electron integrals computed using PRISM.
 NBasis=   352 RedAO= T EigKep=  1.28D-03  NBF=   352
 NBsUse=   352 1.00D-06 EigRej= -1.00D+00 NBFU=   352
 ExpMin= 1.61D-01 ExpMax= 5.48D+03 ExpMxC= 8.25D+02 IAcc=3 IRadAn=         5 AccDes= 0.00D+00
 Harris functional with IExCor= 4639 and IRadAn=       5 diagonalized for initial guess.
 HarFok:  IExCor= 4639 AccDes= 0.00D+00 IRadAn=         5 IDoV= 1 UseB2=F ITyADJ=14
 ICtDFT=  3500011 ScaDFX=  1.000000  1.000000  1.000000  1.000000
 FoFCou: FMM=F IPFlag=           0 FMFlag=      100000 FMFlg1=           0
         NFxFlg=           0 DoJE=T BraDBF=F KetDBF=T FulRan=T
         wScrn=  0.000000 ICntrl=       500 IOpCl=  0 I1Cent=   200000004 NGrid=           0
         NMat0=    1 NMatS0=      1 NMatT0=    0 NMatD0=    1 NMtDS0=    0 NMtDT0=    0
 Petite list used in FoFCou.
 Requested convergence on RMS density matrix=1.00D-08 within 128 cycles.
 Requested convergence on MAX density matrix=1.00D-06.
 Requested convergence on             energy=1.00D-06.
 No special actions if energy rises.
 Integral accuracy reduced to 1.0D-05 until final iterations.
 Initial convergence to 1.0D-05 achieved.  Increase integral accuracy.
 SCF Done:  E(RwB97XD) =  -851.789211857     A.U. after   15 cycles
            NFock= 15  Conv=0.73D-08     -V/T= 2.0093

 **********************************************************************

            Population analysis using the SCF Density.

 **********************************************************************

 Orbital symmetries:
       Occupied  (A) (A) (A) (A) (A) (A) (A) (A) (A) (A) (A) (A)
                 (A) (A) (A) (A) (A) (A) (A) (A) (A) (A) (A) (A)
                 (A) (A) (A) (A) (A) (A) (A) (A) (A) (A) (A) (A)
                 (A) (A) (A) (A) (A) (A) (A) (A) (A) (A) (A) (A)
                 (A) (A) (A) (A) (A) (A) (A) (A) (A) (A) (A) (A)
                 (A) (A) (A) (A) (A) (A) (A) (A) (A) (A) (A) (A)
                 (A) (A) (A)
       Virtual   (A) (A) (A) (A) (A) (A) (A) (A) (A) (A) (A) (A)
                 (A) (A) (A) (A) (A) (A) (A) (A) (A) (A) (A) (A)
                 (A) (A) (A) (A) (A) (A) (A) (A) (A) (A) (A) (A)
                 (A) (A) (A) (A) (A) (A) (A) (A) (A) (A) (A) (A)
                 (A) (A) (A) (A) (A) (A) (A) (A) (A) (A) (A) (A)
                 (A) (A) (A) (A) (A) (A) (A) (A) (A) (A) (A) (A)
                 (A) (A) (A) (A) (A) (A) (A) (A) (A) (A) (A) (A)
                 (A) (A) (A) (A) (A) (A) (A) (A) (A) (A) (A) (A)
                 (A) (A) (A) (A) (A) (A) (A) (A) (A) (A) (A) (A)
                 (A) (A) (A) (A) (A) (A) (A) (A) (A) (A) (A) (A)
                 (A) (A) (A) (A) (A) (A) (A) (A) (A) (A) (A) (A)
                 (A) (A) (A) (A) (A) (A) (A) (A) (A) (A) (A) (A)
                 (A) (A) (A) (A) (A) (A) (A) (A) (A) (A) (A) (A)
                 (A) (A) (A) (A) (A) (A) (A) (A) (A) (A) (A) (A)
                 (A) (A) (A) (A) (A) (A) (A) (A) (A) (A) (A) (A)
                 (A) (A) (A) (A) (A) (A) (A) (A) (A) (A) (A) (A)
                 (A) (A) (A) (A) (A) (A) (A) (A) (A) (A) (A) (A)
                 (A) (A) (A) (A) (A) (A) (A) (A) (A) (A) (A) (A)
                 (A) (A) (A) (A) (A) (A) (A) (A) (A) (A) (A) (A)
                 (A) (A) (A) (A) (A) (A) (A) (A) (A) (A) (A) (A)
                 (A) (A) (A) (A) (A) (A) (A) (A) (A) (A) (A) (A)
                 (A) (A) (A) (A) (A) (A) (A) (A) (A) (A) (A) (A)
                 (A) (A) (A) (A) (A) (A) (A) (A) (A) (A) (A) (A)
                 (A)
 The electronic state is 1-A.
 Alpha  occ. eigenvalues --  -19.26618 -19.23095 -10.36543 -10.34362 -10.33103
 Alpha  occ. eigenvalues --  -10.31694 -10.30826 -10.30792 -10.30322 -10.30247
 Alpha  occ. eigenvalues --  -10.30140 -10.30104 -10.30071 -10.29924 -10.29861
 Alpha  occ. eigenvalues --  -10.29775 -10.29502 -10.29213 -10.29203 -10.28945
 Alpha  occ. eigenvalues --   -1.11411  -1.09812  -0.98120  -0.95666  -0.90862
 Alpha  occ. eigenvalues --   -0.90109  -0.87115  -0.84367  -0.82488  -0.81385
 Alpha  occ. eigenvalues --   -0.77803  -0.77633  -0.73601  -0.71962  -0.69956
 Alpha  occ. eigenvalues --   -0.67557  -0.66826  -0.65337  -0.62958  -0.60766
 Alpha  occ. eigenvalues --   -0.58915  -0.57480  -0.56226  -0.55291  -0.55059
 Alpha  occ. eigenvalues --   -0.54108  -0.53109  -0.52858  -0.51891  -0.50906
 Alpha  occ. eigenvalues --   -0.50258  -0.49639  -0.49380  -0.48257  -0.47702
 Alpha  occ. eigenvalues --   -0.47420  -0.46707  -0.46366  -0.45153  -0.44178
 Alpha  occ. eigenvalues --   -0.43597  -0.43201  -0.42820  -0.42078  -0.41640
 Alpha  occ. eigenvalues --   -0.41274  -0.40734  -0.40314  -0.39339  -0.38931
 Alpha  occ. eigenvalues --   -0.37856  -0.36283  -0.33455  -0.32341  -0.30645
 Alpha virt. eigenvalues --    0.02396   0.13186   0.14321   0.14908   0.16525
 Alpha virt. eigenvalues --    0.17063   0.17588   0.17964   0.18958   0.20683
 Alpha virt. eigenvalues --    0.20787   0.21111   0.22191   0.22416   0.23187
 Alpha virt. eigenvalues --    0.23478   0.23922   0.24448   0.25004   0.25155
 Alpha virt. eigenvalues --    0.25743   0.26149   0.26498   0.26600   0.27178
 Alpha virt. eigenvalues --    0.27861   0.28048   0.28718   0.29601   0.30512
 Alpha virt. eigenvalues --    0.30641   0.31074   0.31773   0.32421   0.33281
 Alpha virt. eigenvalues --    0.33440   0.34067   0.35086   0.35760   0.36386
 Alpha virt. eigenvalues --    0.36846   0.37641   0.39117   0.39375   0.40675
 Alpha virt. eigenvalues --    0.41954   0.42318   0.44916   0.45471   0.50059
 Alpha virt. eigenvalues --    0.51762   0.57834   0.58568   0.58944   0.60059
 Alpha virt. eigenvalues --    0.61083   0.61429   0.62267   0.62557   0.64520
 Alpha virt. eigenvalues --    0.65810   0.65933   0.66572   0.68173   0.69131
 Alpha virt. eigenvalues --    0.69995   0.70990   0.72026   0.72844   0.73387
 Alpha virt. eigenvalues --    0.73833   0.74225   0.75087   0.75978   0.76346
 Alpha virt. eigenvalues --    0.77683   0.77753   0.78782   0.80035   0.81407
 Alpha virt. eigenvalues --    0.83132   0.83284   0.84874   0.85271   0.86095
 Alpha virt. eigenvalues --    0.86720   0.87724   0.88993   0.89850   0.90555
 Alpha virt. eigenvalues --    0.90993   0.92078   0.93144   0.93399   0.94238
 Alpha virt. eigenvalues --    0.94844   0.95242   0.95842   0.96151   0.96710
 Alpha virt. eigenvalues --    0.97450   0.97485   0.97897   0.98442   0.99097
 Alpha virt. eigenvalues --    0.99434   1.00221   1.00710   1.01417   1.02736
 Alpha virt. eigenvalues --    1.03636   1.03814   1.03963   1.04427   1.04911
 Alpha virt. eigenvalues --    1.05586   1.05676   1.07116   1.07541   1.07744
 Alpha virt. eigenvalues --    1.08937   1.09951   1.11115   1.11945   1.12906
 Alpha virt. eigenvalues --    1.13723   1.14842   1.16136   1.19065   1.20131
 Alpha virt. eigenvalues --    1.21022   1.23949   1.26332   1.27324   1.28849
 Alpha virt. eigenvalues --    1.30645   1.31594   1.34422   1.34675   1.37202
 Alpha virt. eigenvalues --    1.39623   1.41062   1.42849   1.43161   1.47131
 Alpha virt. eigenvalues --    1.51273   1.52500   1.53543   1.56606   1.57526
 Alpha virt. eigenvalues --    1.61857   1.62725   1.64131   1.65694   1.68461
 Alpha virt. eigenvalues --    1.69510   1.70683   1.72960   1.74108   1.77949
 Alpha virt. eigenvalues --    1.78434   1.79237   1.81034   1.82103   1.83749
 Alpha virt. eigenvalues --    1.84009   1.85552   1.86809   1.88445   1.88627
 Alpha virt. eigenvalues --    1.88844   1.89850   1.92217   1.93495   1.94630
 Alpha virt. eigenvalues --    1.95828   1.96106   1.97277   1.98779   1.99336
 Alpha virt. eigenvalues --    1.99898   2.00503   2.01577   2.01946   2.03172
 Alpha virt. eigenvalues --    2.04470   2.05130   2.05795   2.06689   2.08101
 Alpha virt. eigenvalues --    2.08604   2.09636   2.09860   2.11045   2.11941
 Alpha virt. eigenvalues --    2.12734   2.14387   2.15173   2.16636   2.18117
 Alpha virt. eigenvalues --    2.19704   2.20073   2.20835   2.23100   2.24939
 Alpha virt. eigenvalues --    2.25893   2.28218   2.29796   2.30821   2.33450
 Alpha virt. eigenvalues --    2.33766   2.34944   2.36089   2.37847   2.39974
 Alpha virt. eigenvalues --    2.40746   2.41590   2.42654   2.43752   2.45203
 Alpha virt. eigenvalues --    2.47457   2.48541   2.50436   2.51075   2.52863
 Alpha virt. eigenvalues --    2.53833   2.57312   2.57760   2.60711   2.62150
 Alpha virt. eigenvalues --    2.63232   2.64112   2.65980   2.66407   2.67470
 Alpha virt. eigenvalues --    2.68325   2.71169   2.71389   2.74702   2.76593
 Alpha virt. eigenvalues --    2.78471   2.79468   2.81965   2.83019   2.84223
 Alpha virt. eigenvalues --    2.86409   2.89722   2.92873   2.97601   2.98986
 Alpha virt. eigenvalues --    3.00333   3.02743   3.07053   3.08213   3.09574
 Alpha virt. eigenvalues --    3.20552   3.27713   4.00915   4.07249   4.24455
 Alpha virt. eigenvalues --    4.26941   4.30513   4.34038   4.35615   4.37668
 Alpha virt. eigenvalues --    4.41337   4.42089   4.47630   4.53923   4.55793
 Alpha virt. eigenvalues --    4.65036   4.66974   4.74004   4.76851   4.80862
 Alpha virt. eigenvalues --    4.85851   4.90196
          Condensed to atoms (all electrons):
               1          2          3          4          5          6
     1  C    4.435967   0.516873   0.383534  -0.004697  -0.020852  -0.026784
     2  O    0.516873   8.128544  -0.061371   0.005143   0.000270   0.003116
     3  C    0.383534  -0.061371   5.273140   0.516468  -0.045271   0.007985
     4  C   -0.004697   0.005143   0.516468   4.886901   0.377065  -0.047436
     5  C   -0.020852   0.000270  -0.045271   0.377065   5.085867   0.353074
     6  C   -0.026784   0.003116   0.007985  -0.047436   0.353074   5.146847
     7  C    0.340485  -0.077841  -0.130071   0.001853  -0.036352   0.281383
     8  C    0.003809  -0.000109  -0.037784   0.358546  -0.064453   0.004820
     9  C   -0.000143   0.000000   0.003223  -0.034918  -0.011183  -0.000283
    10  C   -0.000011   0.000000   0.000462  -0.014142  -0.039517   0.004015
    11  C   -0.000104   0.000000   0.003419  -0.030851   0.364741  -0.046625
    12  C   -0.000000   0.000000   0.000003   0.000326   0.003782  -0.000125
    13  C   -0.000000   0.000000   0.000000   0.000004   0.000053  -0.000006
    14  C    0.000000  -0.000000   0.000001  -0.000085   0.003377   0.000211
    15  C   -0.000002  -0.000000  -0.000109   0.004325  -0.041449  -0.004015
    16  C   -0.000000  -0.000000   0.000000  -0.000001  -0.000104   0.000001
    17  C    0.000000  -0.000000  -0.000000   0.000000   0.000002  -0.000000
    18  C    0.000000  -0.000000  -0.000000  -0.000000   0.000003   0.000000
    19  C   -0.000000  -0.000000   0.000000   0.000001   0.000023   0.000000
    20  O   -0.000000   0.000000   0.000000   0.000000  -0.000000  -0.000000
    21  H   -0.029221   0.001094   0.361143  -0.045555   0.004386  -0.000431
    22  H    0.000723   0.000014  -0.004517  -0.045775   0.367081  -0.034543
    23  H   -0.003102   0.000031   0.003608  -0.004421  -0.041370   0.384343
    24  H    0.003466  -0.000068  -0.000305   0.004701  -0.031615   0.376432
    25  H   -0.027811  -0.000902   0.001758  -0.001216  -0.003734  -0.038449
    26  H   -0.024523   0.002370   0.004829  -0.000174   0.004038  -0.029701
    27  H    0.000300  -0.000002  -0.002611  -0.039714   0.003873  -0.000142
    28  H   -0.000142   0.000007  -0.009105  -0.038306   0.000929   0.000096
    29  H   -0.000001  -0.000000  -0.000219  -0.003190   0.000590   0.000006
    30  H    0.000002  -0.000000  -0.000089   0.004243   0.000009   0.000010
    31  H    0.000005   0.000000  -0.000260  -0.004775  -0.001812   0.000210
    32  H    0.000026  -0.000000  -0.000055  -0.003957  -0.041189  -0.004212
    33  H    0.000000   0.000000  -0.000001  -0.000073   0.000166   0.000002
    34  H    0.000000   0.000000  -0.000000   0.000002   0.000047  -0.000021
    35  H    0.000000  -0.000000  -0.000000   0.000001  -0.000096   0.000001
    36  H    0.000002  -0.000000  -0.000009   0.000163  -0.003475  -0.001454
    37  H   -0.000008  -0.000000   0.000013  -0.000135  -0.005702   0.002069
    38  H    0.000000  -0.000000   0.000000  -0.000001   0.000000  -0.000000
    39  H    0.000000   0.000000  -0.000000  -0.000001   0.000002   0.000000
    40  H    0.000000  -0.000000   0.000000   0.000000  -0.000000   0.000000
    41  H    0.000000  -0.000000   0.000000  -0.000000  -0.000000   0.000000
    42  H    0.000000   0.000000  -0.000000   0.000000  -0.000000  -0.000000
    43  H   -0.000000  -0.000000   0.000000   0.000000  -0.000001  -0.000000
    44  H    0.000000   0.000000  -0.000000  -0.000000  -0.000003   0.000000
    45  H    0.000000  -0.000000  -0.000000   0.000001   0.000025   0.000002
    46  H   -0.000000   0.000000  -0.000000   0.000000  -0.000000   0.000000
               7          8          9         10         11         12
     1  C    0.340485   0.003809  -0.000143  -0.000011  -0.000104  -0.000000
     2  O   -0.077841  -0.000109   0.000000   0.000000   0.000000   0.000000
     3  C   -0.130071  -0.037784   0.003223   0.000462   0.003419   0.000003
     4  C    0.001853   0.358546  -0.034918  -0.014142  -0.030851   0.000326
     5  C   -0.036352  -0.064453  -0.011183  -0.039517   0.364741   0.003782
     6  C    0.281383   0.004820  -0.000283   0.004015  -0.046625  -0.000125
     7  C    5.351597  -0.000103   0.000037  -0.000094   0.004363   0.000002
     8  C   -0.000103   5.150043   0.335845  -0.042566  -0.015229   0.003825
     9  C    0.000037   0.335845   5.102338   0.369264  -0.042450  -0.043140
    10  C   -0.000094  -0.042566   0.369264   5.016885   0.371981   0.369323
    11  C    0.004363  -0.015229  -0.042450   0.371981   5.046912  -0.036080
    12  C    0.000002   0.003825  -0.043140   0.369323  -0.036080   5.105323
    13  C    0.000000  -0.000127   0.004192  -0.026766  -0.011496   0.349223
    14  C   -0.000002  -0.000008  -0.000094  -0.010782  -0.037834  -0.054395
    15  C    0.000147   0.000313   0.004349  -0.041374   0.361096  -0.016485
    16  C   -0.000000   0.000089  -0.004347  -0.034158   0.004212   0.357626
    17  C    0.000000  -0.000000   0.000153   0.004680  -0.000183  -0.056257
    18  C   -0.000000   0.000001  -0.000129   0.003901   0.000113  -0.061059
    19  C    0.000000  -0.000001   0.000147  -0.006609  -0.001606  -0.055848
    20  O    0.000000  -0.000000   0.000000  -0.000063  -0.000001   0.002861
    21  H    0.006269  -0.007269   0.000256   0.000001  -0.000076   0.000000
    22  H   -0.005274   0.001407  -0.000628  -0.006633  -0.045636   0.000012
    23  H   -0.039420   0.000007  -0.000034   0.000082  -0.003353  -0.000001
    24  H   -0.030088  -0.000106  -0.000006  -0.000026  -0.007787  -0.000001
    25  H    0.367700  -0.000024  -0.000002   0.000001   0.000001   0.000000
    26  H    0.369323   0.000008   0.000000   0.000001  -0.000063  -0.000000
    27  H    0.000007   0.379862  -0.031294   0.004141  -0.000189  -0.000110
    28  H   -0.000083   0.378710  -0.039672  -0.004507  -0.000609  -0.000032
    29  H   -0.000003  -0.035348   0.379692  -0.039284  -0.008124  -0.004485
    30  H   -0.000000  -0.031953   0.378763  -0.032430   0.004767  -0.006991
    31  H   -0.000014   0.000913  -0.049166   0.380413  -0.053223  -0.044392
    32  H   -0.000083   0.000265  -0.006762  -0.047224   0.375409  -0.004299
    33  H   -0.000000   0.000101  -0.006092  -0.046219  -0.005902   0.381523
    34  H   -0.000000   0.000000  -0.000031  -0.000454  -0.003629  -0.005919
    35  H   -0.000000  -0.000000   0.000009  -0.000023   0.004102   0.005815
    36  H   -0.000077  -0.000006  -0.000020  -0.003646  -0.044960  -0.000419
    37  H    0.000055  -0.000009  -0.000120   0.004276  -0.029806   0.000110
    38  H    0.000000  -0.000011   0.001220  -0.001626  -0.000080  -0.025709
    39  H   -0.000000  -0.000031  -0.000518  -0.003730   0.000054  -0.038213
    40  H   -0.000000  -0.000000  -0.000006  -0.000051   0.000003   0.000807
    41  H   -0.000000  -0.000000   0.000002  -0.000177   0.000002   0.003833
    42  H   -0.000000  -0.000000   0.000011  -0.000371  -0.000015  -0.002362
    43  H    0.000000  -0.000000  -0.000016  -0.000024   0.000011  -0.003196
    44  H   -0.000000  -0.000000   0.000001   0.000011   0.000063   0.005150
    45  H   -0.000000   0.000009  -0.000048   0.001507  -0.000272  -0.005958
    46  H   -0.000000   0.000000  -0.000000  -0.000000   0.000000  -0.000124
              13         14         15         16         17         18
     1  C   -0.000000   0.000000  -0.000002  -0.000000   0.000000   0.000000
     2  O    0.000000  -0.000000  -0.000000  -0.000000  -0.000000  -0.000000
     3  C    0.000000   0.000001  -0.000109   0.000000  -0.000000  -0.000000
     4  C    0.000004  -0.000085   0.004325  -0.000001   0.000000  -0.000000
     5  C    0.000053   0.003377  -0.041449  -0.000104   0.000002   0.000003
     6  C   -0.000006   0.000211  -0.004015   0.000001  -0.000000   0.000000
     7  C    0.000000  -0.000002   0.000147  -0.000000   0.000000  -0.000000
     8  C   -0.000127  -0.000008   0.000313   0.000089  -0.000000   0.000001
     9  C    0.004192  -0.000094   0.004349  -0.004347   0.000153  -0.000129
    10  C   -0.026766  -0.010782  -0.041374  -0.034158   0.004680   0.003901
    11  C   -0.011496  -0.037834   0.361096   0.004212  -0.000183   0.000113
    12  C    0.349223  -0.054395  -0.016485   0.357626  -0.056257  -0.061059
    13  C    5.105702   0.382580  -0.038290  -0.048419  -0.082081   0.342039
    14  C    0.382580   5.097969   0.351897   0.005755   0.006149  -0.038777
    15  C   -0.038290   0.351897   5.104303   0.000215  -0.000198   0.004014
    16  C   -0.048419   0.005755   0.000215   5.129642   0.317411  -0.064148
    17  C   -0.082081   0.006149  -0.000198   0.317411   5.217347   0.360365
    18  C    0.342039  -0.038777   0.004014  -0.064148   0.360365   4.796785
    19  C    0.331811  -0.062124  -0.003451  -0.004715  -0.006566  -0.045476
    20  O   -0.059490   0.001153   0.000012   0.002909  -0.034284   0.264261
    21  H   -0.000000  -0.000000   0.000001  -0.000000  -0.000000  -0.000000
    22  H   -0.000024   0.000028  -0.006916  -0.000001   0.000000  -0.000000
    23  H   -0.000000  -0.000039  -0.001114   0.000000   0.000000  -0.000000
    24  H   -0.000002   0.000046   0.003811   0.000000   0.000000   0.000000
    25  H   -0.000000  -0.000000  -0.000025   0.000000   0.000000  -0.000000
    26  H   -0.000000  -0.000000  -0.000000   0.000000  -0.000000  -0.000000
    27  H    0.000001  -0.000000   0.000008  -0.000002  -0.000000  -0.000000
    28  H    0.000003   0.000000  -0.000004  -0.000010  -0.000000  -0.000000
    29  H    0.000003  -0.000013   0.000111  -0.000451  -0.000024  -0.000003
    30  H    0.000033  -0.000004  -0.000129   0.003790  -0.000006  -0.000012
    31  H   -0.008060   0.000225  -0.002546  -0.004400  -0.000044   0.000085
    32  H   -0.000872  -0.000426  -0.043600  -0.000065   0.000003  -0.000052
    33  H   -0.054578  -0.005998  -0.000893  -0.046656  -0.002767  -0.003033
    34  H   -0.037458   0.377489  -0.037076   0.000015   0.000099  -0.006067
    35  H   -0.031147   0.376248  -0.035154  -0.000211  -0.000006  -0.003253
    36  H   -0.007066  -0.035067   0.379964  -0.000018   0.000001  -0.000040
    37  H    0.004491  -0.032965   0.379896   0.000008   0.000003  -0.000070
    38  H    0.004727  -0.000143  -0.000003   0.377360  -0.026627   0.002360
    39  H   -0.005873   0.000026  -0.000019   0.383763  -0.033889   0.001713
    40  H    0.004553  -0.000114   0.000003  -0.027004   0.377140  -0.025163
    41  H   -0.003890  -0.000099   0.000003  -0.028793   0.371188  -0.034605
    42  H   -0.069796  -0.007648   0.000090   0.002046  -0.042448   0.396174
    43  H   -0.031196   0.004418   0.000040   0.000844   0.003144  -0.005178
    44  H   -0.029645  -0.004681  -0.000426  -0.000191   0.000238  -0.004398
    45  H   -0.030348  -0.003693   0.001545  -0.000196  -0.000055   0.004723
    46  H   -0.002649  -0.000185   0.000001   0.000287  -0.008941  -0.029044
              19         20         21         22         23         24
     1  C   -0.000000  -0.000000  -0.029221   0.000723  -0.003102   0.003466
     2  O   -0.000000   0.000000   0.001094   0.000014   0.000031  -0.000068
     3  C    0.000000   0.000000   0.361143  -0.004517   0.003608  -0.000305
     4  C    0.000001   0.000000  -0.045555  -0.045775  -0.004421   0.004701
     5  C    0.000023  -0.000000   0.004386   0.367081  -0.041370  -0.031615
     6  C    0.000000  -0.000000  -0.000431  -0.034543   0.384343   0.376432
     7  C    0.000000   0.000000   0.006269  -0.005274  -0.039420  -0.030088
     8  C   -0.000001  -0.000000  -0.007269   0.001407   0.000007  -0.000106
     9  C    0.000147   0.000000   0.000256  -0.000628  -0.000034  -0.000006
    10  C   -0.006609  -0.000063   0.000001  -0.006633   0.000082  -0.000026
    11  C   -0.001606  -0.000001  -0.000076  -0.045636  -0.003353  -0.007787
    12  C   -0.055848   0.002861   0.000000   0.000012  -0.000001  -0.000001
    13  C    0.331811  -0.059490  -0.000000  -0.000024  -0.000000  -0.000002
    14  C   -0.062124   0.001153  -0.000000   0.000028  -0.000039   0.000046
    15  C   -0.003451   0.000012   0.000001  -0.006916  -0.001114   0.003811
    16  C   -0.004715   0.002909  -0.000000  -0.000001   0.000000   0.000000
    17  C   -0.006566  -0.034284  -0.000000   0.000000   0.000000   0.000000
    18  C   -0.045476   0.264261  -0.000000  -0.000000  -0.000000   0.000000
    19  C    5.223214   0.005149   0.000000  -0.000060  -0.000000  -0.000001
    20  O    0.005149   8.273800   0.000000  -0.000000   0.000000   0.000000
    21  H    0.000000   0.000000   0.531328  -0.000210  -0.000085   0.000012
    22  H   -0.000060  -0.000000  -0.000210   0.593878   0.005428  -0.003295
    23  H   -0.000000   0.000000  -0.000085   0.005428   0.555817  -0.030577
    24  H   -0.000001   0.000000   0.000012  -0.003295  -0.030577   0.551939
    25  H   -0.000000   0.000000  -0.000169   0.005317   0.004890  -0.004611
    26  H    0.000000   0.000000  -0.000102  -0.000146  -0.003107  -0.002307
    27  H    0.000000   0.000000   0.004897  -0.000091  -0.000001   0.000002
    28  H   -0.000003  -0.000000   0.000250   0.001275   0.000002   0.000007
    29  H   -0.000002  -0.000000  -0.000007   0.000093  -0.000003   0.000002
    30  H   -0.000005   0.000000  -0.000008  -0.000010   0.000000   0.000000
    31  H    0.002166  -0.000000  -0.000002   0.006718   0.000008  -0.000000
    32  H    0.000041   0.000000  -0.000013   0.006119   0.004587   0.000029
    33  H    0.006589   0.000092  -0.000000   0.000004  -0.000001  -0.000000
    34  H    0.005762  -0.000039  -0.000000   0.000004   0.000002   0.000007
    35  H   -0.005697   0.001978   0.000000  -0.000003   0.000000   0.000004
    36  H    0.002963  -0.000002  -0.000000   0.005893   0.000139   0.001071
    37  H    0.000004   0.000001   0.000000  -0.000006   0.000699   0.001085
    38  H    0.000097  -0.000034  -0.000000   0.000000   0.000000  -0.000000
    39  H    0.002778  -0.000004   0.000000  -0.000002  -0.000000  -0.000000
    40  H    0.000124   0.001900  -0.000000  -0.000000  -0.000000  -0.000000
    41  H    0.001291  -0.003916   0.000000  -0.000000  -0.000000   0.000000
    42  H    0.006588  -0.042054  -0.000000  -0.000000  -0.000000   0.000000
    43  H    0.376949   0.000172  -0.000000   0.000001   0.000000   0.000000
    44  H    0.376940   0.004648   0.000000   0.000001   0.000000   0.000000
    45  H    0.374997   0.000229  -0.000000   0.000082   0.000000  -0.000001
    46  H    0.002506   0.243303   0.000000   0.000000   0.000000  -0.000000
              25         26         27         28         29         30
     1  C   -0.027811  -0.024523   0.000300  -0.000142  -0.000001   0.000002
     2  O   -0.000902   0.002370  -0.000002   0.000007  -0.000000  -0.000000
     3  C    0.001758   0.004829  -0.002611  -0.009105  -0.000219  -0.000089
     4  C   -0.001216  -0.000174  -0.039714  -0.038306  -0.003190   0.004243
     5  C   -0.003734   0.004038   0.003873   0.000929   0.000590   0.000009
     6  C   -0.038449  -0.029701  -0.000142   0.000096   0.000006   0.000010
     7  C    0.367700   0.369323   0.000007  -0.000083  -0.000003  -0.000000
     8  C   -0.000024   0.000008   0.379862   0.378710  -0.035348  -0.031953
     9  C   -0.000002   0.000000  -0.031294  -0.039672   0.379692   0.378763
    10  C    0.000001   0.000001   0.004141  -0.004507  -0.039284  -0.032430
    11  C    0.000001  -0.000063  -0.000189  -0.000609  -0.008124   0.004767
    12  C    0.000000  -0.000000  -0.000110  -0.000032  -0.004485  -0.006991
    13  C   -0.000000  -0.000000   0.000001   0.000003   0.000003   0.000033
    14  C   -0.000000  -0.000000  -0.000000   0.000000  -0.000013  -0.000004
    15  C   -0.000025  -0.000000   0.000008  -0.000004   0.000111  -0.000129
    16  C    0.000000   0.000000  -0.000002  -0.000010  -0.000451   0.003790
    17  C    0.000000  -0.000000  -0.000000  -0.000000  -0.000024  -0.000006
    18  C   -0.000000  -0.000000  -0.000000  -0.000000  -0.000003  -0.000012
    19  C   -0.000000   0.000000   0.000000  -0.000003  -0.000002  -0.000005
    20  O    0.000000   0.000000   0.000000  -0.000000  -0.000000   0.000000
    21  H   -0.000169  -0.000102   0.004897   0.000250  -0.000007  -0.000008
    22  H    0.005317  -0.000146  -0.000091   0.001275   0.000093  -0.000010
    23  H    0.004890  -0.003107  -0.000001   0.000002  -0.000003   0.000000
    24  H   -0.004611  -0.002307   0.000002   0.000007   0.000002   0.000000
    25  H    0.533027  -0.020793  -0.000000   0.000010   0.000000   0.000000
    26  H   -0.020793   0.503167   0.000000  -0.000001  -0.000000   0.000000
    27  H   -0.000000   0.000000   0.530076  -0.025920  -0.003502  -0.001348
    28  H    0.000010  -0.000001  -0.025920   0.549900   0.004897  -0.005480
    29  H    0.000000  -0.000000  -0.003502   0.004897   0.567014  -0.032568
    30  H    0.000000   0.000000  -0.001348  -0.005480  -0.032568   0.556511
    31  H   -0.000001   0.000000   0.000056   0.004234   0.005663  -0.002639
    32  H    0.000008  -0.000001  -0.000033   0.000095   0.006145   0.000068
    33  H   -0.000000   0.000000   0.000004   0.000003   0.004704  -0.000063
    34  H   -0.000000   0.000000  -0.000000  -0.000000  -0.000008   0.000001
    35  H    0.000000   0.000000   0.000000  -0.000000   0.000000  -0.000000
    36  H    0.000005   0.000001  -0.000000  -0.000001  -0.000000   0.000004
    37  H    0.000010   0.000001  -0.000000   0.000000  -0.000005   0.000002
    38  H    0.000000  -0.000000   0.000001   0.000005   0.000249   0.001036
    39  H   -0.000000   0.000000   0.000001   0.000000   0.000063   0.000463
    40  H    0.000000   0.000000   0.000000   0.000000  -0.000000   0.000002
    41  H   -0.000000   0.000000   0.000000   0.000000   0.000000   0.000002
    42  H   -0.000000   0.000000   0.000000  -0.000000  -0.000003  -0.000000
    43  H    0.000000   0.000000  -0.000000   0.000000   0.000000  -0.000000
    44  H    0.000000  -0.000000   0.000000   0.000000   0.000000  -0.000000
    45  H    0.000000   0.000000  -0.000000  -0.000004  -0.000000   0.000001
    46  H    0.000000   0.000000  -0.000000   0.000000  -0.000000   0.000000
              31         32         33         34         35         36
     1  C    0.000005   0.000026   0.000000   0.000000   0.000000   0.000002
     2  O    0.000000  -0.000000   0.000000   0.000000  -0.000000  -0.000000
     3  C   -0.000260  -0.000055  -0.000001  -0.000000  -0.000000  -0.000009
     4  C   -0.004775  -0.003957  -0.000073   0.000002   0.000001   0.000163
     5  C   -0.001812  -0.041189   0.000166   0.000047  -0.000096  -0.003475
     6  C    0.000210  -0.004212   0.000002  -0.000021   0.000001  -0.001454
     7  C   -0.000014  -0.000083  -0.000000  -0.000000  -0.000000  -0.000077
     8  C    0.000913   0.000265   0.000101   0.000000  -0.000000  -0.000006
     9  C   -0.049166  -0.006762  -0.006092  -0.000031   0.000009  -0.000020
    10  C    0.380413  -0.047224  -0.046219  -0.000454  -0.000023  -0.003646
    11  C   -0.053223   0.375409  -0.005902  -0.003629   0.004102  -0.044960
    12  C   -0.044392  -0.004299   0.381523  -0.005919   0.005815  -0.000419
    13  C   -0.008060  -0.000872  -0.054578  -0.037458  -0.031147  -0.007066
    14  C    0.000225  -0.000426  -0.005998   0.377489   0.376248  -0.035067
    15  C   -0.002546  -0.043600  -0.000893  -0.037076  -0.035154   0.379964
    16  C   -0.004400  -0.000065  -0.046656   0.000015  -0.000211  -0.000018
    17  C   -0.000044   0.000003  -0.002767   0.000099  -0.000006   0.000001
    18  C    0.000085  -0.000052  -0.003033  -0.006067  -0.003253  -0.000040
    19  C    0.002166   0.000041   0.006589   0.005762  -0.005697   0.002963
    20  O   -0.000000   0.000000   0.000092  -0.000039   0.001978  -0.000002
    21  H   -0.000002  -0.000013  -0.000000  -0.000000   0.000000  -0.000000
    22  H    0.006718   0.006119   0.000004   0.000004  -0.000003   0.005893
    23  H    0.000008   0.004587  -0.000001   0.000002   0.000000   0.000139
    24  H   -0.000000   0.000029  -0.000000   0.000007   0.000004   0.001071
    25  H   -0.000001   0.000008  -0.000000  -0.000000   0.000000   0.000005
    26  H    0.000000  -0.000001   0.000000   0.000000   0.000000   0.000001
    27  H    0.000056  -0.000033   0.000004  -0.000000   0.000000  -0.000000
    28  H    0.004234   0.000095   0.000003  -0.000000  -0.000000  -0.000001
    29  H    0.005663   0.006145   0.004704  -0.000008   0.000000  -0.000000
    30  H   -0.002639   0.000068  -0.000063   0.000001  -0.000000   0.000004
    31  H    0.615677   0.006360   0.006405   0.000047  -0.000013   0.001846
    32  H    0.006360   0.605898   0.004593   0.002893  -0.000083   0.005493
    33  H    0.006405   0.004593   0.623984   0.004948   0.000021   0.000088
    34  H    0.000047   0.002893   0.004948   0.577262  -0.031083   0.004891
    35  H   -0.000013  -0.000083   0.000021  -0.031083   0.552334  -0.004328
    36  H    0.001846   0.005493   0.000088   0.004891  -0.004328   0.579858
    37  H   -0.000090  -0.005533  -0.000091  -0.004659  -0.001823  -0.033294
    38  H   -0.000143  -0.000000  -0.005743  -0.000001   0.000003   0.000000
    39  H    0.004050   0.000004   0.005351  -0.000006   0.000004  -0.000004
    40  H    0.000001  -0.000000   0.000466  -0.000011  -0.000000   0.000000
    41  H   -0.000008  -0.000000  -0.000016  -0.000001   0.000002  -0.000000
    42  H   -0.000011  -0.000006   0.005436   0.005962   0.000221  -0.000000
    43  H    0.000061   0.000001  -0.000066  -0.000129  -0.000002  -0.000032
    44  H   -0.000041   0.000002  -0.000105   0.000074   0.004603   0.000440
    45  H    0.003855  -0.000007   0.000003  -0.000075  -0.000095   0.001443
    46  H   -0.000001  -0.000000  -0.000000  -0.000001  -0.000041  -0.000000
              37         38         39         40         41         42
     1  C   -0.000008   0.000000   0.000000   0.000000   0.000000   0.000000
     2  O   -0.000000  -0.000000   0.000000  -0.000000  -0.000000   0.000000
     3  C    0.000013   0.000000  -0.000000   0.000000   0.000000  -0.000000
     4  C   -0.000135  -0.000001  -0.000001   0.000000  -0.000000   0.000000
     5  C   -0.005702   0.000000   0.000002  -0.000000  -0.000000  -0.000000
     6  C    0.002069  -0.000000   0.000000   0.000000   0.000000  -0.000000
     7  C    0.000055   0.000000  -0.000000  -0.000000  -0.000000  -0.000000
     8  C   -0.000009  -0.000011  -0.000031  -0.000000  -0.000000  -0.000000
     9  C   -0.000120   0.001220  -0.000518  -0.000006   0.000002   0.000011
    10  C    0.004276  -0.001626  -0.003730  -0.000051  -0.000177  -0.000371
    11  C   -0.029806  -0.000080   0.000054   0.000003   0.000002  -0.000015
    12  C    0.000110  -0.025709  -0.038213   0.000807   0.003833  -0.002362
    13  C    0.004491   0.004727  -0.005873   0.004553  -0.003890  -0.069796
    14  C   -0.032965  -0.000143   0.000026  -0.000114  -0.000099  -0.007648
    15  C    0.379896  -0.000003  -0.000019   0.000003   0.000003   0.000090
    16  C    0.000008   0.377360   0.383763  -0.027004  -0.028793   0.002046
    17  C    0.000003  -0.026627  -0.033889   0.377140   0.371188  -0.042448
    18  C   -0.000070   0.002360   0.001713  -0.025163  -0.034605   0.396174
    19  C    0.000004   0.000097   0.002778   0.000124   0.001291   0.006588
    20  O    0.000001  -0.000034  -0.000004   0.001900  -0.003916  -0.042054
    21  H    0.000000  -0.000000   0.000000  -0.000000   0.000000  -0.000000
    22  H   -0.000006   0.000000  -0.000002  -0.000000  -0.000000  -0.000000
    23  H    0.000699   0.000000  -0.000000  -0.000000  -0.000000  -0.000000
    24  H    0.001085  -0.000000  -0.000000  -0.000000   0.000000   0.000000
    25  H    0.000010   0.000000  -0.000000   0.000000  -0.000000  -0.000000
    26  H    0.000001  -0.000000   0.000000   0.000000   0.000000   0.000000
    27  H   -0.000000   0.000001   0.000001   0.000000   0.000000   0.000000
    28  H    0.000000   0.000005   0.000000   0.000000   0.000000  -0.000000
    29  H   -0.000005   0.000249   0.000063  -0.000000   0.000000  -0.000003
    30  H    0.000002   0.001036   0.000463   0.000002   0.000002  -0.000000
    31  H   -0.000090  -0.000143   0.004050   0.000001  -0.000008  -0.000011
    32  H   -0.005533  -0.000000   0.000004  -0.000000  -0.000000  -0.000006
    33  H   -0.000091  -0.005743   0.005351   0.000466  -0.000016   0.005436
    34  H   -0.004659  -0.000001  -0.000006  -0.000011  -0.000001   0.005962
    35  H   -0.001823   0.000003   0.000004  -0.000000   0.000002   0.000221
    36  H   -0.033294   0.000000  -0.000004   0.000000  -0.000000  -0.000000
    37  H    0.556406  -0.000000  -0.000000  -0.000000  -0.000000  -0.000005
    38  H   -0.000000   0.546510  -0.033725  -0.006158   0.002605  -0.000058
    39  H   -0.000000  -0.033725   0.566859   0.003599  -0.010061  -0.000159
    40  H   -0.000000  -0.006158   0.003599   0.530848  -0.030728  -0.006939
    41  H   -0.000000   0.002605  -0.010061  -0.030728   0.572350   0.004503
    42  H   -0.000005  -0.000058  -0.000159  -0.006939   0.004503   0.594217
    43  H    0.000000   0.000024   0.000548  -0.000017   0.001108   0.000078
    44  H   -0.000034   0.000000   0.000006  -0.000006   0.000041   0.000022
    45  H    0.000024  -0.000015   0.000239  -0.000000  -0.000010  -0.000095
    46  H   -0.000000  -0.000004  -0.000074  -0.000096   0.009712   0.006326
              43         44         45         46
     1  C   -0.000000   0.000000   0.000000  -0.000000
     2  O   -0.000000   0.000000  -0.000000   0.000000
     3  C    0.000000  -0.000000  -0.000000  -0.000000
     4  C    0.000000  -0.000000   0.000001   0.000000
     5  C   -0.000001  -0.000003   0.000025  -0.000000
     6  C   -0.000000   0.000000   0.000002   0.000000
     7  C    0.000000  -0.000000  -0.000000  -0.000000
     8  C   -0.000000  -0.000000   0.000009   0.000000
     9  C   -0.000016   0.000001  -0.000048  -0.000000
    10  C   -0.000024   0.000011   0.001507  -0.000000
    11  C    0.000011   0.000063  -0.000272   0.000000
    12  C   -0.003196   0.005150  -0.005958  -0.000124
    13  C   -0.031196  -0.029645  -0.030348  -0.002649
    14  C    0.004418  -0.004681  -0.003693  -0.000185
    15  C    0.000040  -0.000426   0.001545   0.000001
    16  C    0.000844  -0.000191  -0.000196   0.000287
    17  C    0.003144   0.000238  -0.000055  -0.008941
    18  C   -0.005178  -0.004398   0.004723  -0.029044
    19  C    0.376949   0.376940   0.374997   0.002506
    20  O    0.000172   0.004648   0.000229   0.243303
    21  H   -0.000000   0.000000  -0.000000   0.000000
    22  H    0.000001   0.000001   0.000082   0.000000
    23  H    0.000000   0.000000   0.000000   0.000000
    24  H    0.000000   0.000000  -0.000001  -0.000000
    25  H    0.000000   0.000000   0.000000   0.000000
    26  H    0.000000  -0.000000   0.000000   0.000000
    27  H   -0.000000   0.000000  -0.000000  -0.000000
    28  H    0.000000   0.000000  -0.000004   0.000000
    29  H    0.000000   0.000000  -0.000000  -0.000000
    30  H   -0.000000  -0.000000   0.000001   0.000000
    31  H    0.000061  -0.000041   0.003855  -0.000001
    32  H    0.000001   0.000002  -0.000007  -0.000000
    33  H   -0.000066  -0.000105   0.000003  -0.000000
    34  H   -0.000129   0.000074  -0.000075  -0.000001
    35  H   -0.000002   0.004603  -0.000095  -0.000041
    36  H   -0.000032   0.000440   0.001443  -0.000000
    37  H    0.000000  -0.000034   0.000024  -0.000000
    38  H    0.000024   0.000000  -0.000015  -0.000004
    39  H    0.000548   0.000006   0.000239  -0.000074
    40  H   -0.000017  -0.000006  -0.000000  -0.000096
    41  H    0.001108   0.000041  -0.000010   0.009712
    42  H    0.000078   0.000022  -0.000095   0.006326
    43  H    0.555574  -0.027588  -0.028651   0.000381
    44  H   -0.027588   0.523925  -0.028690  -0.000172
    45  H   -0.028651  -0.028690   0.547284  -0.000002
    46  H    0.000381  -0.000172  -0.000002   0.376195
 Mulliken charges:
               1
     1  C    0.452209
     2  O   -0.517168
     3  C   -0.267806
     4  C    0.159679
     5  C   -0.181226
     6  C   -0.330396
     7  C   -0.403714
     8  C   -0.383434
     9  C   -0.308400
    10  C   -0.128435
    11  C   -0.115068
    12  C   -0.123945
    13  C    0.049863
    14  C   -0.312394
    15  C   -0.322866
    16  C   -0.322084
    17  C   -0.363548
    18  C    0.143971
    19  C   -0.527977
    20  O   -0.662581
    21  H    0.173510
    22  H    0.159693
    23  H    0.166985
    24  H    0.168184
    25  H    0.185012
    26  H    0.197181
    27  H    0.181731
    28  H    0.183453
    29  H    0.158012
    30  H    0.164025
    31  H    0.132644
    32  H    0.140434
    33  H    0.133816
    34  H    0.147161
    35  H    0.167710
    36  H    0.149655
    37  H    0.165204
    38  H    0.163885
    39  H    0.156790
    40  H    0.176847
    41  H    0.145664
    42  H    0.150295
    43  H    0.152742
    44  H    0.179815
    45  H    0.162247
    46  H    0.402625
 Sum of Mulliken charges =  -0.00000
 Mulliken charges with hydrogens summed into heavy atoms:
               1
     1  C    0.452209
     2  O   -0.517168
     3  C   -0.094296
     4  C    0.159679
     5  C   -0.021532
     6  C    0.004774
     7  C   -0.021522
     8  C   -0.018250
     9  C    0.013637
    10  C    0.004209
    11  C    0.025366
    12  C    0.009871
    13  C    0.049863
    14  C    0.002477
    15  C   -0.008007
    16  C   -0.001409
    17  C   -0.041037
    18  C    0.294266
    19  C   -0.033173
    20  O   -0.259956
 Electronic spatial extent (au):  <R**2>=           6921.4557
 Charge=              0.0000 electrons
 Dipole moment (field-independent basis, Debye):
    X=             -4.7312    Y=              1.2849    Z=              0.9280  Tot=              4.9896
 Quadrupole moment (field-independent basis, Debye-Ang):
   XX=           -161.6576   YY=           -117.8338   ZZ=           -118.0696
   XY=             -8.8683   XZ=             -5.7142   YZ=             -1.1547
 Traceless Quadrupole moment (field-independent basis, Debye-Ang):
   XX=            -29.1373   YY=             14.6865   ZZ=             14.4507
   XY=             -8.8683   XZ=             -5.7142   YZ=             -1.1547
 Octapole moment (field-independent basis, Debye-Ang**2):
  XXX=           -294.4216  YYY=              1.9624  ZZZ=              0.0227  XYY=             24.3196
  XXY=             26.5550  XXZ=             28.9981  XZZ=             -6.2397  YZZ=             -2.6489
  YYZ=              0.0298  XYZ=              6.6196
 Hexadecapole moment (field-independent basis, Debye-Ang**3):
 XXXX=          -8981.2794 YYYY=          -1414.3861 ZZZZ=           -407.1661 XXXY=           -196.2011
 XXXZ=           -253.0042 YYYX=             11.5836 YYYZ=             -5.8986 ZZZX=             12.9928
 ZZZY=              2.6662 XXYY=          -1436.7961 XXZZ=          -1216.4259 YYZZ=           -306.6593
 XXYZ=            -39.3771 YYXZ=             -6.7523 ZZXY=             -0.2748
 N-N= 1.662232662258D+03 E-N=-5.301444715011D+03  KE= 8.439215655704D+02

 **********************************************************************

            Electrostatic Properties Using The SCF Density.

 **********************************************************************

       Atomic Center    1 is at   4.690050 -0.127857  0.043121
       Atomic Center    2 is at   5.933836 -0.006208  0.109444
       Atomic Center    3 is at   3.841568  1.003896 -0.146971
       Atomic Center    4 is at   2.496051  0.904133  0.013017
       Atomic Center    5 is at   1.799425 -0.426999  0.171522
       Atomic Center    6 is at   2.679148 -1.568990 -0.339273
       Atomic Center    7 is at   4.073536 -1.481941  0.265224
       Atomic Center    8 is at   1.699676  2.155829  0.178725
       Atomic Center    9 is at   0.272498  2.071801 -0.345122
       Atomic Center   10 is at  -0.404213  0.783218  0.113718
       Atomic Center   11 is at   0.380653 -0.421339 -0.440538
       Atomic Center   12 is at  -1.860913  0.722509 -0.307053
       Atomic Center   13 is at  -2.574992 -0.587636  0.080396
       Atomic Center   14 is at  -1.827765 -1.743111 -0.595172
       Atomic Center   15 is at  -0.340036 -1.761950 -0.208421
       Atomic Center   16 is at  -2.817165  1.818688  0.176159
       Atomic Center   17 is at  -4.215454  1.219851 -0.107281
       Atomic Center   18 is at  -3.964850 -0.255946 -0.508470
       Atomic Center   19 is at  -2.669020 -0.818531  1.600388
       Atomic Center   20 is at  -5.025151 -1.129198 -0.143970
       Atomic Center   21 is at   4.329971  1.969979 -0.246198
       Atomic Center   22 is at   1.659762 -0.545945  1.261433
       Atomic Center   23 is at   2.747028 -1.523581 -1.435340
       Atomic Center   24 is at   2.237025 -2.535384 -0.084504
       Atomic Center   25 is at   4.011666 -1.623623  1.355370
       Atomic Center   26 is at   4.748285 -2.251761 -0.123955
       Atomic Center   27 is at   2.235491  3.001497 -0.263778
       Atomic Center   28 is at   1.683667  2.345584  1.264710
       Atomic Center   29 is at   0.273103  2.106734 -1.441695
       Atomic Center   30 is at  -0.283237  2.953521 -0.011843
       Atomic Center   31 is at  -0.342746  0.729342  1.207301
       Atomic Center   32 is at   0.479940 -0.273063 -1.527362
       Atomic Center   33 is at  -1.871894  0.760751 -1.409335
       Atomic Center   34 is at  -1.928697 -1.650053 -1.683194
       Atomic Center   35 is at  -2.268529 -2.713050 -0.335636
       Atomic Center   36 is at  -0.234344 -2.048026  0.847172
       Atomic Center   37 is at   0.153546 -2.549529 -0.790594
       Atomic Center   38 is at  -2.655546  2.780548 -0.315389
       Atomic Center   39 is at  -2.698691  1.992507  1.253051
       Atomic Center   40 is at  -4.741597  1.755247 -0.903681
       Atomic Center   41 is at  -4.845977  1.269138  0.786592
       Atomic Center   42 is at  -3.888055 -0.338311 -1.597805
       Atomic Center   43 is at  -3.316885 -0.104184  2.119317
       Atomic Center   44 is at  -3.074846 -1.816278  1.800689
       Atomic Center   45 is at  -1.689313 -0.776668  2.086589
       Atomic Center   46 is at  -5.537801 -0.745900  0.600485
 -----------------------------------------------------------------

              Electrostatic Properties (Atomic Units)

 -----------------------------------------------------------------
    Center     Electric         -------- Electric Field --------
               Potential          X             Y             Z
 -----------------------------------------------------------------
    1 Atom    -14.675312      0.005701     -0.001645      0.000004
    2 Atom    -22.357385      0.102865      0.010102      0.005181
    3 Atom    -14.748847     -0.009791     -0.000790      0.001501
    4 Atom    -14.709866      0.012634      0.001168     -0.002021
    5 Atom    -14.717922     -0.002729     -0.003775     -0.001779
    6 Atom    -14.732840     -0.000120     -0.001260     -0.000232
    7 Atom    -14.740717      0.000690     -0.000501     -0.002039
    8 Atom    -14.726693     -0.001792      0.002178     -0.001044
    9 Atom    -14.733550     -0.002161     -0.001636     -0.000013
   10 Atom    -14.731864     -0.000856     -0.000351     -0.001428
   11 Atom    -14.726608     -0.002259      0.000518      0.000348
   12 Atom    -14.736988      0.000222     -0.002253      0.003014
   13 Atom    -14.732828     -0.001388      0.001369     -0.003451
   14 Atom    -14.742468     -0.002727      0.001139      0.001389
   15 Atom    -14.736339     -0.000512      0.000222     -0.000584
   16 Atom    -14.735576      0.002233     -0.000266      0.000418
   17 Atom    -14.734146      0.000657     -0.001334     -0.002100
   18 Atom    -14.690628      0.018345      0.011109     -0.004293
   19 Atom    -14.744680      0.000110     -0.001832     -0.002013
   20 Atom    -22.313839     -0.021659     -0.096602     -0.053201
   21 Atom     -1.105790      0.015855      0.028430     -0.003237
   22 Atom     -1.103330     -0.004268     -0.007505      0.030583
   23 Atom     -1.117899      0.000873      0.000739     -0.029483
   24 Atom     -1.118577     -0.013427     -0.027293      0.005743
   25 Atom     -1.106564      0.000639     -0.006554      0.028752
   26 Atom     -1.115955      0.020306     -0.017777     -0.009362
   27 Atom     -1.109029      0.014810      0.023545     -0.012117
   28 Atom     -1.102320     -0.002694      0.008665      0.028450
   29 Atom     -1.117626     -0.000316      0.001967     -0.031105
   30 Atom     -1.117638     -0.017002      0.024149      0.009392
   31 Atom     -1.119695     -0.001183      0.000768      0.034522
   32 Atom     -1.120370      0.002584      0.002922     -0.031306
   33 Atom     -1.122885      0.000245      0.000832     -0.031175
   34 Atom     -1.126065     -0.003143      0.001901     -0.031208
   35 Atom     -1.129308     -0.015611     -0.024975      0.006657
   36 Atom     -1.121369      0.002155     -0.009925      0.028324
   37 Atom     -1.122386      0.013291     -0.021066     -0.014117
   38 Atom     -1.120356      0.003948      0.026724     -0.014631
   39 Atom     -1.120968      0.005454      0.005291      0.028480
   40 Atom     -1.117953     -0.015311      0.014262     -0.020127
   41 Atom     -1.110399     -0.018074      0.004688      0.024909
   42 Atom     -1.127476      0.001428     -0.003157     -0.032611
   43 Atom     -1.115693     -0.016188      0.019975      0.014133
   44 Atom     -1.121724     -0.012773     -0.025835      0.003146
   45 Atom     -1.117520      0.025358      0.001202      0.013718
   46 Atom     -0.996532     -0.014532      0.009301      0.020990
 -----------------------------------------------------------------
 -----------------------------------------------------
    Center         ---- Electric Field Gradient ----
                     XX            YY            ZZ
 -----------------------------------------------------
    1 Atom     -493.279441   -493.211562   -493.947441
    2 Atom    -1217.223981  -1214.658618  -1217.594790
    3 Atom     -493.115696   -493.188242   -493.427801
    4 Atom     -493.173061   -493.275188   -493.841693
    5 Atom     -492.739206   -492.785038   -492.763924
    6 Atom     -492.612575   -492.584277   -492.582095
    7 Atom     -492.704730   -492.719492   -492.726759
    8 Atom     -492.580040   -492.622663   -492.594947
    9 Atom     -492.663559   -492.623056   -492.630055
   10 Atom     -492.765782   -492.787798   -492.775590
   11 Atom     -492.828743   -492.786660   -492.792916
   12 Atom     -492.912101   -492.928518   -492.913394
   13 Atom     -492.885663   -492.897111   -492.950854
   14 Atom     -492.695415   -492.648542   -492.663362
   15 Atom     -492.624244   -492.625476   -492.594862
   16 Atom     -492.664773   -492.600832   -492.586846
   17 Atom     -492.700291   -492.690313   -492.673797
   18 Atom     -492.900288   -492.857617   -492.661604
   19 Atom     -492.526084   -492.516728   -492.563482
   20 Atom    -1214.702924  -1213.954211  -1214.214302
   21 Atom       -1.692544     -1.960061     -1.593192
   22 Atom       -1.623709     -1.622600     -2.008652
   23 Atom       -1.619710     -1.615329     -2.035009
   24 Atom       -1.703209     -1.969434     -1.650222
   25 Atom       -1.598898     -1.604777     -2.008274
   26 Atom       -1.761342     -1.814945     -1.654783
   27 Atom       -1.726235     -1.876340     -1.685488
   28 Atom       -1.604961     -1.617775     -2.006613
   29 Atom       -1.624838     -1.624121     -2.049735
   30 Atom       -1.742058     -1.908453     -1.666142
   31 Atom       -1.645431     -1.643270     -2.064018
   32 Atom       -1.638253     -1.643610     -2.035515
   33 Atom       -1.647924     -1.641669     -2.047420
   34 Atom       -1.631338     -1.630088     -2.048831
   35 Atom       -1.690271     -1.956432     -1.645722
   36 Atom       -1.629751     -1.652347     -2.015792
   37 Atom       -1.716625     -1.846806     -1.745082
   38 Atom       -1.636898     -1.967127     -1.716482
   39 Atom       -1.630675     -1.633456     -2.036730
   40 Atom       -1.720413     -1.725132     -1.852127
   41 Atom       -1.771682     -1.633765     -1.918618
   42 Atom       -1.675714     -1.672022     -2.086016
   43 Atom       -1.761465     -1.796104     -1.707232
   44 Atom       -1.654537     -1.959296     -1.614588
   45 Atom       -1.962174     -1.604625     -1.695186
   46 Atom       -1.583256     -1.523885     -1.755378
 -----------------------------------------------------
 -----------------------------------------------------
    Center         ---- Electric Field Gradient ----
                     XY            XZ            YZ
 -----------------------------------------------------
    1 Atom       -0.009995      0.050130     -0.122776
    2 Atom       -0.216681      0.081163     -0.502125
    3 Atom       -0.011029     -0.030218     -0.027332
    4 Atom       -0.000654     -0.072245     -0.004173
    5 Atom       -0.025957     -0.010465     -0.002464
    6 Atom        0.028362     -0.003312     -0.026653
    7 Atom       -0.009028     -0.029532      0.003256
    8 Atom        0.023937     -0.020100     -0.009671
    9 Atom       -0.007091     -0.017847      0.019778
   10 Atom       -0.000948      0.008418      0.000089
   11 Atom       -0.005747     -0.017133     -0.009772
   12 Atom        0.021377     -0.003244     -0.001007
   13 Atom        0.002145      0.011515      0.013595
   14 Atom        0.009636     -0.010580     -0.024019
   15 Atom       -0.018534     -0.004189      0.017904
   16 Atom       -0.011773     -0.004736     -0.016351
   17 Atom       -0.011655      0.011734     -0.030336
   18 Atom       -0.190698      0.105153      0.099232
   19 Atom        0.012859      0.007486      0.006286
   20 Atom       -0.701752      1.521719     -0.393335
   21 Atom       -0.173021      0.019304      0.038756
   22 Atom       -0.005097      0.051830      0.045589
   23 Atom        0.001268      0.024756      0.017521
   24 Atom       -0.155647      0.041232      0.090012
   25 Atom       -0.005225      0.024904      0.054415
   26 Atom        0.185292      0.093914     -0.109624
   27 Atom       -0.160587      0.085863      0.136992
   28 Atom        0.004243      0.008492     -0.071505
   29 Atom       -0.002362     -0.000096      0.012532
   30 Atom        0.176609      0.067102     -0.108174
   31 Atom        0.000230     -0.023222      0.020633
   32 Atom       -0.005144      0.036032      0.054821
   33 Atom       -0.000641     -0.004161      0.013285
   34 Atom        0.006834     -0.038101      0.038047
   35 Atom       -0.151465      0.041733      0.090695
   36 Atom        0.007805     -0.039764      0.105384
   37 Atom        0.137392      0.102500     -0.163467
   38 Atom       -0.057690      0.028772      0.176871
   39 Atom       -0.008281     -0.044851     -0.065595
   40 Atom        0.101786     -0.152035      0.155082
   41 Atom        0.004935      0.206448     -0.013758
   42 Atom       -0.003459      0.033966     -0.028248
   43 Atom        0.173606      0.120818     -0.133163
   44 Atom       -0.146568      0.032360      0.071480
   45 Atom       -0.016084     -0.172338     -0.007599
   46 Atom        0.103151      0.249990     -0.188184
 -----------------------------------------------------
 -----------------------------------------------------
    Center         ---- Electric Field Gradient ----
                   ----       Eigenvalues       ----
 -----------------------------------------------------
    1 Atom     -493.970703   -493.279744   -493.187997
    2 Atom    -1217.682769  -1217.238826  -1214.555795
    3 Atom     -493.433953   -493.185937   -493.111849
    4 Atom     -493.849441   -493.275157   -493.165343
    5 Atom     -492.798044   -492.764553   -492.725571
    6 Atom     -492.633108   -492.597562   -492.548277
    7 Atom     -492.747493   -492.721557   -492.681930
    8 Atom     -492.633412   -492.607835   -492.556402
    9 Atom     -492.671331   -492.643630   -492.601710
   10 Atom     -492.787861   -492.780388   -492.760921
   11 Atom     -492.837239   -492.792377   -492.778702
   12 Atom     -492.943242   -492.913993   -492.896777
   13 Atom     -492.955741   -492.895747   -492.882140
   14 Atom     -492.698756   -492.680671   -492.627892
   15 Atom     -492.645623   -492.615978   -492.582981
   16 Atom     -492.667605   -492.608866   -492.575980
   17 Atom     -492.713978   -492.704739   -492.645684
   18 Atom     -493.116740   -492.687251   -492.615517
   19 Atom     -492.565244   -492.534889   -492.506161
   20 Atom    -1216.040688  -1214.315303  -1212.515447
   21 Atom       -2.049110     -1.607610     -1.589077
   22 Atom       -2.020791     -1.618034     -1.616136
   23 Atom       -2.037198     -1.619356     -1.613493
   24 Atom       -2.064771     -1.631525     -1.626569
   25 Atom       -2.017024     -1.599371     -1.595555
   26 Atom       -2.030781     -1.601193     -1.599097
   27 Atom       -2.050213     -1.624129     -1.613721
   28 Atom       -2.019545     -1.607593     -1.602210
   29 Atom       -2.050104     -1.626720     -1.621870
   30 Atom       -2.061465     -1.630319     -1.624869
   31 Atom       -2.066307     -1.644514     -1.641898
   32 Atom       -2.046286     -1.636121     -1.634972
   33 Atom       -2.047897     -1.647971     -1.641145
   34 Atom       -2.055764     -1.630670     -1.623824
   35 Atom       -2.049650     -1.622087     -1.620688
   36 Atom       -2.048045     -1.627850     -1.621994
   37 Atom       -2.054183     -1.629773     -1.624557
   38 Atom       -2.068208     -1.627600     -1.624700
   39 Atom       -2.052064     -1.626165     -1.622631
   40 Atom       -2.055968     -1.621122     -1.620582
   41 Atom       -2.064741     -1.634996     -1.624328
   42 Atom       -2.090665     -1.677456     -1.665632
   43 Atom       -2.048097     -1.612392     -1.604312
   44 Atom       -2.033032     -1.601621     -1.593767
   45 Atom       -2.047388     -1.610697     -1.603901
   46 Atom       -2.024590     -1.446233     -1.391695
 -----------------------------------------------------
 -----------------------------------------------------
    Center         ---- Electric Field Gradient ----
                       ( tensor representation )
                   3XX-RR        3YY-RR        3ZZ-RR
 -----------------------------------------------------
    1 Atom        0.200040      0.267919     -0.467960
    2 Atom       -0.731518      1.833845     -1.102327
    3 Atom        0.128217      0.055671     -0.183888
    4 Atom        0.256920      0.154793     -0.411713
    5 Atom        0.023517     -0.022315     -0.001201
    6 Atom       -0.019593      0.008705      0.010887
    7 Atom        0.012264     -0.002499     -0.009765
    8 Atom        0.019176     -0.023446      0.004270
    9 Atom       -0.024669      0.015834      0.008835
   10 Atom        0.010608     -0.011408      0.000800
   11 Atom       -0.025970      0.016113      0.009857
   12 Atom        0.005903     -0.010514      0.004611
   13 Atom        0.025546      0.014099     -0.039645
   14 Atom       -0.026309      0.020564      0.005745
   15 Atom       -0.009383     -0.010616      0.019999
   16 Atom       -0.047289      0.016652      0.030637
   17 Atom       -0.012158     -0.002179      0.014337
   18 Atom       -0.093785     -0.051114      0.144899
   19 Atom        0.009347      0.018704     -0.028051
   20 Atom       -0.412445      0.336268      0.076178
   21 Atom        0.056055     -0.211462      0.155407
   22 Atom        0.127945      0.129053     -0.256998
   23 Atom        0.136973      0.141353     -0.278326
   24 Atom        0.071079     -0.195146      0.124066
   25 Atom        0.138418      0.132539     -0.270958
   26 Atom       -0.017652     -0.071255      0.088907
   27 Atom        0.036453     -0.113652      0.077199
   28 Atom        0.138155      0.125341     -0.263497
   29 Atom        0.141394      0.142110     -0.283504
   30 Atom        0.030159     -0.136235      0.106076
   31 Atom        0.138809      0.140970     -0.279779
   32 Atom        0.134207      0.128849     -0.263056
   33 Atom        0.131080      0.137335     -0.268416
   34 Atom        0.138748      0.139998     -0.278745
   35 Atom        0.073871     -0.192290      0.118420
   36 Atom        0.136212      0.113616     -0.249829
   37 Atom        0.052879     -0.077302      0.024423
   38 Atom        0.136605     -0.193625      0.057020
   39 Atom        0.136279      0.133498     -0.269776
   40 Atom        0.045478      0.040758     -0.086236
   41 Atom        0.003006      0.140924     -0.143930
   42 Atom        0.135537      0.139229     -0.274765
   43 Atom       -0.006531     -0.041170      0.047702
   44 Atom        0.088270     -0.216489      0.128219
   45 Atom       -0.208179      0.149370      0.058809
   46 Atom        0.037584      0.096955     -0.134538
 -----------------------------------------------------
 -----------------------------------------------------
    Center         ---- Electric Field Gradient ----
                       ( tensor representation )
                   ----       Eigenvalues       ----
 -----------------------------------------------------
    1 Atom       -0.491221      0.199737      0.291484
    2 Atom       -1.190305     -0.746363      1.936668
    3 Atom       -0.190040      0.057976      0.132064
    4 Atom       -0.419460      0.154823      0.264637
    5 Atom       -0.035321     -0.001830      0.037151
    6 Atom       -0.040126     -0.004580      0.044706
    7 Atom       -0.030499     -0.004564      0.035063
    8 Atom       -0.034196     -0.008619      0.042814
    9 Atom       -0.032441     -0.004740      0.037180
   10 Atom       -0.011471     -0.003998      0.015469
   11 Atom       -0.034466      0.010396      0.024070
   12 Atom       -0.025238      0.004011      0.021227
   13 Atom       -0.044531      0.015462      0.029069
   14 Atom       -0.029650     -0.011565      0.041214
   15 Atom       -0.030762     -0.001118      0.031880
   16 Atom       -0.050121      0.008617      0.041504
   17 Atom       -0.025844     -0.016606      0.042450
   18 Atom       -0.310237      0.119251      0.190986
   19 Atom       -0.029813      0.000542      0.029271
   20 Atom       -1.750208     -0.024824      1.775032
   21 Atom       -0.300511      0.140989      0.159522
   22 Atom       -0.269137      0.133620      0.135518
   23 Atom       -0.280515      0.137326      0.143189
   24 Atom       -0.290483      0.142763      0.147720
   25 Atom       -0.279707      0.137946      0.141762
   26 Atom       -0.287090      0.142497      0.144594
   27 Atom       -0.287525      0.138559      0.148966
   28 Atom       -0.276429      0.135523      0.140906
   29 Atom       -0.283872      0.139511      0.144361
   30 Atom       -0.289248      0.141899      0.147349
   31 Atom       -0.282068      0.139726      0.142342
   32 Atom       -0.273826      0.136339      0.137488
   33 Atom       -0.268893      0.131033      0.137860
   34 Atom       -0.285678      0.139416      0.146262
   35 Atom       -0.285508      0.142055      0.143453
   36 Atom       -0.282082      0.138113      0.143969
   37 Atom       -0.284679      0.139731      0.144948
   38 Atom       -0.294705      0.145903      0.148802
   39 Atom       -0.285111      0.140788      0.144323
   40 Atom       -0.290078      0.144769      0.145309
   41 Atom       -0.290053      0.139692      0.150361
   42 Atom       -0.279414      0.133795      0.145619
   43 Atom       -0.293163      0.142542      0.150621
   44 Atom       -0.290225      0.141186      0.149040
   45 Atom       -0.293393      0.143298      0.150094
   46 Atom       -0.403751      0.174607      0.229144
 -----------------------------------------------------
 Unable to Open any file for archive entry.
 1\1\GINC-MIKE038\SP\RwB97XD\6-31G(d)\C18H26O2\ARKANIL\18-May-2026\0\\#
  wb97xd/6-31g(d) prop=efg\\19NT_md_min_distance_cutoff6\\0,1\C,0,4.019
 635,0.527268,0.79476\O,0,5.232554,0.834078,0.824692\C,0,3.323872,0.130
 553,1.976052\C,0,2.084,-0.420581,1.905814\C,0,1.280928,-0.438551,0.626
 331\C,0,1.800026,0.608636,-0.360029\C,0,3.307608,0.483167,-0.529641\C,
 0,1.558622,-1.155846,3.093997\C,0,0.044026,-1.115079,3.2445\C,0,-0.646
 387,-1.411123,1.916115\C,0,-0.238642,-0.338388,0.887935\C,0,-2.155449,
 -1.479749,2.060099\C,0,-2.90514,-1.717157,0.734164\C,0,-2.561394,-0.55
 9013,-0.209448\C,0,-1.044322,-0.42857,-0.420979\C,0,-2.761531,-2.51435
 7,3.014967\C,0,-4.252314,-2.547787,2.601922\C,0,-4.3439,-1.714497,1.29
 8477\C,0,-2.583109,-3.069737,0.071327\O,0,-5.36511,-2.156934,0.414708\
 H,0,3.895082,0.123696,2.900916\H,0,1.450207,-1.443851,0.199393\H,0,1.5
 5054,1.615827,0.0024\H,0,1.317971,0.488894,-1.333467\H,0,3.54726,-0.49
 1409,-0.982508\H,0,3.721711,1.256115,-1.185719\H,0,2.057142,-0.803489,
 4.002502\H,0,1.887893,-2.199017,2.956144\H,0,-0.270724,-0.126263,3.600
 685\H,0,-0.25784,-1.828377,4.017436\H,0,-0.276528,-2.372322,1.539412\H
 ,0,-0.440998,0.64344,1.344112\H,0,-2.482349,-0.490326,2.421743\H,0,-2.
 961335,0.374165,0.205117\H,0,-3.04128,-0.681725,-1.187745\H,0,-0.67699
 7,-1.27999,-1.010422\H,0,-0.86045,0.466519,-1.027473\H,0,-2.614536,-2.
 267984,4.068821\H,0,-2.310032,-3.50191,2.857384\H,0,-4.905795,-2.13265
 4,3.375456\H,0,-4.580363,-3.576432,2.419518\H,0,-4.601291,-0.676993,1.
 536528\H,0,-2.941834,-3.937544,0.63483\H,0,-3.051244,-3.120031,-0.9179
 33\H,0,-1.508677,-3.208761,-0.08436\H,0,-5.577509,-3.099568,0.588689\\
 Version=ES64L-G16RevC.01\State=1-A\HF=-851.7892119\RMSD=7.293e-09\Dipo
 le=-1.5810732,-1.0623902,0.4745379\Quadrupole=-22.4339236,10.6012626,1
 1.832661,-5.0697187,-3.1869511,-0.725301\PG=C01 [X(C18H26O2)]\\@
 The archive entry for this job was punched.


     ON THE SURVIVAL OF THE FITTEST -
 "STRONG REPRESENTATIVES FROM EACH PAST ERA THRIVE TODAY,
 SUCH AS PROGRAMMING IN THE THIRTY YEAR OLD LANGUAGE KNOWN
 AS FORTRAN, AND EVEN IN THE ANCIENT SCRIPT KNOWN AS DIRECT
 MACHINE CODE. SOME PEOPLE MIGHT LOOK ON SUCH RELICS AS LIVING
 FOSSILS; OTHERS WOULD POINT OUT THAT EVEN A VERY OLD SPECIES
 MIGHT STILL BE FILLING A PARTICULAR ECOLOGICAL NICHE."
     -- ALAN KAY, SCI.AM. SEPTEMBER 1984
 Job cpu time:       0 days  0 hours 16 minutes 45.2 seconds.
 Elapsed time:       0 days  0 hours  0 minutes 16.0 seconds.
 File lengths (MBytes):  RWF=     71 Int=      0 D2E=      0 Chk=      8 Scr=      1
 Normal termination of Gaussian 16 at Mon May 18 13:33:16 2026.
