 Entering Gaussian System, Link 0=g16
 Initial command:
 /cm/shared/apps/spack/cpu/opt/spack/linux-centos8-zen/gcc-8.3.1/gaussian-16.C.01-po5bqktfeugvmjyga3v7eigbecnokxng/g16/l1.exe "/scratch/hklem/job_32846259/Gau-587271.inp" -scrdir="/scratch/hklem/job_32846259/"
 Entering Link 1 = /cm/shared/apps/spack/cpu/opt/spack/linux-centos8-zen/gcc-8.3.1/gaussian-16.C.01-po5bqktfeugvmjyga3v7eigbecnokxng/g16/l1.exe PID=    587272.
  
 Copyright (c) 1988-2019, Gaussian, Inc.  All Rights Reserved.
  
 This is part of the Gaussian(R) 16 program.  It is based on
 the Gaussian(R) 09 system (copyright 2009, Gaussian, Inc.),
 the Gaussian(R) 03 system (copyright 2003, Gaussian, Inc.),
 the Gaussian(R) 98 system (copyright 1998, Gaussian, Inc.),
 the Gaussian(R) 94 system (copyright 1995, Gaussian, Inc.),
 the Gaussian 92(TM) system (copyright 1992, Gaussian, Inc.),
 the Gaussian 90(TM) system (copyright 1990, Gaussian, Inc.),
 the Gaussian 88(TM) system (copyright 1988, Gaussian, Inc.),
 the Gaussian 86(TM) system (copyright 1986, Carnegie Mellon
 University), and the Gaussian 82(TM) system (copyright 1983,
 Carnegie Mellon University). Gaussian is a federally registered
 trademark of Gaussian, Inc.
  
 This software contains proprietary and confidential information,
 including trade secrets, belonging to Gaussian, Inc.
  
 This software is provided under written license and may be
 used, copied, transmitted, or stored only in accord with that
 written license.
  
 The following legend is applicable only to US Government
 contracts under FAR:
  
                    RESTRICTED RIGHTS LEGEND
  
 Use, reproduction and disclosure by the US Government is
 subject to restrictions as set forth in subparagraphs (a)
 and (c) of the Commercial Computer Software - Restricted
 Rights clause in FAR 52.227-19.
  
 Gaussian, Inc.
 340 Quinnipiac St., Bldg. 40, Wallingford CT 06492
  
  
 ---------------------------------------------------------------
 Warning -- This program may not be used in any manner that
 competes with the business of Gaussian, Inc. or will provide
 assistance to any competitor of Gaussian, Inc.  The licensee
 of this program is prohibited from giving any competitor of
 Gaussian, Inc. access to this program.  By using this program,
 the user acknowledges that Gaussian, Inc. is engaged in the
 business of creating and licensing software in the field of
 computational chemistry and represents and warrants to the
 licensee that it is not a competitor of Gaussian, Inc. and that
 it will not use this program in any manner prohibited above.
 ---------------------------------------------------------------
  

 Cite this work as:
 Gaussian 16, Revision C.01,
 M. J. Frisch, G. W. Trucks, H. B. Schlegel, G. E. Scuseria, 
 M. A. Robb, J. R. Cheeseman, G. Scalmani, V. Barone, 
 G. A. Petersson, H. Nakatsuji, X. Li, M. Caricato, A. V. Marenich, 
 J. Bloino, B. G. Janesko, R. Gomperts, B. Mennucci, H. P. Hratchian, 
 J. V. Ortiz, A. F. Izmaylov, J. L. Sonnenberg, D. Williams-Young, 
 F. Ding, F. Lipparini, F. Egidi, J. Goings, B. Peng, A. Petrone, 
 T. Henderson, D. Ranasinghe, V. G. Zakrzewski, J. Gao, N. Rega, 
 G. Zheng, W. Liang, M. Hada, M. Ehara, K. Toyota, R. Fukuda, 
 J. Hasegawa, M. Ishida, T. Nakajima, Y. Honda, O. Kitao, H. Nakai, 
 T. Vreven, K. Throssell, J. A. Montgomery, Jr., J. E. Peralta, 
 F. Ogliaro, M. J. Bearpark, J. J. Heyd, E. N. Brothers, K. N. Kudin, 
 V. N. Staroverov, T. A. Keith, R. Kobayashi, J. Normand, 
 K. Raghavachari, A. P. Rendell, J. C. Burant, S. S. Iyengar, 
 J. Tomasi, M. Cossi, J. M. Millam, M. Klene, C. Adamo, R. Cammi, 
 J. W. Ochterski, R. L. Martin, K. Morokuma, O. Farkas, 
 J. B. Foresman, and D. J. Fox, Gaussian, Inc., Wallingford CT, 2019.
 
 ******************************************
 Gaussian 16:  ES64L-G16RevC.01  3-Jul-2019
                 7-Aug-2024 
 ******************************************
 %nprocshared=12
 Will use up to   12 processors via shared memory.
 %mem=24GB
 ------------------------
 # 6-31G* wB97XD prop=efg
 ------------------------
 1/38=1,172=1/1;
 2/12=2,17=6,18=5,40=1/2;
 3/5=1,6=6,7=1,11=2,25=1,30=1,74=-58/1,2,3;
 4//1;
 5/5=2,38=5/2;
 6/7=2,8=2,9=2,10=2,14=1,28=1/1,2;
 99/5=1,9=1/99;
 ---------------------------------------------------
 19nt_mm_min_distance_cutoff3_from_cutoff6_nowat_efg
 ---------------------------------------------------
 Symbolic Z-matrix:
 Charge = -1 Multiplicity = 1
 H                    -8.562    -7.359    -3.047 
 C                    -8.127    -6.359    -2.919 
 H                    -8.353    -5.775    -3.815 
 C                    -8.738    -5.68     -1.68 
 H                    -9.823    -5.623    -1.818 
 H                    -8.574    -6.298    -0.788 
 C                    -8.165    -4.304    -1.456 
 C                    -8.703    -3.178    -2.083 
 H                    -9.595    -3.279    -2.697 
 C                    -8.128    -1.923    -1.927 
 H                    -8.555    -1.046    -2.403 
 C                    -6.984    -1.787    -1.145 
 O                    -6.412    -0.558    -1.026 
 H                    -5.793    -0.543    -0.242 
 C                    -6.43     -2.895    -0.507 
 H                    -5.547    -2.784     0.115 
 C                    -7.029    -4.137    -0.665 
 H                    -6.595    -4.998    -0.166 
 H                    -7.041    -6.444    -2.893 
 H                    -3.414    -4.86     -5.235 
 C                    -2.51     -4.267    -5.06 
 H                    -2.691    -3.257    -5.448 
 C                    -2.18     -4.214    -3.562 
 H                    -2.022    -5.246    -3.216 
 C                    -0.897    -3.422    -3.307 
 H                    -0.038    -3.849    -3.838 
 H                    -1.017    -2.39     -3.651 
 H                    -0.652    -3.385    -2.239 
 C                    -3.342    -3.63     -2.754 
 H                    -3.092    -3.583    -1.686 
 H                    -4.25     -4.23     -2.87 
 H                    -3.574    -2.609    -3.089 
 H                    -1.684    -4.705    -5.634 
 H                    -4.991     7.303     4.483 
 C                    -4.207     6.543     4.368 
 H                    -4.261     5.882     5.236 
 C                    -4.448     5.745     3.087 
 H                    -4.397     6.419     2.224 
 H                    -5.457     5.315     3.091 
 C                    -3.432     4.608     2.865 
 O                    -2.474     4.547     3.691 
 O                    -3.62      3.839     1.896 
 H                    -3.258     7.078     4.321 
 H                     1.206     5.295    -5.158 
 C                     1.598     4.64     -4.379 
 H                     0.823     4.527    -3.617 
 H                     2.474     5.091    -3.905 
 C                     2.039     3.236    -4.814 
 O                     2.806     2.596    -4.107 
 N                     1.5       2.766    -5.965 
 H                     0.877     3.389    -6.461 
 C                     1.802     1.467    -6.557 
 H                     2.548     0.998    -5.91 
 C                     0.544     0.598    -6.664 
 H                    -0.123     1.042    -7.418 
 H                     0.847    -0.376    -7.064 
 C                    -0.229     0.419    -5.353 
 H                    -0.545     1.414    -5.005 
 C                    -1.489    -0.411    -5.609 
 H                    -2.086    -0.521    -4.696 
 H                    -2.125     0.047    -6.376 
 H                    -1.227    -1.419    -5.954 
 C                     0.635    -0.207    -4.258 
 H                     1.056    -1.164    -4.591 
 H                     1.459     0.451    -3.963 
 H                     0.038    -0.405    -3.362 
 H                     2.241     1.577    -7.549 
 H                     5.578    -2.632    -5.604 
 C                     5.211    -2.915    -4.613 
 H                     6.036    -2.864    -3.894 
 C                     4.089    -1.944    -4.181 
 H                     3.251    -2.075    -4.879 
 C                     3.597    -2.217    -2.756 
 H                     3.149    -3.21     -2.649 
 H                     4.427    -2.156    -2.041 
 H                     2.846    -1.474    -2.465 
 C                     4.597    -0.506    -4.31 
 H                     5.447    -0.335    -3.638 
 H                     4.927    -0.287    -5.332 
 H                     3.822     0.221    -4.045 
 H                     4.876    -3.949    -4.697 
 H                    -1.934    -7.253     6.418 
 C                    -1.175    -7.516     5.673 
 H                    -0.894    -8.563     5.828 
 C                    -1.705    -7.295     4.248 
 H                    -0.937    -7.599     3.526 
 H                    -2.567    -7.955     4.081 
 C                    -2.116    -5.865     3.971 
 C                    -1.378    -5.046     3.113 
 H                    -0.486    -5.444     2.631 
 C                    -1.771    -3.732     2.858 
 H                    -1.191    -3.111     2.181 
 C                    -2.901    -3.21      3.476 
 H                    -3.218    -2.188     3.298 
 C                    -3.63     -4.007     4.356 
 H                    -4.483    -3.578     4.873 
 C                    -3.249    -5.324     4.588 
 H                    -3.837    -5.945     5.261 
 H                    -0.296    -6.891     5.859 
 H                     3.2      -4.544     2.664 
 C                     3.546    -4.446     1.631 
 H                     3.263    -5.343     1.071 
 C                     2.906    -3.208     0.968 
 H                     3.421    -3.039     0.013 
 C                     1.432    -3.472     0.669 
 H                     0.888    -3.696     1.595 
 H                     1.323    -4.321    -0.012 
 H                     0.961    -2.597     0.203 
 C                     3.062    -1.958     1.833 
 H                     2.534    -2.081     2.788 
 H                     2.643    -1.081     1.329 
 H                     4.109    -1.744     2.057 
 H                     4.632    -4.365     1.662 
 H                     8.708    -2.785    -1.017 
 C                     9.017    -2.09     -1.798 
 H                     9.171    -2.644    -2.735 
 C                     7.945    -1.01     -2.058 
 H                     7.061    -1.52     -2.444 
 H                     8.292    -0.368    -2.878 
 C                     7.539    -0.144    -0.854 
 H                     8.398     0.085    -0.214 
 H                     7.144     0.816    -1.202 
 S                     6.235    -0.901     0.191 
 C                     7.112    -1.151     1.756 
 H                     8.089    -1.601     1.564 
 H                     7.24     -0.209     2.297 
 H                     6.523    -1.852     2.354 
 H                     9.997    -1.698    -1.524 
 H                     6.289    -2.955     5.384 
 C                     5.669    -2.278     5.98 
 H                     6.296    -1.836     6.763 
 C                     5.023    -1.227     5.085 
 H                     4.537    -1.747     4.253 
 H                     5.803    -0.595     4.633 
 C                     4.       -0.318     5.779 
 H                     3.194    -0.956     6.174 
 C                     4.608     0.454     6.952 
 H                     4.966    -0.215     7.744 
 H                     5.458     1.062     6.614 
 H                     3.87      1.132     7.393 
 C                     3.385     0.648     4.766 
 H                     2.936     0.104     3.928 
 H                     4.159     1.308     4.353 
 H                     2.612     1.279     5.218 
 H                     4.903    -2.885     6.478 
 H                     0.457    -3.01      7.405 
 C                    -0.472    -2.464     7.612 
 H                    -0.208    -1.571     8.192 
 C                    -1.191    -2.084     6.316 
 H                    -1.415    -3.013     5.776 
 C                    -2.516    -1.383     6.619 
 H                    -3.069    -1.14      5.707 
 H                    -3.165    -2.015     7.238 
 H                    -2.338    -0.449     7.169 
 C                    -0.309    -1.218     5.411 
 H                    -0.812    -1.024     4.455 
 H                     0.646    -1.711     5.192 
 H                    -0.091    -0.248     5.876 
 H                    -1.104    -3.1       8.242 
 H                    -6.704    -2.942     6.102 
 C                    -6.887    -1.899     6.381 
 H                    -5.955    -1.492     6.782 
 C                    -7.347    -1.089     5.175 
 H                    -8.247    -1.512     4.716 
 H                    -7.59     -0.057     5.458 
 C                    -6.266    -0.99      4.129 
 O                    -5.078    -1.085     4.372 
 O                    -6.738    -0.783     2.908 
 H                    -5.961    -0.669     2.301 
 H                    -7.645    -1.887     7.17 
 H                    -5.904     2.942     6.48 
 C                    -5.118     2.181     6.526 
 H                    -5.587     1.232     6.813 
 C                    -4.403     2.054     5.183 
 H                    -3.652     1.256     5.209 
 H                    -3.903     2.985     4.905 
 H                    -5.109     1.809     4.385 
 H                    -4.424     2.465     7.327 
 H                    -0.803     2.67      10.019 
 C                     0.194     2.238     9.881 
 H                     0.409     1.581     10.731 
 C                     0.265     1.475     8.552 
 H                     1.251     1.001     8.454 
 H                    -0.466     0.657     8.569 
 C                    -0.003     2.347     7.363 
 C                    -1.186     2.45      6.675 
 H                    -2.109     1.907     6.826 
 N                    -1.092     3.389     5.684 
 H                    -1.788     3.658     4.976 
 C                     0.17      3.911     5.698 
 C                     0.735     4.874     4.854 
 H                     0.142     5.309     4.055 
 C                     2.052     5.228     5.093 
 H                     2.53      5.968     4.457 
 C                     2.79      4.636     6.14 
 H                     3.822     4.938     6.296 
 C                     2.224     3.68      6.966 
 H                     2.804     3.235     7.771 
 C                     0.891     3.292     6.748 
 H                     0.916     3.063     9.894 
 C                    -3.721    -0.056     0.898 
 O                    -4.878    -0.514     1.049 
 C                    -2.91      0.343     2.001 
 C                    -1.727     0.989     1.806 
 C                    -1.1       1.117     0.435 
 C                    -1.698     0.123    -0.56 
 C                    -3.214     0.145    -0.503 
 C                    -1.071     1.701     2.938 
 C                     0.458     1.745     2.888 
 C                     0.964     2.101     1.489 
 C                     0.439     1.026     0.512 
 C                     2.481     2.2       1.408 
 C                     3.006     2.408    -0.026 
 C                     2.598     1.206    -0.877 
 C                     1.075     1.044    -0.889 
 C                     3.201     3.29      2.214 
 C                     4.597     3.386     1.537 
 C                     4.514     2.508     0.27 
 C                     2.518     3.714    -0.678 
 O                     5.306     3.055    -0.775 
 H                    -3.349     0.26      2.991 
 H                    -1.355     2.139     0.102 
 H                    -1.333    -0.888    -0.328 
 H                    -1.37      0.357    -1.576 
 H                    -3.588     1.127    -0.83 
 H                    -3.661    -0.613    -1.156 
 H                    -1.422     1.295     3.891 
 H                    -1.48      2.728     2.889 
 H                     0.869     0.768     3.176 
 H                     0.816     2.466     3.626 
 H                     0.531     3.074     1.212 
 H                     0.689     0.049     0.961 
 H                     2.886     1.23      1.743 
 H                     3.064     0.3      -0.464 
 H                     2.951     1.31     -1.911 
 H                     0.626     1.845    -1.493 
 H                     0.831     0.107    -1.4 
 H                     3.258     3.059     3.28 
 H                     2.657     4.238     2.135 
 H                     5.398     3.042     2.199 
 H                     4.841     4.412     1.245 
 H                     4.875     1.497     0.504 
 H                     2.895     4.599    -0.158 
 H                     2.872     3.76     -1.713 
 H                     1.426     3.782    -0.695 
 H                     5.045     2.609    -1.591 
 
 Stoichiometry    C84H151N2O8S(1-)
 Framework group  C1[X(C84H151N2O8S)]
 Deg. of freedom   732
 Full point group                 C1      NOp   1
 Largest Abelian subgroup         C1      NOp   1
 Largest concise Abelian subgroup C1      NOp   1
                         Standard orientation:                         
 ---------------------------------------------------------------------
 Center     Atomic      Atomic             Coordinates (Angstroms)
 Number     Number       Type             X           Y           Z
 ---------------------------------------------------------------------
      1          1           0        7.396641    8.770609    2.700401
      2          6           0        6.842510    8.177189    1.961212
      3          1           0        6.607457    8.826780    1.114023
      4          6           0        7.705466    6.991905    1.492286
      5          1           0        8.632428    7.388363    1.064405
      6          1           0        8.002482    6.374965    2.349987
      7          6           0        6.983454    6.139571    0.480305
      8          6           0        7.018626    6.437818   -0.883609
      9          1           0        7.631089    7.263774   -1.237933
     10          6           0        6.295046    5.689338   -1.803498
     11          1           0        6.334135    5.912775   -2.864904
     12          6           0        5.506275    4.632575   -1.356453
     13          8           0        4.777442    3.927315   -2.263755
     14          1           0        4.492200    3.054720   -1.869728
     15          6           0        5.456811    4.313675   -0.000916
     16          1           0        4.853379    3.479405    0.343694
     17          6           0        6.198879    5.065743    0.899116
     18          1           0        6.158413    4.814107    1.954445
     19          1           0        5.880125    7.890504    2.384206
     20          1           0        1.412778    8.425038    1.432244
     21          6           0        0.531393    7.809709    1.222435
     22          1           0        0.350922    7.839927    0.140806
     23          6           0        0.758025    6.364644    1.687342
     24          1           0        0.948846    6.386080    2.770316
     25          6           0       -0.480380    5.503352    1.436528
     26          1           0       -1.366322    5.898708    1.947382
     27          1           0       -0.705090    5.469838    0.365948
     28          1           0       -0.327500    4.470741    1.771731
     29          6           0        1.987382    5.747497    1.015051
     30          1           0        2.133669    4.709919    1.342714
     31          1           0        2.895026    6.313800    1.246140
     32          1           0        1.870149    5.740270   -0.077970
     33          1           0       -0.337694    8.256345    1.721234
     34          1           0        3.858661   -4.213535   -7.464337
     35          6           0        3.258333   -4.048677   -6.559954
     36          1           0        3.754038   -4.569607   -5.737659
     37          6           0        3.180506   -2.552105   -6.259851
     38          1           0        2.686677   -2.039521   -7.093540
     39          1           0        4.188562   -2.126938   -6.182056
     40          6           0        2.407342   -2.218394   -4.969439
     41          8           0        1.843943   -3.192833   -4.389086
     42          8           0        2.387381   -1.025025   -4.593753
     43          1           0        2.268065   -4.457169   -6.763763
     44          1           0       -4.838070    3.434987   -6.345971
     45          6           0       -4.781738    2.870470   -5.414479
     46          1           0       -3.779216    2.441402   -5.344566
     47          1           0       -5.501284    2.047274   -5.421931
     48          6           0       -5.053276    3.646478   -4.118716
     49          8           0       -5.367386    3.039189   -3.103692
     50          7           0       -4.879907    4.989263   -4.174335
     51          1           0       -4.617699    5.375431   -5.071216
     52          6           0       -5.102650    5.905057   -3.060434
     53          1           0       -5.454054    5.295194   -2.223973
     54          6           0       -3.818159    6.655357   -2.691237
     55          1           0       -3.572032    7.348318   -3.509630
     56          1           0       -4.039137    7.282132   -1.820141
     57          6           0       -2.606834    5.759782   -2.410296
     58          1           0       -2.396975    5.175334   -3.318792
     59          6           0       -1.381986    6.629468   -2.118012
     60          1           0       -0.487957    6.016373   -1.953987
     61          1           0       -1.171615    7.320570   -2.943040
     62          1           0       -1.538938    7.230565   -1.213700
     63          6           0       -2.872796    4.774983   -1.271510
     64          1           0       -3.180645    5.303870   -0.360749
     65          1           0       -3.651482    4.050773   -1.532533
     66          1           0       -1.966926    4.208856   -1.032075
     67          1           0       -5.881155    6.631439   -3.295348
     68          1           0       -7.363414    5.513129    2.107111
     69          6           0       -6.615561    4.830652    2.521599
     70          1           0       -7.119099    3.947234    2.929286
     71          6           0       -5.636589    4.398283    1.406691
     72          1           0       -5.097355    5.295397    1.073491
     73          6           0       -4.621069    3.358842    1.891974
     74          1           0       -3.972130    3.743588    2.685101
     75          1           0       -5.132637    2.474024    2.291026
     76          1           0       -3.984121    3.034161    1.061547
     77          6           0       -6.438821    3.856099    0.221361
     78          1           0       -7.006479    2.964476    0.514787
     79          1           0       -7.151059    4.599385   -0.154921
     80          1           0       -5.786090    3.566899   -0.609111
     81          1           0       -6.129768    5.370012    3.334946
     82          1           0        4.737884   -1.507918    7.262279
     83          6           0        3.832717   -0.953806    7.534137
     84          1           0        3.845981   -0.789861    8.616792
     85          6           0        3.758571    0.381293    6.777579
     86          1           0        2.861828    0.927262    7.095845
     87          1           0        4.618242    1.002318    7.063631
     88          6           0        3.741782    0.223007    5.272516
     89          6           0        2.594505    0.492618    4.522427
     90          1           0        1.690192    0.824837    5.030602
     91          6           0        2.592879    0.351748    3.134543
     92          1           0        1.694880    0.574226    2.564920
     93          6           0        3.737501   -0.082145    2.476602
     94          1           0        3.753861   -0.206782    1.399172
     95          6           0        4.879996   -0.381773    3.215505
     96          1           0        5.755038   -0.766987    2.700868
     97          6           0        4.884902   -0.216047    4.596079
     98          1           0        5.788751   -0.432789    5.162112
     99          1           0        2.971524   -1.583741    7.290432
    100          1           0       -1.838457   -0.528403    5.369809
    101          6           0       -2.544541    0.264090    5.105594
    102          1           0       -2.304993    1.164541    5.680139
    103          6           0       -2.452243    0.581615    3.598122
    104          1           0       -3.298708    1.233075    3.343351
    105          6           0       -1.163365    1.343100    3.296946
    106          1           0       -0.289688    0.745246    3.584776
    107          1           0       -1.135529    2.287024    3.848921
    108          1           0       -1.080206    1.570258    2.226383
    109          6           0       -2.538580   -0.684118    2.746342
    110          1           0       -1.689656   -1.348679    2.955207
    111          1           0       -2.516833   -0.437866    1.679761
    112          1           0       -3.455313   -1.244943    2.939361
    113          1           0       -3.538983   -0.087043    5.378923
    114          1           0       -8.535461    0.627970    4.478272
    115          6           0       -9.239093    0.989911    3.728360
    116          1           0       -9.602877    1.984383    4.023804
    117          6           0       -8.576407    1.122008    2.340347
    118          1           0       -7.805939    1.890179    2.423086
    119          1           0       -9.317844    1.527604    1.639821
    120          6           0       -7.950856   -0.155162    1.755599
    121          1           0       -8.550030   -1.041632    1.990296
    122          1           0       -7.911868   -0.084589    0.663706
    123         16           0       -6.233589   -0.460686    2.324053
    124          6           0       -6.419275   -2.004217    3.253508
    125          1           0       -7.286247   -1.934971    3.914914
    126          1           0       -6.533660   -2.861988    2.584498
    127          1           0       -5.525136   -2.124864    3.871477
    128          1           0      -10.113150    0.338302    3.752235
    129          1           0       -3.998914   -4.366236    5.631921
    130          6           0       -3.358276   -4.974676    4.985910
    131          1           0       -3.738242   -6.002853    4.993653
    132          6           0       -3.305698   -4.380958    3.583171
    133          1           0       -3.055837   -3.319074    3.676931
    134          1           0       -4.307283   -4.417381    3.127507
    135          6           0       -2.310152   -5.051497    2.627289
    136          1           0       -1.304135   -4.955008    3.064696
    137          6           0       -2.600048   -6.541739    2.435669
    138          1           0       -2.505227   -7.103584    3.372860
    139          1           0       -3.619548   -6.690162    2.054883
    140          1           0       -1.907814   -6.980282    1.709514
    141          6           0       -2.310850   -4.330182    1.279233
    142          1           0       -2.091947   -3.264295    1.404720
    143          1           0       -3.298674   -4.409893    0.806904
    144          1           0       -1.573205   -4.752073    0.587944
    145          1           0       -2.358020   -4.992122    5.435790
    146          1           0        2.049509   -4.569570    4.417454
    147          6           0        2.858575   -4.699894    3.687774
    148          1           0        2.644329   -5.611596    3.116422
    149          6           0        2.970461   -3.486146    2.762963
    150          1           0        3.169985   -2.607958    3.390493
    151          6           0        4.143045   -3.650856    1.795103
    152          1           0        4.269596   -2.775174    1.151855
    153          1           0        5.085299   -3.798919    2.337340
    154          1           0        3.987987   -4.527311    1.151424
    155          6           0        1.665575   -3.230597    2.002128
    156          1           0        1.740779   -2.311496    1.406998
    157          1           0        0.817712   -3.115763    2.688405
    158          1           0        1.436219   -4.055061    1.314884
    159          1           0        3.790112   -4.860931    4.241962
    160          1           0        8.089452   -1.491651    1.766444
    161          6           0        8.143615   -2.067913    0.836838
    162          1           0        7.355825   -2.825249    0.866883
    163          6           0        7.964254   -1.160019   -0.373821
    164          1           0        8.705334   -0.353823   -0.395218
    165          1           0        8.076740   -1.719621   -1.311027
    166          6           0        6.583908   -0.555405   -0.413386
    167          8           0        5.608599   -1.059715    0.109934
    168          8           0        6.533058    0.587032   -1.083256
    169          1           0        5.584176    0.876905   -1.111005
    170          1           0        9.114860   -2.570847    0.805713
    171          1           0        6.296691   -4.171959   -3.234186
    172          6           0        5.752566   -4.150926   -2.284176
    173          1           0        6.476301   -3.936987   -1.488332
    174          6           0        4.644974   -3.100507   -2.313548
    175          1           0        4.133087   -3.038777   -1.346262
    176          1           0        3.899909   -3.324369   -3.080887
    177          1           0        5.051326   -2.108736   -2.529265
    178          1           0        5.350267   -5.156216   -2.106862
    179          1           0        2.977484   -8.613046   -0.427352
    180          6           0        2.108020   -8.603902    0.238700
    181          1           0        2.351458   -9.183092    1.136281
    182          6           0        1.721668   -7.161676    0.591072
    183          1           0        0.885153   -7.170061    1.302864
    184          1           0        2.560335   -6.683206    1.112108
    185          6           0        1.360907   -6.343368   -0.611490
    186          6           0        2.170216   -5.446276   -1.262402
    187          1           0        3.175786   -5.134725   -1.014726
    188          7           0        1.537215   -4.926904   -2.358851
    189          1           0        1.861961   -4.203887   -3.014463
    190          6           0        0.286445   -5.469916   -2.436555
    191          6           0       -0.727613   -5.217967   -3.367757
    192          1           0       -0.563206   -4.501652   -4.167218
    193          6           0       -1.913407   -5.915912   -3.213841
    194          1           0       -2.728055   -5.745385   -3.912303
    195          6           0       -2.088788   -6.836038   -2.158414
    196          1           0       -3.034227   -7.363932   -2.068760
    197          6           0       -1.081711   -7.074187   -1.238822
    198          1           0       -1.230085   -7.788720   -0.432672
    199          6           0        0.133130   -6.378356   -1.361040
    200          1           0        1.286897   -9.109230   -0.283294
    201          6           0        2.915259    1.300307   -1.354709
    202          8           0        4.116607    1.644533   -1.257315
    203          6           0        2.491411   -0.047681   -1.162847
    204          6           0        1.212243   -0.427633   -1.435238
    205          6           0        0.122737    0.579457   -1.731721
    206          6           0        0.512725    1.988403   -1.286248
    207          6           0        1.909381    2.340291   -1.763235
    208          6           0        0.876143   -1.872615   -1.568533
    209          6           0       -0.543298   -2.258121   -1.145626
    210          6           0       -1.579157   -1.275663   -1.694942
    211          6           0       -1.232670    0.126719   -1.148087
    212          6           0       -3.010018   -1.650136   -1.334308
    213          6           0       -4.045569   -0.588115   -1.752629
    214          6           0       -3.734488    0.716049   -1.019243
    215          6           0       -2.318714    1.197888   -1.349897
    216          6           0       -3.598569   -2.958199   -1.880857
    217          6           0       -5.132663   -2.767057   -1.718439
    218          6           0       -5.333044   -1.296869   -1.292462
    219          6           0       -4.101619   -0.346156   -3.271576
    220          8           0       -6.541190   -0.776752   -1.829454
    221          1           0        3.263691   -0.782036   -0.953046
    222          1           0        0.026966    0.576314   -2.832273
    223          1           0        0.469800    2.047883   -0.189075
    224          1           0       -0.198595    2.721458   -1.675158
    225          1           0        1.932299    2.378488   -2.862846
    226          1           0        2.236543    3.317914   -1.391752
    227          1           0        1.620860   -2.481073   -1.047553
    228          1           0        1.021598   -2.089229   -2.643861
    229          1           0       -0.614939   -2.273352   -0.049712
    230          1           0       -0.751334   -3.274099   -1.487910
    231          1           0       -1.482714   -1.262840   -2.791063
    232          1           0       -1.099863    0.011459   -0.058267
    233          1           0       -3.060743   -1.708205   -0.233761
    234          1           0       -3.825807    0.548735    0.063451
    235          1           0       -4.448530    1.505369   -1.287009
    236          1           0       -2.290060    1.568950   -2.384068
    237          1           0       -2.088930    2.058511   -0.713381
    238          1           0       -3.220536   -3.841246   -1.360967
    239          1           0       -3.324827   -3.082926   -2.934607
    240          1           0       -5.554262   -3.450375   -0.974455
    241          1           0       -5.668982   -2.943408   -2.655850
    242          1           0       -5.371608   -1.238090   -0.195988
    243          1           0       -4.438695   -1.232048   -3.816855
    244          1           0       -4.805103    0.464745   -3.486533
    245          1           0       -3.127071   -0.059733   -3.678509
    246          1           0       -6.505589    0.183162   -1.728502
 ---------------------------------------------------------------------
 Rotational constants (GHZ):           0.0153556           0.0136336           0.0106139
 Standard basis: 6-31G(d) (6D, 7F)
 There are  1731 symmetry adapted cartesian basis functions of A   symmetry.
 There are  1731 symmetry adapted basis functions of A   symmetry.
  1731 basis functions,  3288 primitive gaussians,  1731 cartesian basis functions
   375 alpha electrons      375 beta electrons
       nuclear repulsion energy     21275.8513565397 Hartrees.
 NAtoms=  246 NActive=  246 NUniq=  246 SFac= 1.00D+00 NAtFMM=   60 NAOKFM=T Big=T
 Integral buffers will be    131072 words long.
 Raffenetti 2 integral format.
 Two-electron integral symmetry is turned on.
 Nuclear repulsion after empirical dispersion term =    21275.5699841521 Hartrees.
 One-electron integrals computed using PRISM.
 NBasis=  1731 RedAO= T EigKep=  3.60D-04  NBF=  1731
 NBsUse=  1731 1.00D-06 EigRej= -1.00D+00 NBFU=  1731
 ExpMin= 1.17D-01 ExpMax= 2.19D+04 ExpMxC= 3.30D+03 IAcc=3 IRadAn=         5 AccDes= 0.00D+00
 Harris functional with IExCor= 4639 and IRadAn=       5 diagonalized for initial guess.
 HarFok:  IExCor= 4639 AccDes= 0.00D+00 IRadAn=         5 IDoV= 1 UseB2=F ITyADJ=14
 ICtDFT=  3500011 ScaDFX=  1.000000  1.000000  1.000000  1.000000
 FoFCou: FMM=F IPFlag=           0 FMFlag=      100000 FMFlg1=        2001
         NFxFlg=           0 DoJE=T BraDBF=F KetDBF=T FulRan=T
         wScrn=  0.000000 ICntrl=       500 IOpCl=  0 I1Cent=   200000004 NGrid=           0
         NMat0=    1 NMatS0=      1 NMatT0=    0 NMatD0=    1 NMtDS0=    0 NMtDT0=    0
 Petite list used in FoFCou.
 Requested convergence on RMS density matrix=1.00D-08 within 128 cycles.
 Requested convergence on MAX density matrix=1.00D-06.
 Requested convergence on             energy=1.00D-06.
 No special actions if energy rises.
 Integral accuracy reduced to 1.0D-05 until final iterations.
 Initial convergence to 1.0D-05 achieved.  Increase integral accuracy.
 SCF Done:  E(RwB97XD) =  -4400.49437495     A.U. after   14 cycles
            NFock= 14  Conv=0.81D-08     -V/T= 2.0090
 Hyperfine terms turned off by default for NAtoms > 100.

 **********************************************************************

            Population analysis using the SCF Density.

 **********************************************************************

 Orbital symmetries:
       Occupied  (A) (A) (A) (A) (A) (A) (A) (A) (A) (A) (A) (A)
                 (A) (A) (A) (A) (A) (A) (A) (A) (A) (A) (A) (A)
                 (A) (A) (A) (A) (A) (A) (A) (A) (A) (A) (A) (A)
                 (A) (A) (A) (A) (A) (A) (A) (A) (A) (A) (A) (A)
                 (A) (A) (A) (A) (A) (A) (A) (A) (A) (A) (A) (A)
                 (A) (A) (A) (A) (A) (A) (A) (A) (A) (A) (A) (A)
                 (A) (A) (A) (A) (A) (A) (A) (A) (A) (A) (A) (A)
                 (A) (A) (A) (A) (A) (A) (A) (A) (A) (A) (A) (A)
                 (A) (A) (A) (A) (A) (A) (A) (A) (A) (A) (A) (A)
                 (A) (A) (A) (A) (A) (A) (A) (A) (A) (A) (A) (A)
                 (A) (A) (A) (A) (A) (A) (A) (A) (A) (A) (A) (A)
                 (A) (A) (A) (A) (A) (A) (A) (A) (A) (A) (A) (A)
                 (A) (A) (A) (A) (A) (A) (A) (A) (A) (A) (A) (A)
                 (A) (A) (A) (A) (A) (A) (A) (A) (A) (A) (A) (A)
                 (A) (A) (A) (A) (A) (A) (A) (A) (A) (A) (A) (A)
                 (A) (A) (A) (A) (A) (A) (A) (A) (A) (A) (A) (A)
                 (A) (A) (A) (A) (A) (A) (A) (A) (A) (A) (A) (A)
                 (A) (A) (A) (A) (A) (A) (A) (A) (A) (A) (A) (A)
                 (A) (A) (A) (A) (A) (A) (A) (A) (A) (A) (A) (A)
                 (A) (A) (A) (A) (A) (A) (A) (A) (A) (A) (A) (A)
                 (A) (A) (A) (A) (A) (A) (A) (A) (A) (A) (A) (A)
                 (A) (A) (A) (A) (A) (A) (A) (A) (A) (A) (A) (A)
                 (A) (A) (A) (A) (A) (A) (A) (A) (A) (A) (A) (A)
                 (A) (A) (A) (A) (A) (A) (A) (A) (A) (A) (A) (A)
                 (A) (A) (A) (A) (A) (A) (A) (A) (A) (A) (A) (A)
                 (A) (A) (A) (A) (A) (A) (A) (A) (A) (A) (A) (A)
                 (A) (A) (A) (A) (A) (A) (A) (A) (A) (A) (A) (A)
                 (A) (A) (A) (A) (A) (A) (A) (A) (A) (A) (A) (A)
                 (A) (A) (A) (A) (A) (A) (A) (A) (A) (A) (A) (A)
                 (A) (A) (A) (A) (A) (A) (A) (A) (A) (A) (A) (A)
                 (A) (A) (A) (A) (A) (A) (A) (A) (A) (A) (A) (A)
                 (A) (A) (A)
       Virtual   (A) (A) (A) (A) (A) (A) (A) (A) (A) (A) (A) (A)
                 (A) (A) (A) (A) (A) (A) (A) (A) (A) (A) (A) (A)
                 (A) (A) (A) (A) (A) (A) (A) (A) (A) (A) (A) (A)
                 (A) (A) (A) (A) (A) (A) (A) (A) (A) (A) (A) (A)
                 (A) (A) (A) (A) (A) (A) (A) (A) (A) (A) (A) (A)
                 (A) (A) (A) (A) (A) (A) (A) (A) (A) (A) (A) (A)
                 (A) (A) (A) (A) (A) (A) (A) (A) (A) (A) (A) (A)
                 (A) (A) (A) (A) (A) (A) (A) (A) (A) (A) (A) (A)
                 (A) (A) (A) (A) (A) (A) (A) (A) (A) (A) (A) (A)
                 (A) (A) (A) (A) (A) (A) (A) (A) (A) (A) (A) (A)
                 (A) (A) (A) (A) (A) (A) (A) (A) (A) (A) (A) (A)
                 (A) (A) (A) (A) (A) (A) (A) (A) (A) (A) (A) (A)
                 (A) (A) (A) (A) (A) (A) (A) (A) (A) (A) (A) (A)
                 (A) (A) (A) (A) (A) (A) (A) (A) (A) (A) (A) (A)
                 (A) (A) (A) (A) (A) (A) (A) (A) (A) (A) (A) (A)
                 (A) (A) (A) (A) (A) (A) (A) (A) (A) (A) (A) (A)
                 (A) (A) (A) (A) (A) (A) (A) (A) (A) (A) (A) (A)
                 (A) (A) (A) (A) (A) (A) (A) (A) (A) (A) (A) (A)
                 (A) (A) (A) (A) (A) (A) (A) (A) (A) (A) (A) (A)
                 (A) (A) (A) (A) (A) (A) (A) (A) (A) (A) (A) (A)
                 (A) (A) (A) (A) (A) (A) (A) (A) (A) (A) (A) (A)
                 (A) (A) (A) (A) (A) (A) (A) (A) (A) (A) (A) (A)
                 (A) (A) (A) (A) (A) (A) (A) (A) (A) (A) (A) (A)
                 (A) (A) (A) (A) (A) (A) (A) (A) (A) (A) (A) (A)
                 (A) (A) (A) (A) (A) (A) (A) (A) (A) (A) (A) (A)
                 (A) (A) (A) (A) (A) (A) (A) (A) (A) (A) (A) (A)
                 (A) (A) (A) (A) (A) (A) (A) (A) (A) (A) (A) (A)
                 (A) (A) (A) (A) (A) (A) (A) (A) (A) (A) (A) (A)
                 (A) (A) (A) (A) (A) (A) (A) (A) (A) (A) (A) (A)
                 (A) (A) (A) (A) (A) (A) (A) (A) (A) (A) (A) (A)
                 (A) (A) (A) (A) (A) (A) (A) (A) (A) (A) (A) (A)
                 (A) (A) (A) (A) (A) (A) (A) (A) (A) (A) (A) (A)
                 (A) (A) (A) (A) (A) (A) (A) (A) (A) (A) (A) (A)
                 (A) (A) (A) (A) (A) (A) (A) (A) (A) (A) (A) (A)
                 (A) (A) (A) (A) (A) (A) (A) (A) (A) (A) (A) (A)
                 (A) (A) (A) (A) (A) (A) (A) (A) (A) (A) (A) (A)
                 (A) (A) (A) (A) (A) (A) (A) (A) (A) (A) (A) (A)
                 (A) (A) (A) (A) (A) (A) (A) (A) (A) (A) (A) (A)
                 (A) (A) (A) (A) (A) (A) (A) (A) (A) (A) (A) (A)
                 (A) (A) (A) (A) (A) (A) (A) (A) (A) (A) (A) (A)
                 (A) (A) (A) (A) (A) (A) (A) (A) (A) (A) (A) (A)
                 (A) (A) (A) (A) (A) (A) (A) (A) (A) (A) (A) (A)
                 (A) (A) (A) (A) (A) (A) (A) (A) (A) (A) (A) (A)
                 (A) (A) (A) (A) (A) (A) (A) (A) (A) (A) (A) (A)
                 (A) (A) (A) (A) (A) (A) (A) (A) (A) (A) (A) (A)
                 (A) (A) (A) (A) (A) (A) (A) (A) (A) (A) (A) (A)
                 (A) (A) (A) (A) (A) (A) (A) (A) (A) (A) (A) (A)
                 (A) (A) (A) (A) (A) (A) (A) (A) (A) (A) (A) (A)
                 (A) (A) (A) (A) (A) (A) (A) (A) (A) (A) (A) (A)
                 (A) (A) (A) (A) (A) (A) (A) (A) (A) (A) (A) (A)
                 (A) (A) (A) (A) (A) (A) (A) (A) (A) (A) (A) (A)
                 (A) (A) (A) (A) (A) (A) (A) (A) (A) (A) (A) (A)
                 (A) (A) (A) (A) (A) (A) (A) (A) (A) (A) (A) (A)
                 (A) (A) (A) (A) (A) (A) (A) (A) (A) (A) (A) (A)
                 (A) (A) (A) (A) (A) (A) (A) (A) (A) (A) (A) (A)
                 (A) (A) (A) (A) (A) (A) (A) (A) (A) (A) (A) (A)
                 (A) (A) (A) (A) (A) (A) (A) (A) (A) (A) (A) (A)
                 (A) (A) (A) (A) (A) (A) (A) (A) (A) (A) (A) (A)
                 (A) (A) (A) (A) (A) (A) (A) (A) (A) (A) (A) (A)
                 (A) (A) (A) (A) (A) (A) (A) (A) (A) (A) (A) (A)
                 (A) (A) (A) (A) (A) (A) (A) (A) (A) (A) (A) (A)
                 (A) (A) (A) (A) (A) (A) (A) (A) (A) (A) (A) (A)
                 (A) (A) (A) (A) (A) (A) (A) (A) (A) (A) (A) (A)
                 (A) (A) (A) (A) (A) (A) (A) (A) (A) (A) (A) (A)
                 (A) (A) (A) (A) (A) (A) (A) (A) (A) (A) (A) (A)
                 (A) (A) (A) (A) (A) (A) (A) (A) (A) (A) (A) (A)
                 (A) (A) (A) (A) (A) (A) (A) (A) (A) (A) (A) (A)
                 (A) (A) (A) (A) (A) (A) (A) (A) (A) (A) (A) (A)
                 (A) (A) (A) (A) (A) (A) (A) (A) (A) (A) (A) (A)
                 (A) (A) (A) (A) (A) (A) (A) (A) (A) (A) (A) (A)
                 (A) (A) (A) (A) (A) (A) (A) (A) (A) (A) (A) (A)
                 (A) (A) (A) (A) (A) (A) (A) (A) (A) (A) (A) (A)
                 (A) (A) (A) (A) (A) (A) (A) (A) (A) (A) (A) (A)
                 (A) (A) (A) (A) (A) (A) (A) (A) (A) (A) (A) (A)
                 (A) (A) (A) (A) (A) (A) (A) (A) (A) (A) (A) (A)
                 (A) (A) (A) (A) (A) (A) (A) (A) (A) (A) (A) (A)
                 (A) (A) (A) (A) (A) (A) (A) (A) (A) (A) (A) (A)
                 (A) (A) (A) (A) (A) (A) (A) (A) (A) (A) (A) (A)
                 (A) (A) (A) (A) (A) (A) (A) (A) (A) (A) (A) (A)
                 (A) (A) (A) (A) (A) (A) (A) (A) (A) (A) (A) (A)
                 (A) (A) (A) (A) (A) (A) (A) (A) (A) (A) (A) (A)
                 (A) (A) (A) (A) (A) (A) (A) (A) (A) (A) (A) (A)
                 (A) (A) (A) (A) (A) (A) (A) (A) (A) (A) (A) (A)
                 (A) (A) (A) (A) (A) (A) (A) (A) (A) (A) (A) (A)
                 (A) (A) (A) (A) (A) (A) (A) (A) (A) (A) (A) (A)
                 (A) (A) (A) (A) (A) (A) (A) (A) (A) (A) (A) (A)
                 (A) (A) (A) (A) (A) (A) (A) (A) (A) (A) (A) (A)
                 (A) (A) (A) (A) (A) (A) (A) (A) (A) (A) (A) (A)
                 (A) (A) (A) (A) (A) (A) (A) (A) (A) (A) (A) (A)
                 (A) (A) (A) (A) (A) (A) (A) (A) (A) (A) (A) (A)
                 (A) (A) (A) (A) (A) (A) (A) (A) (A) (A) (A) (A)
                 (A) (A) (A) (A) (A) (A) (A) (A) (A) (A) (A) (A)
                 (A) (A) (A) (A) (A) (A) (A) (A) (A) (A) (A) (A)
                 (A) (A) (A) (A) (A) (A) (A) (A) (A) (A) (A) (A)
                 (A) (A) (A) (A) (A) (A) (A) (A) (A) (A) (A) (A)
                 (A) (A) (A) (A) (A) (A) (A) (A) (A) (A) (A) (A)
                 (A) (A) (A) (A) (A) (A) (A) (A) (A) (A) (A) (A)
                 (A) (A) (A) (A) (A) (A) (A) (A) (A) (A) (A) (A)
                 (A) (A) (A) (A) (A) (A) (A) (A) (A) (A) (A) (A)
                 (A) (A) (A) (A) (A) (A) (A) (A) (A) (A) (A) (A)
                 (A) (A) (A) (A) (A) (A) (A) (A) (A) (A) (A) (A)
                 (A) (A) (A) (A) (A) (A) (A) (A) (A) (A) (A) (A)
                 (A) (A) (A) (A) (A) (A) (A) (A) (A) (A) (A) (A)
                 (A) (A) (A) (A) (A) (A) (A) (A) (A) (A) (A) (A)
                 (A) (A) (A) (A) (A) (A) (A) (A) (A) (A) (A) (A)
                 (A) (A) (A) (A) (A) (A) (A) (A) (A) (A) (A) (A)
                 (A) (A) (A) (A) (A) (A) (A) (A) (A) (A) (A) (A)
                 (A) (A) (A) (A) (A) (A) (A) (A) (A) (A) (A) (A)
                 (A) (A) (A) (A) (A) (A) (A) (A) (A) (A) (A) (A)
                 (A) (A) (A) (A) (A) (A) (A) (A) (A) (A) (A) (A)
                 (A) (A) (A) (A) (A) (A) (A) (A) (A) (A) (A) (A)
                 (A) (A) (A) (A) (A) (A) (A) (A) (A) (A) (A) (A)
                 (A) (A) (A) (A) (A) (A) (A) (A) (A) (A) (A) (A)
 The electronic state is 1-A.
 Alpha  occ. eigenvalues --  -88.97839 -19.21270 -19.19959 -19.18972 -19.18951
 Alpha  occ. eigenvalues --  -19.17866 -19.17189 -19.07478 -19.06035 -14.43823
 Alpha  occ. eigenvalues --  -14.37010 -10.35972 -10.34455 -10.31992 -10.28913
 Alpha  occ. eigenvalues --  -10.27153 -10.26860 -10.26811 -10.25638 -10.25551
 Alpha  occ. eigenvalues --  -10.25377 -10.25257 -10.25216 -10.25126 -10.24534
 Alpha  occ. eigenvalues --  -10.24307 -10.24268 -10.23935 -10.23911 -10.23608
 Alpha  occ. eigenvalues --  -10.23497 -10.23435 -10.23393 -10.23256 -10.23227
 Alpha  occ. eigenvalues --  -10.23143 -10.23098 -10.22990 -10.22946 -10.22710
 Alpha  occ. eigenvalues --  -10.22671 -10.22586 -10.22583 -10.22526 -10.22519
 Alpha  occ. eigenvalues --  -10.22471 -10.22457 -10.22417 -10.22382 -10.22330
 Alpha  occ. eigenvalues --  -10.22289 -10.22258 -10.22241 -10.22192 -10.22183
 Alpha  occ. eigenvalues --  -10.22171 -10.22146 -10.22114 -10.22013 -10.21960
 Alpha  occ. eigenvalues --  -10.21902 -10.21715 -10.21659 -10.21647 -10.21571
 Alpha  occ. eigenvalues --  -10.21549 -10.21456 -10.21247 -10.21105 -10.21038
 Alpha  occ. eigenvalues --  -10.20981 -10.20943 -10.20839 -10.20807 -10.20806
 Alpha  occ. eigenvalues --  -10.20796 -10.20697 -10.20588 -10.20241 -10.20182
 Alpha  occ. eigenvalues --  -10.20151 -10.20146 -10.20086 -10.19951 -10.19859
 Alpha  occ. eigenvalues --  -10.19582 -10.19576 -10.19540 -10.19253 -10.19157
 Alpha  occ. eigenvalues --  -10.19121 -10.18895 -10.17843 -10.17023 -10.16635
 Alpha  occ. eigenvalues --   -7.99651  -5.94714  -5.94316  -5.93626  -1.11574
 Alpha  occ. eigenvalues --   -1.09021  -1.07396  -1.04107  -1.04081  -1.02079
 Alpha  occ. eigenvalues --   -0.98171  -0.98134  -0.97109  -0.89447  -0.88802
 Alpha  occ. eigenvalues --   -0.88375  -0.87383  -0.87244  -0.86455  -0.85923
 Alpha  occ. eigenvalues --   -0.84431  -0.84162  -0.84072  -0.84024  -0.83821
 Alpha  occ. eigenvalues --   -0.82514  -0.81809  -0.81308  -0.81219  -0.80943
 Alpha  occ. eigenvalues --   -0.80939  -0.80860  -0.80779  -0.80766  -0.78728
 Alpha  occ. eigenvalues --   -0.76918  -0.76695  -0.76448  -0.76361  -0.76211
 Alpha  occ. eigenvalues --   -0.75624  -0.75496  -0.75017  -0.74230  -0.74151
 Alpha  occ. eigenvalues --   -0.73859  -0.73509  -0.73072  -0.72944  -0.72616
 Alpha  occ. eigenvalues --   -0.72372  -0.71991  -0.71839  -0.71719  -0.71486
 Alpha  occ. eigenvalues --   -0.71382  -0.71278  -0.70395  -0.69601  -0.69317
 Alpha  occ. eigenvalues --   -0.68865  -0.68852  -0.68676  -0.68585  -0.66537
 Alpha  occ. eigenvalues --   -0.66239  -0.65674  -0.65281  -0.65117  -0.63996
 Alpha  occ. eigenvalues --   -0.63755  -0.63441  -0.62825  -0.62249  -0.61730
 Alpha  occ. eigenvalues --   -0.61546  -0.61399  -0.61107  -0.60855  -0.60506
 Alpha  occ. eigenvalues --   -0.59689  -0.59582  -0.59500  -0.59215  -0.59093
 Alpha  occ. eigenvalues --   -0.58969  -0.58749  -0.58184  -0.57706  -0.57019
 Alpha  occ. eigenvalues --   -0.56364  -0.56243  -0.54941  -0.54763  -0.54352
 Alpha  occ. eigenvalues --   -0.53719  -0.52913  -0.52725  -0.52299  -0.52099
 Alpha  occ. eigenvalues --   -0.51584  -0.51023  -0.50833  -0.50352  -0.49960
 Alpha  occ. eigenvalues --   -0.49915  -0.49682  -0.49353  -0.49159  -0.49048
 Alpha  occ. eigenvalues --   -0.48955  -0.48895  -0.48738  -0.48696  -0.48458
 Alpha  occ. eigenvalues --   -0.48400  -0.47978  -0.47703  -0.47637  -0.47463
 Alpha  occ. eigenvalues --   -0.47375  -0.47217  -0.47142  -0.46820  -0.46580
 Alpha  occ. eigenvalues --   -0.46380  -0.46325  -0.46246  -0.46018  -0.45942
 Alpha  occ. eigenvalues --   -0.45892  -0.45730  -0.45635  -0.45531  -0.45508
 Alpha  occ. eigenvalues --   -0.45252  -0.44952  -0.44807  -0.44785  -0.44700
 Alpha  occ. eigenvalues --   -0.44564  -0.44483  -0.44372  -0.44305  -0.44130
 Alpha  occ. eigenvalues --   -0.43976  -0.43926  -0.43856  -0.43474  -0.43249
 Alpha  occ. eigenvalues --   -0.43094  -0.42979  -0.42858  -0.42772  -0.42649
 Alpha  occ. eigenvalues --   -0.42615  -0.42561  -0.42383  -0.42275  -0.42242
 Alpha  occ. eigenvalues --   -0.42055  -0.41854  -0.41821  -0.41584  -0.41536
 Alpha  occ. eigenvalues --   -0.41511  -0.41422  -0.41224  -0.41011  -0.40947
 Alpha  occ. eigenvalues --   -0.40828  -0.40792  -0.40697  -0.40608  -0.40570
 Alpha  occ. eigenvalues --   -0.40466  -0.40350  -0.40161  -0.40092  -0.39967
 Alpha  occ. eigenvalues --   -0.39878  -0.39670  -0.39386  -0.39291  -0.39211
 Alpha  occ. eigenvalues --   -0.39104  -0.38898  -0.38766  -0.38689  -0.38675
 Alpha  occ. eigenvalues --   -0.38544  -0.38475  -0.38415  -0.38375  -0.38269
 Alpha  occ. eigenvalues --   -0.38208  -0.37947  -0.37850  -0.37683  -0.37489
 Alpha  occ. eigenvalues --   -0.37392  -0.37199  -0.37115  -0.37078  -0.36913
 Alpha  occ. eigenvalues --   -0.36491  -0.36420  -0.36324  -0.36251  -0.36182
 Alpha  occ. eigenvalues --   -0.36032  -0.35935  -0.35780  -0.35657  -0.35573
 Alpha  occ. eigenvalues --   -0.35498  -0.35427  -0.35345  -0.35280  -0.35186
 Alpha  occ. eigenvalues --   -0.35118  -0.34891  -0.34815  -0.34742  -0.34666
 Alpha  occ. eigenvalues --   -0.34597  -0.34582  -0.34461  -0.34354  -0.34330
 Alpha  occ. eigenvalues --   -0.34132  -0.34087  -0.34020  -0.33930  -0.33823
 Alpha  occ. eigenvalues --   -0.33457  -0.33425  -0.33420  -0.33229  -0.33074
 Alpha  occ. eigenvalues --   -0.33033  -0.32835  -0.32703  -0.32622  -0.32603
 Alpha  occ. eigenvalues --   -0.32483  -0.32412  -0.32222  -0.31870  -0.31755
 Alpha  occ. eigenvalues --   -0.31642  -0.31535  -0.31379  -0.31320  -0.30978
 Alpha  occ. eigenvalues --   -0.30804  -0.30518  -0.30295  -0.30187  -0.29746
 Alpha  occ. eigenvalues --   -0.29095  -0.28969  -0.28840  -0.28654  -0.27731
 Alpha  occ. eigenvalues --   -0.27284  -0.26256  -0.26144  -0.25293  -0.25034
 Alpha  occ. eigenvalues --   -0.24671  -0.24573  -0.24015  -0.23651  -0.19925
 Alpha  occ. eigenvalues --   -0.19365  -0.18744  -0.18192  -0.17106  -0.16434
 Alpha virt. eigenvalues --    0.08903   0.14260   0.14609   0.14955   0.15009
 Alpha virt. eigenvalues --    0.15218   0.15708   0.16815   0.17241   0.17562
 Alpha virt. eigenvalues --    0.18475   0.18936   0.19222   0.19400   0.19866
 Alpha virt. eigenvalues --    0.20268   0.20385   0.20876   0.21281   0.21644
 Alpha virt. eigenvalues --    0.21748   0.22139   0.22301   0.22428   0.22676
 Alpha virt. eigenvalues --    0.23072   0.23306   0.23631   0.23855   0.24103
 Alpha virt. eigenvalues --    0.24230   0.24301   0.24552   0.24772   0.24954
 Alpha virt. eigenvalues --    0.25083   0.25314   0.25375   0.25570   0.25778
 Alpha virt. eigenvalues --    0.25923   0.26026   0.26114   0.26281   0.26421
 Alpha virt. eigenvalues --    0.26546   0.26586   0.26806   0.27101   0.27150
 Alpha virt. eigenvalues --    0.27172   0.27346   0.27605   0.27646   0.27735
 Alpha virt. eigenvalues --    0.27800   0.27972   0.28098   0.28312   0.28457
 Alpha virt. eigenvalues --    0.28475   0.28533   0.28631   0.28671   0.28775
 Alpha virt. eigenvalues --    0.28842   0.28942   0.28960   0.29121   0.29302
 Alpha virt. eigenvalues --    0.29352   0.29469   0.29579   0.29633   0.29834
 Alpha virt. eigenvalues --    0.29900   0.29983   0.30139   0.30258   0.30497
 Alpha virt. eigenvalues --    0.30517   0.30658   0.30762   0.30957   0.31002
 Alpha virt. eigenvalues --    0.31103   0.31178   0.31249   0.31342   0.31468
 Alpha virt. eigenvalues --    0.31556   0.31722   0.31802   0.31883   0.31929
 Alpha virt. eigenvalues --    0.31965   0.32085   0.32158   0.32248   0.32337
 Alpha virt. eigenvalues --    0.32484   0.32547   0.32668   0.32768   0.32816
 Alpha virt. eigenvalues --    0.32879   0.32999   0.33072   0.33122   0.33225
 Alpha virt. eigenvalues --    0.33293   0.33445   0.33492   0.33621   0.33810
 Alpha virt. eigenvalues --    0.33858   0.33913   0.34043   0.34121   0.34146
 Alpha virt. eigenvalues --    0.34235   0.34398   0.34474   0.34569   0.34713
 Alpha virt. eigenvalues --    0.34823   0.34878   0.34946   0.35004   0.35239
 Alpha virt. eigenvalues --    0.35412   0.35434   0.35517   0.35618   0.35752
 Alpha virt. eigenvalues --    0.35851   0.35942   0.36027   0.36125   0.36163
 Alpha virt. eigenvalues --    0.36346   0.36472   0.36611   0.36730   0.36783
 Alpha virt. eigenvalues --    0.36901   0.36973   0.37074   0.37292   0.37470
 Alpha virt. eigenvalues --    0.37507   0.37685   0.37738   0.37949   0.38006
 Alpha virt. eigenvalues --    0.38072   0.38275   0.38403   0.38568   0.38714
 Alpha virt. eigenvalues --    0.38882   0.38913   0.38956   0.39035   0.39153
 Alpha virt. eigenvalues --    0.39258   0.39431   0.39673   0.39850   0.39937
 Alpha virt. eigenvalues --    0.40040   0.40105   0.40149   0.40380   0.40568
 Alpha virt. eigenvalues --    0.40659   0.40741   0.40783   0.40874   0.40918
 Alpha virt. eigenvalues --    0.41104   0.41237   0.41366   0.41532   0.41656
 Alpha virt. eigenvalues --    0.41742   0.42033   0.42117   0.42318   0.42389
 Alpha virt. eigenvalues --    0.42462   0.42742   0.42814   0.42873   0.43072
 Alpha virt. eigenvalues --    0.43204   0.43269   0.43571   0.43584   0.43759
 Alpha virt. eigenvalues --    0.44015   0.44168   0.44371   0.44488   0.44599
 Alpha virt. eigenvalues --    0.44810   0.45042   0.45060   0.45600   0.45813
 Alpha virt. eigenvalues --    0.45956   0.46085   0.46230   0.46372   0.46675
 Alpha virt. eigenvalues --    0.46993   0.47276   0.47483   0.47742   0.47949
 Alpha virt. eigenvalues --    0.48140   0.48403   0.48624   0.48825   0.49090
 Alpha virt. eigenvalues --    0.49391   0.49793   0.50316   0.50613   0.50769
 Alpha virt. eigenvalues --    0.51043   0.51462   0.51639   0.51804   0.52256
 Alpha virt. eigenvalues --    0.52771   0.53343   0.53872   0.54201   0.54386
 Alpha virt. eigenvalues --    0.54728   0.55075   0.56014   0.56210   0.57347
 Alpha virt. eigenvalues --    0.57497   0.58912   0.58958   0.59924   0.60599
 Alpha virt. eigenvalues --    0.61584   0.61774   0.62133   0.62837   0.63133
 Alpha virt. eigenvalues --    0.63529   0.63626   0.63859   0.64213   0.64532
 Alpha virt. eigenvalues --    0.64653   0.64730   0.64861   0.65052   0.65127
 Alpha virt. eigenvalues --    0.65261   0.65310   0.65555   0.65659   0.65957
 Alpha virt. eigenvalues --    0.66105   0.66207   0.66357   0.66436   0.66576
 Alpha virt. eigenvalues --    0.66764   0.66917   0.66991   0.67300   0.67394
 Alpha virt. eigenvalues --    0.67453   0.67593   0.67695   0.67786   0.68028
 Alpha virt. eigenvalues --    0.68198   0.68351   0.68409   0.68604   0.68627
 Alpha virt. eigenvalues --    0.68861   0.68976   0.69240   0.69460   0.69519
 Alpha virt. eigenvalues --    0.69783   0.69963   0.70011   0.70342   0.70631
 Alpha virt. eigenvalues --    0.70714   0.70825   0.70934   0.71024   0.71151
 Alpha virt. eigenvalues --    0.71368   0.71598   0.71718   0.71896   0.72065
 Alpha virt. eigenvalues --    0.72183   0.72207   0.72353   0.72487   0.72744
 Alpha virt. eigenvalues --    0.72772   0.72868   0.73046   0.73212   0.73416
 Alpha virt. eigenvalues --    0.73500   0.73614   0.73993   0.74263   0.74361
 Alpha virt. eigenvalues --    0.74584   0.74778   0.74987   0.75026   0.75124
 Alpha virt. eigenvalues --    0.75311   0.75665   0.75772   0.75891   0.76028
 Alpha virt. eigenvalues --    0.76119   0.76212   0.76394   0.76590   0.76608
 Alpha virt. eigenvalues --    0.76760   0.76911   0.76971   0.77211   0.77317
 Alpha virt. eigenvalues --    0.77349   0.77471   0.77623   0.77762   0.77897
 Alpha virt. eigenvalues --    0.78269   0.78300   0.78514   0.78696   0.78803
 Alpha virt. eigenvalues --    0.78996   0.79189   0.79235   0.79684   0.79857
 Alpha virt. eigenvalues --    0.80007   0.80173   0.80226   0.80592   0.80643
 Alpha virt. eigenvalues --    0.80733   0.81055   0.81245   0.81349   0.81395
 Alpha virt. eigenvalues --    0.81469   0.81768   0.81868   0.82017   0.82028
 Alpha virt. eigenvalues --    0.82179   0.82379   0.82603   0.82786   0.82842
 Alpha virt. eigenvalues --    0.82889   0.83161   0.83349   0.83518   0.83655
 Alpha virt. eigenvalues --    0.83781   0.83821   0.84179   0.84255   0.84396
 Alpha virt. eigenvalues --    0.84557   0.84602   0.84674   0.84776   0.84876
 Alpha virt. eigenvalues --    0.85134   0.85374   0.85475   0.85582   0.85953
 Alpha virt. eigenvalues --    0.86075   0.86260   0.86418   0.86528   0.86688
 Alpha virt. eigenvalues --    0.86803   0.86956   0.87259   0.87430   0.87536
 Alpha virt. eigenvalues --    0.87631   0.87702   0.88029   0.88244   0.88319
 Alpha virt. eigenvalues --    0.88666   0.88803   0.88966   0.89191   0.89282
 Alpha virt. eigenvalues --    0.89504   0.89541   0.89716   0.89771   0.90019
 Alpha virt. eigenvalues --    0.90213   0.90324   0.90508   0.90773   0.90941
 Alpha virt. eigenvalues --    0.91083   0.91186   0.91485   0.91720   0.91734
 Alpha virt. eigenvalues --    0.92149   0.92205   0.92676   0.92876   0.93111
 Alpha virt. eigenvalues --    0.93165   0.93213   0.93641   0.93713   0.93853
 Alpha virt. eigenvalues --    0.94167   0.94381   0.94617   0.94862   0.94885
 Alpha virt. eigenvalues --    0.95000   0.95337   0.95675   0.96004   0.96053
 Alpha virt. eigenvalues --    0.96311   0.96570   0.96738   0.96882   0.97275
 Alpha virt. eigenvalues --    0.97544   0.97554   0.97962   0.98346   0.98390
 Alpha virt. eigenvalues --    0.98634   0.98736   0.98873   0.99190   0.99275
 Alpha virt. eigenvalues --    0.99375   0.99587   0.99706   0.99919   1.00024
 Alpha virt. eigenvalues --    1.00079   1.00278   1.00409   1.00455   1.00628
 Alpha virt. eigenvalues --    1.00749   1.00883   1.01045   1.01278   1.01398
 Alpha virt. eigenvalues --    1.01684   1.01738   1.01871   1.02007   1.02070
 Alpha virt. eigenvalues --    1.02355   1.02430   1.02577   1.02668   1.02880
 Alpha virt. eigenvalues --    1.03144   1.03182   1.03273   1.03356   1.03485
 Alpha virt. eigenvalues --    1.03586   1.03853   1.03910   1.03987   1.04093
 Alpha virt. eigenvalues --    1.04260   1.04407   1.04481   1.04552   1.04664
 Alpha virt. eigenvalues --    1.04765   1.04837   1.04908   1.05020   1.05170
 Alpha virt. eigenvalues --    1.05348   1.05453   1.05525   1.05649   1.05702
 Alpha virt. eigenvalues --    1.05875   1.05917   1.05984   1.06171   1.06307
 Alpha virt. eigenvalues --    1.06337   1.06475   1.06709   1.06830   1.06889
 Alpha virt. eigenvalues --    1.07001   1.07174   1.07241   1.07412   1.07615
 Alpha virt. eigenvalues --    1.07695   1.07808   1.07848   1.07904   1.08097
 Alpha virt. eigenvalues --    1.08159   1.08292   1.08412   1.08489   1.08547
 Alpha virt. eigenvalues --    1.08700   1.08848   1.09019   1.09325   1.09384
 Alpha virt. eigenvalues --    1.09411   1.09537   1.09679   1.09856   1.10005
 Alpha virt. eigenvalues --    1.10112   1.10130   1.10299   1.10400   1.10425
 Alpha virt. eigenvalues --    1.10500   1.10541   1.10856   1.10912   1.11034
 Alpha virt. eigenvalues --    1.11184   1.11263   1.11280   1.11403   1.11626
 Alpha virt. eigenvalues --    1.11696   1.11855   1.12106   1.12308   1.12479
 Alpha virt. eigenvalues --    1.12736   1.12799   1.12863   1.13036   1.13206
 Alpha virt. eigenvalues --    1.13273   1.13375   1.13438   1.13565   1.13933
 Alpha virt. eigenvalues --    1.14026   1.14115   1.14276   1.14518   1.14749
 Alpha virt. eigenvalues --    1.14865   1.14921   1.14978   1.15388   1.15467
 Alpha virt. eigenvalues --    1.15623   1.15749   1.15919   1.16007   1.16052
 Alpha virt. eigenvalues --    1.16246   1.16362   1.16453   1.16635   1.16685
 Alpha virt. eigenvalues --    1.16840   1.16963   1.17206   1.17318   1.17370
 Alpha virt. eigenvalues --    1.17699   1.18125   1.18174   1.18293   1.18604
 Alpha virt. eigenvalues --    1.18729   1.19023   1.19142   1.19269   1.19396
 Alpha virt. eigenvalues --    1.19568   1.19841   1.20276   1.20461   1.20510
 Alpha virt. eigenvalues --    1.20645   1.20821   1.20935   1.21242   1.21676
 Alpha virt. eigenvalues --    1.21953   1.22012   1.22173   1.22512   1.22876
 Alpha virt. eigenvalues --    1.23188   1.23339   1.23591   1.23615   1.23908
 Alpha virt. eigenvalues --    1.24143   1.24364   1.24764   1.24957   1.25375
 Alpha virt. eigenvalues --    1.25501   1.25516   1.25745   1.26094   1.26449
 Alpha virt. eigenvalues --    1.26741   1.27190   1.27205   1.27482   1.27784
 Alpha virt. eigenvalues --    1.28404   1.28788   1.28924   1.29395   1.29624
 Alpha virt. eigenvalues --    1.29708   1.29944   1.30313   1.30354   1.30543
 Alpha virt. eigenvalues --    1.31087   1.31391   1.31399   1.31678   1.31779
 Alpha virt. eigenvalues --    1.32332   1.32754   1.33268   1.33387   1.33711
 Alpha virt. eigenvalues --    1.34042   1.34141   1.34420   1.34925   1.35377
 Alpha virt. eigenvalues --    1.35656   1.35961   1.36497   1.36789   1.37179
 Alpha virt. eigenvalues --    1.37330   1.37663   1.37977   1.38089   1.38578
 Alpha virt. eigenvalues --    1.38815   1.39231   1.40092   1.40338   1.40546
 Alpha virt. eigenvalues --    1.40742   1.41161   1.41587   1.41715   1.42083
 Alpha virt. eigenvalues --    1.42106   1.42397   1.42453   1.43058   1.43094
 Alpha virt. eigenvalues --    1.43507   1.43691   1.44137   1.44518   1.44949
 Alpha virt. eigenvalues --    1.45378   1.46073   1.46333   1.47280   1.48149
 Alpha virt. eigenvalues --    1.48522   1.48973   1.49077   1.49799   1.50581
 Alpha virt. eigenvalues --    1.50860   1.51074   1.51587   1.51853   1.52231
 Alpha virt. eigenvalues --    1.52661   1.52969   1.53455   1.53709   1.53950
 Alpha virt. eigenvalues --    1.54207   1.54400   1.54653   1.55026   1.55160
 Alpha virt. eigenvalues --    1.55949   1.56267   1.56563   1.56675   1.56854
 Alpha virt. eigenvalues --    1.57054   1.57139   1.57450   1.57613   1.57768
 Alpha virt. eigenvalues --    1.58126   1.58520   1.58643   1.59142   1.59252
 Alpha virt. eigenvalues --    1.59388   1.59804   1.60083   1.60380   1.60533
 Alpha virt. eigenvalues --    1.60626   1.60753   1.60931   1.61011   1.61213
 Alpha virt. eigenvalues --    1.61268   1.61485   1.61605   1.61827   1.62009
 Alpha virt. eigenvalues --    1.62395   1.62442   1.62799   1.63006   1.63207
 Alpha virt. eigenvalues --    1.63277   1.63380   1.63723   1.63980   1.64226
 Alpha virt. eigenvalues --    1.64620   1.64773   1.64996   1.65285   1.65335
 Alpha virt. eigenvalues --    1.65600   1.65765   1.65863   1.66104   1.66338
 Alpha virt. eigenvalues --    1.66695   1.67409   1.67467   1.67541   1.67914
 Alpha virt. eigenvalues --    1.67948   1.68758   1.68958   1.69347   1.69822
 Alpha virt. eigenvalues --    1.69883   1.70512   1.70713   1.70925   1.71123
 Alpha virt. eigenvalues --    1.71461   1.71924   1.72377   1.72900   1.74333
 Alpha virt. eigenvalues --    1.74845   1.75610   1.76166   1.76701   1.77009
 Alpha virt. eigenvalues --    1.77405   1.77550   1.77715   1.78083   1.78710
 Alpha virt. eigenvalues --    1.79801   1.80250   1.80629   1.80897   1.81024
 Alpha virt. eigenvalues --    1.81369   1.82328   1.82795   1.83495   1.83644
 Alpha virt. eigenvalues --    1.84056   1.84370   1.84763   1.84928   1.85129
 Alpha virt. eigenvalues --    1.85582   1.85790   1.86211   1.86902   1.87113
 Alpha virt. eigenvalues --    1.87234   1.87417   1.87582   1.87957   1.88207
 Alpha virt. eigenvalues --    1.88525   1.88667   1.88967   1.89113   1.89367
 Alpha virt. eigenvalues --    1.89671   1.89878   1.90178   1.90797   1.90892
 Alpha virt. eigenvalues --    1.91085   1.91331   1.91945   1.92413   1.92624
 Alpha virt. eigenvalues --    1.92971   1.93205   1.94006   1.94150   1.94522
 Alpha virt. eigenvalues --    1.94705   1.94904   1.95056   1.95253   1.95484
 Alpha virt. eigenvalues --    1.95594   1.95852   1.96023   1.96112   1.96494
 Alpha virt. eigenvalues --    1.96845   1.97013   1.97348   1.97555   1.97805
 Alpha virt. eigenvalues --    1.97847   1.98102   1.98529   1.98836   1.98975
 Alpha virt. eigenvalues --    1.99305   1.99545   1.99745   1.99928   2.00179
 Alpha virt. eigenvalues --    2.00592   2.00769   2.00912   2.01820   2.01898
 Alpha virt. eigenvalues --    2.02138   2.02628   2.03057   2.03196   2.03584
 Alpha virt. eigenvalues --    2.03749   2.03910   2.04406   2.04480   2.04874
 Alpha virt. eigenvalues --    2.05113   2.05198   2.05439   2.05665   2.06016
 Alpha virt. eigenvalues --    2.06319   2.06682   2.07014   2.07185   2.07560
 Alpha virt. eigenvalues --    2.07678   2.08244   2.08529   2.08743   2.08884
 Alpha virt. eigenvalues --    2.08919   2.09079   2.09259   2.09384   2.09444
 Alpha virt. eigenvalues --    2.09672   2.09954   2.09989   2.10145   2.10225
 Alpha virt. eigenvalues --    2.10308   2.10375   2.10639   2.10846   2.11096
 Alpha virt. eigenvalues --    2.11157   2.11410   2.11511   2.11985   2.12056
 Alpha virt. eigenvalues --    2.12153   2.12555   2.12801   2.13404   2.13453
 Alpha virt. eigenvalues --    2.13630   2.13776   2.13994   2.14290   2.14330
 Alpha virt. eigenvalues --    2.14378   2.14607   2.14745   2.14937   2.15268
 Alpha virt. eigenvalues --    2.15361   2.15743   2.15971   2.16210   2.16365
 Alpha virt. eigenvalues --    2.16406   2.16642   2.16973   2.17329   2.17370
 Alpha virt. eigenvalues --    2.17734   2.17892   2.18081   2.18170   2.18213
 Alpha virt. eigenvalues --    2.18325   2.18482   2.18550   2.18638   2.19137
 Alpha virt. eigenvalues --    2.19521   2.19589   2.19975   2.20279   2.20354
 Alpha virt. eigenvalues --    2.21031   2.21345   2.21417   2.21643   2.21963
 Alpha virt. eigenvalues --    2.22476   2.22506   2.22663   2.22868   2.23226
 Alpha virt. eigenvalues --    2.23409   2.23591   2.23913   2.24128   2.24208
 Alpha virt. eigenvalues --    2.24514   2.24722   2.25004   2.25343   2.25697
 Alpha virt. eigenvalues --    2.25915   2.26073   2.26189   2.26275   2.26312
 Alpha virt. eigenvalues --    2.26585   2.26688   2.26953   2.27429   2.27777
 Alpha virt. eigenvalues --    2.27861   2.28179   2.28449   2.28821   2.29109
 Alpha virt. eigenvalues --    2.29441   2.29692   2.29749   2.30065   2.30229
 Alpha virt. eigenvalues --    2.30399   2.30535   2.30609   2.30732   2.31116
 Alpha virt. eigenvalues --    2.32390   2.32687   2.32848   2.32923   2.33603
 Alpha virt. eigenvalues --    2.33694   2.33825   2.33964   2.34625   2.35160
 Alpha virt. eigenvalues --    2.35432   2.35657   2.35777   2.36205   2.36899
 Alpha virt. eigenvalues --    2.36943   2.38250   2.38397   2.38580   2.38694
 Alpha virt. eigenvalues --    2.38926   2.39099   2.39417   2.39704   2.39919
 Alpha virt. eigenvalues --    2.40017   2.40211   2.40771   2.40834   2.40927
 Alpha virt. eigenvalues --    2.41214   2.41324   2.41387   2.41529   2.41679
 Alpha virt. eigenvalues --    2.41779   2.41879   2.42015   2.42169   2.42692
 Alpha virt. eigenvalues --    2.42724   2.42857   2.42913   2.43050   2.43133
 Alpha virt. eigenvalues --    2.43354   2.43581   2.43812   2.44074   2.44212
 Alpha virt. eigenvalues --    2.44278   2.44373   2.45047   2.45112   2.45225
 Alpha virt. eigenvalues --    2.45265   2.45627   2.45820   2.46080   2.46198
 Alpha virt. eigenvalues --    2.46450   2.46691   2.46935   2.47170   2.47444
 Alpha virt. eigenvalues --    2.47585   2.47762   2.47855   2.47914   2.48517
 Alpha virt. eigenvalues --    2.48792   2.49025   2.49296   2.49390   2.49471
 Alpha virt. eigenvalues --    2.49644   2.50484   2.50748   2.50818   2.50944
 Alpha virt. eigenvalues --    2.51027   2.51114   2.51169   2.51440   2.51663
 Alpha virt. eigenvalues --    2.51759   2.52393   2.52640   2.53071   2.53308
 Alpha virt. eigenvalues --    2.53845   2.54234   2.55028   2.55122   2.55352
 Alpha virt. eigenvalues --    2.55407   2.55578   2.55864   2.56235   2.56992
 Alpha virt. eigenvalues --    2.58000   2.58478   2.58795   2.58912   2.59084
 Alpha virt. eigenvalues --    2.60414   2.60698   2.60949   2.61582   2.62166
 Alpha virt. eigenvalues --    2.63367   2.63992   2.64123   2.64624   2.65249
 Alpha virt. eigenvalues --    2.65606   2.65930   2.66144   2.66340   2.66518
 Alpha virt. eigenvalues --    2.66782   2.66816   2.67060   2.67164   2.67572
 Alpha virt. eigenvalues --    2.67845   2.68091   2.68326   2.68413   2.68747
 Alpha virt. eigenvalues --    2.69337   2.69369   2.69842   2.70189   2.70444
 Alpha virt. eigenvalues --    2.70955   2.71042   2.71315   2.71431   2.71846
 Alpha virt. eigenvalues --    2.72272   2.72788   2.72888   2.73601   2.74017
 Alpha virt. eigenvalues --    2.74362   2.75228   2.75273   2.76055   2.76452
 Alpha virt. eigenvalues --    2.76693   2.77095   2.77982   2.78293   2.78622
 Alpha virt. eigenvalues --    2.78970   2.79167   2.79660   2.80403   2.80742
 Alpha virt. eigenvalues --    2.81269   2.81512   2.81738   2.81984   2.82179
 Alpha virt. eigenvalues --    2.82880   2.83241   2.83863   2.84329   2.84957
 Alpha virt. eigenvalues --    2.85254   2.85542   2.85697   2.86060   2.86160
 Alpha virt. eigenvalues --    2.86492   2.87279   2.87721   2.87992   2.88595
 Alpha virt. eigenvalues --    2.88861   2.89237   2.89352   2.89718   2.89953
 Alpha virt. eigenvalues --    2.90305   2.90624   2.90999   2.91417   2.91673
 Alpha virt. eigenvalues --    2.91849   2.92102   2.92228   2.93238   2.93422
 Alpha virt. eigenvalues --    2.93768   2.95215   2.95971   2.96105   2.96251
 Alpha virt. eigenvalues --    2.96572   2.97063   2.97622   2.98129   3.00671
 Alpha virt. eigenvalues --    3.02292   3.03416   3.03481   3.04477   3.06568
 Alpha virt. eigenvalues --    3.06680   3.06865   3.07390   3.08513   3.08890
 Alpha virt. eigenvalues --    3.10084   3.10499   3.10884   3.11704   3.14741
 Alpha virt. eigenvalues --    3.17195   3.17545   3.19033   3.19789   3.20723
 Alpha virt. eigenvalues --    3.21827   3.22529   3.23563   3.24811   3.26261
 Alpha virt. eigenvalues --    3.28508   3.28627   3.29712   3.31629   3.35405
 Alpha virt. eigenvalues --    3.36998   3.41146   3.45091   3.58747   3.61700
 Alpha virt. eigenvalues --    3.64752   4.06773   4.11792   4.13393   4.17707
 Alpha virt. eigenvalues --    4.24059   4.25044   4.25996   4.28969   4.29499
 Alpha virt. eigenvalues --    4.29784   4.30135   4.30427   4.30957   4.31284
 Alpha virt. eigenvalues --    4.31638   4.31829   4.32597   4.32936   4.33846
 Alpha virt. eigenvalues --    4.34481   4.34601   4.35288   4.35818   4.35924
 Alpha virt. eigenvalues --    4.36666   4.37396   4.37502   4.37960   4.38554
 Alpha virt. eigenvalues --    4.38720   4.39886   4.40519   4.40897   4.42003
 Alpha virt. eigenvalues --    4.43270   4.44059   4.44185   4.44687   4.44922
 Alpha virt. eigenvalues --    4.45140   4.46937   4.47192   4.47868   4.48327
 Alpha virt. eigenvalues --    4.48848   4.49310   4.49908   4.50590   4.50866
 Alpha virt. eigenvalues --    4.51157   4.51263   4.51543   4.52280   4.53078
 Alpha virt. eigenvalues --    4.53277   4.54102   4.55059   4.55361   4.55639
 Alpha virt. eigenvalues --    4.57046   4.58490   4.58530   4.59234   4.60033
 Alpha virt. eigenvalues --    4.60336   4.60538   4.61922   4.63033   4.64370
 Alpha virt. eigenvalues --    4.65235   4.65793   4.66222   4.66617   4.68261
 Alpha virt. eigenvalues --    4.69022   4.70791   4.72233   4.72457   4.74414
 Alpha virt. eigenvalues --    4.75788   4.76375   4.77480   4.77661   4.78642
 Alpha virt. eigenvalues --    4.79381   4.81090   4.82036   4.88535   4.89307
 Alpha virt. eigenvalues --    4.90077   4.94215   4.94584   4.98093   5.01036
 Alpha virt. eigenvalues --    5.01111
          Condensed to atoms (all electrons):
 Mulliken charges:
               1
     1  H    0.144554
     2  C   -0.482692
     3  H    0.160470
     4  C   -0.372402
     5  H    0.152343
     6  H    0.156037
     7  C    0.137396
     8  C   -0.218084
     9  H    0.136132
    10  C   -0.205412
    11  H    0.159106
    12  C    0.355459
    13  O   -0.730478
    14  H    0.485098
    15  C   -0.232604
    16  H    0.174528
    17  C   -0.218469
    18  H    0.146979
    19  H    0.167205
    20  H    0.158003
    21  C   -0.487393
    22  H    0.158021
    23  C   -0.109227
    24  H    0.141663
    25  C   -0.490542
    26  H    0.148206
    27  H    0.156642
    28  H    0.165026
    29  C   -0.487635
    30  H    0.163560
    31  H    0.169043
    32  H    0.159494
    33  H    0.147602
    34  H    0.110482
    35  C   -0.464772
    36  H    0.156382
    37  C   -0.388124
    38  H    0.143033
    39  H    0.148540
    40  C    0.606623
    41  O   -0.647544
    42  O   -0.620405
    43  H    0.158326
    44  H    0.164076
    45  C   -0.600317
    46  H    0.218155
    47  H    0.214485
    48  C    0.594034
    49  O   -0.511058
    50  N   -0.609290
    51  H    0.343033
    52  C   -0.183500
    53  H    0.215079
    54  C   -0.304534
    55  H    0.139471
    56  H    0.155275
    57  C   -0.102563
    58  H    0.146864
    59  C   -0.494348
    60  H    0.173440
    61  H    0.154275
    62  H    0.157417
    63  C   -0.521117
    64  H    0.155123
    65  H    0.195085
    66  H    0.172015
    67  H    0.166767
    68  H    0.148629
    69  C   -0.491418
    70  H    0.159880
    71  C   -0.110497
    72  H    0.137632
    73  C   -0.502048
    74  H    0.155239
    75  H    0.175384
    76  H    0.175967
    77  C   -0.506280
    78  H    0.150021
    79  H    0.143169
    80  H    0.198735
    81  H    0.156449
    82  H    0.164331
    83  C   -0.485906
    84  H    0.151593
    85  C   -0.374591
    86  H    0.156477
    87  H    0.160773
    88  C    0.149516
    89  C   -0.221772
    90  H    0.142960
    91  C   -0.163896
    92  H    0.157678
    93  C   -0.165605
    94  H    0.196141
    95  C   -0.163809
    96  H    0.171826
    97  C   -0.212455
    98  H    0.141103
    99  H    0.171798
   100  H    0.156579
   101  C   -0.489835
   102  H    0.151068
   103  C   -0.117050
   104  H    0.164098
   105  C   -0.498956
   106  H    0.165090
   107  H    0.153347
   108  H    0.164751
   109  C   -0.494634
   110  H    0.161370
   111  H    0.176022
   112  H    0.158996
   113  H    0.156849
   114  H    0.174584
   115  C   -0.501881
   116  H    0.160522
   117  C   -0.294908
   118  H    0.180240
   119  H    0.158166
   120  C   -0.481113
   121  H    0.183678
   122  H    0.212570
   123  S    0.105103
   124  C   -0.652957
   125  H    0.185753
   126  H    0.202830
   127  H    0.209739
   128  H    0.156768
   129  H    0.149723
   130  C   -0.496833
   131  H    0.156508
   132  C   -0.285055
   133  H    0.149760
   134  H    0.133708
   135  C   -0.107042
   136  H    0.146000
   137  C   -0.494453
   138  H    0.147578
   139  H    0.145728
   140  H    0.173362
   141  C   -0.495380
   142  H    0.162677
   143  H    0.145641
   144  H    0.192977
   145  H    0.158946
   146  H    0.143405
   147  C   -0.487079
   148  H    0.153327
   149  C   -0.101071
   150  H    0.156639
   151  C   -0.502302
   152  H    0.200678
   153  H    0.137544
   154  H    0.143326
   155  C   -0.492063
   156  H    0.156899
   157  H    0.141281
   158  H    0.170561
   159  H    0.144339
   160  H    0.166424
   161  C   -0.504929
   162  H    0.199339
   163  C   -0.400348
   164  H    0.187475
   165  H    0.200427
   166  C    0.603700
   167  O   -0.485850
   168  O   -0.614441
   169  H    0.475730
   170  H    0.153792
   171  H    0.153952
   172  C   -0.496825
   173  H    0.145917
   174  C   -0.505395
   175  H    0.157061
   176  H    0.198127
   177  H    0.167665
   178  H    0.154381
   179  H    0.161895
   180  C   -0.480899
   181  H    0.140772
   182  C   -0.375001
   183  H    0.152032
   184  H    0.162228
   185  C    0.025514
   186  C   -0.011125
   187  H    0.173425
   188  N   -0.714408
   189  H    0.442487
   190  C    0.267258
   191  C   -0.201232
   192  H    0.197209
   193  C   -0.188613
   194  H    0.138535
   195  C   -0.184065
   196  H    0.130520
   197  C   -0.234631
   198  H    0.137153
   199  C    0.045874
   200  H    0.162314
   201  C    0.498965
   202  O   -0.615073
   203  C   -0.265362
   204  C    0.210571
   205  C   -0.196307
   206  C   -0.337509
   207  C   -0.425442
   208  C   -0.419068
   209  C   -0.313503
   210  C   -0.132937
   211  C   -0.119970
   212  C   -0.121448
   213  C    0.010480
   214  C   -0.333702
   215  C   -0.321664
   216  C   -0.322121
   217  C   -0.340387
   218  C    0.126723
   219  C   -0.512278
   220  O   -0.674899
   221  H    0.199055
   222  H    0.198788
   223  H    0.159094
   224  H    0.165227
   225  H    0.223441
   226  H    0.191837
   227  H    0.170873
   228  H    0.263907
   229  H    0.141064
   230  H    0.189982
   231  H    0.150954
   232  H    0.134510
   233  H    0.131455
   234  H    0.154552
   235  H    0.164511
   236  H    0.143123
   237  H    0.150765
   238  H    0.179449
   239  H    0.155153
   240  H    0.148055
   241  H    0.162248
   242  H    0.159894
   243  H    0.161387
   244  H    0.164246
   245  H    0.154554
   246  H    0.412182
 Sum of Mulliken charges =  -1.00000
 Mulliken charges with hydrogens summed into heavy atoms:
               1
     2  C   -0.010463
     4  C   -0.064023
     7  C    0.137396
     8  C   -0.081952
    10  C   -0.046306
    12  C    0.355459
    13  O   -0.245380
    15  C   -0.058076
    17  C   -0.071491
    21  C   -0.023768
    23  C    0.032436
    25  C   -0.020668
    29  C    0.004462
    35  C   -0.039581
    37  C   -0.096551
    40  C    0.606623
    41  O   -0.647544
    42  O   -0.620405
[...]
    7 Atom       -0.186893      0.054787      0.132105
    8 Atom       -0.243346      0.081006      0.162341
    9 Atom       -0.303594      0.142232      0.161363
   10 Atom       -0.176595      0.060992      0.115603
   11 Atom       -0.306916      0.144078      0.162838
   12 Atom       -0.213532     -0.111642      0.325174
   13 Atom       -1.508087      0.253264      1.254823
   14 Atom       -0.285518      0.120107      0.165411
   15 Atom       -0.184508      0.070081      0.114428
   16 Atom       -0.299842      0.138023      0.161818
   17 Atom       -0.255482      0.091053      0.164429
   18 Atom       -0.305489      0.143184      0.162305
   19 Atom       -0.302448      0.148227      0.154221
   20 Atom       -0.292804      0.143795      0.149008
   21 Atom       -0.015653      0.003308      0.012345
   22 Atom       -0.288790      0.141862      0.146928
   23 Atom       -0.029169     -0.005123      0.034292
   24 Atom       -0.279566      0.139226      0.140340
   25 Atom       -0.019448      0.000517      0.018931
   26 Atom       -0.292208      0.143572      0.148636
   27 Atom       -0.291880      0.143070      0.148810
   28 Atom       -0.289707      0.142154      0.147553
   29 Atom       -0.033508      0.011895      0.021613
   30 Atom       -0.287112      0.140792      0.146321
   31 Atom       -0.292526      0.144101      0.148424
   32 Atom       -0.285879      0.140076      0.145804
   33 Atom       -0.290738      0.143055      0.147683
   34 Atom       -0.292329      0.145474      0.146855
   35 Atom       -0.024680      0.007800      0.016880
   36 Atom       -0.299444      0.145096      0.154349
   37 Atom       -0.042993     -0.002507      0.045500
   38 Atom       -0.293478      0.144763      0.148716
   39 Atom       -0.291036      0.143603      0.147432
   40 Atom       -0.392759      0.166526      0.226233
   41 Atom       -1.049223     -0.246306      1.295528
   42 Atom       -0.935284     -0.453501      1.388785
   43 Atom       -0.303006      0.146805      0.156201
   44 Atom       -0.299867      0.143333      0.156534
   45 Atom       -0.076453      0.026374      0.050079
   46 Atom       -0.293978      0.142253      0.151725
   47 Atom       -0.290874      0.141157      0.149716
   48 Atom       -0.375870      0.103801      0.272069
   49 Atom       -0.901565     -0.553949      1.455514
   50 Atom       -0.465956     -0.438824      0.904780
   51 Atom       -0.386506      0.157434      0.229072
   52 Atom       -0.297147      0.102860      0.194287
   53 Atom       -0.277844      0.133015      0.144829
   54 Atom       -0.035702      0.016178      0.019524
   55 Atom       -0.280350      0.136190      0.144160
   56 Atom       -0.288002      0.140280      0.147721
   57 Atom       -0.036073     -0.007258      0.043330
   58 Atom       -0.276893      0.136812      0.140081
   59 Atom       -0.024542      0.008701      0.015841
   60 Atom       -0.288378      0.141434      0.146944
   61 Atom       -0.290546      0.141927      0.148619
   62 Atom       -0.287813      0.140563      0.147250
   63 Atom       -0.047770      0.002415      0.045355
   64 Atom       -0.289362      0.140825      0.148537
   65 Atom       -0.280431      0.137154      0.143277
   66 Atom       -0.291036      0.141663      0.149373
   67 Atom       -0.293942      0.139350      0.154592
   68 Atom       -0.295256      0.144948      0.150309
   69 Atom       -0.018950      0.003741      0.015209
   70 Atom       -0.292447      0.142812      0.149635
   71 Atom       -0.031705     -0.001639      0.033344
   72 Atom       -0.282932      0.141167      0.141766
   73 Atom       -0.036102      0.012270      0.023832
   74 Atom       -0.294801      0.144327      0.150474
   75 Atom       -0.283833      0.137499      0.146334
   76 Atom       -0.289260      0.140523      0.148737
   77 Atom       -0.034475     -0.011092      0.045568
   78 Atom       -0.290523      0.141224      0.149299
   79 Atom       -0.293020      0.143705      0.149314
   80 Atom       -0.281790      0.140006      0.141784
   81 Atom       -0.302778      0.149721      0.153057
   82 Atom       -0.291299      0.141638      0.149661
   83 Atom       -0.048831      0.017527      0.031303
   84 Atom       -0.293732      0.144021      0.149711
   85 Atom       -0.033532     -0.010063      0.043595
   86 Atom       -0.285278      0.139096      0.146182
   87 Atom       -0.284084      0.140454      0.143630
   88 Atom       -0.260552      0.088517      0.172035
   89 Atom       -0.233696      0.079269      0.154427
   90 Atom       -0.298865      0.138910      0.159954
   91 Atom       -0.271870      0.109745      0.162125
   92 Atom       -0.301762      0.141998      0.159763
   93 Atom       -0.300064      0.135942      0.164122
   94 Atom       -0.295577      0.142892      0.152685
   95 Atom       -0.291601      0.136994      0.154607
   96 Atom       -0.301012      0.144562      0.156450
   97 Atom       -0.233521      0.076899      0.156622
   98 Atom       -0.301674      0.140742      0.160932
   99 Atom       -0.292509      0.142884      0.149625
  100 Atom       -0.294812      0.145112      0.149700
  101 Atom       -0.019840      0.004410      0.015430
  102 Atom       -0.293923      0.143822      0.150101
  103 Atom       -0.036658     -0.014860      0.051518
  104 Atom       -0.278955      0.138773      0.140183
  105 Atom       -0.014174      0.005607      0.008567
  106 Atom       -0.287619      0.140902      0.146717
  107 Atom       -0.295613      0.145005      0.150607
  108 Atom       -0.288287      0.141317      0.146970
  109 Atom       -0.026784      0.006057      0.020727
  110 Atom       -0.285968      0.139694      0.146274
  111 Atom       -0.290512      0.141736      0.148775
  112 Atom       -0.300579      0.147418      0.153161
  113 Atom       -0.303862      0.150259      0.153603
  114 Atom       -0.300712      0.148864      0.151848
  115 Atom       -0.043677      0.012926      0.030751
  116 Atom       -0.285318      0.139218      0.146099
  117 Atom       -0.064635     -0.004861      0.069496
  118 Atom       -0.292308      0.139860      0.152448
  119 Atom       -0.284347      0.137046      0.147302
  120 Atom       -0.219845      0.073304      0.146541
  121 Atom       -0.287861      0.137648      0.150213
  122 Atom       -0.281467      0.137207      0.144261
  123 Atom       -2.317358     -0.555880      2.873238
  124 Atom       -0.206977      0.097468      0.109509
  125 Atom       -0.294412      0.142465      0.151946
  126 Atom       -0.290727      0.141695      0.149032
  127 Atom       -0.291237      0.138502      0.152735
  128 Atom       -0.301951      0.148845      0.153106
  129 Atom       -0.295392      0.145073      0.150319
  130 Atom       -0.011593      0.000558      0.011036
  131 Atom       -0.291361      0.143925      0.147436
  132 Atom       -0.036401      0.001675      0.034726
  133 Atom       -0.286695      0.140306      0.146388
  134 Atom       -0.280942      0.137455      0.143487
  135 Atom       -0.031594     -0.001063      0.032656
  136 Atom       -0.275979      0.136748      0.139231
  137 Atom       -0.020365      0.000717      0.019648
  138 Atom       -0.291037      0.143377      0.147660
  139 Atom       -0.288738      0.141104      0.147634
  140 Atom       -0.291101      0.142715      0.148385
  141 Atom       -0.045424      0.003830      0.041595
  142 Atom       -0.291114      0.141677      0.149438
  143 Atom       -0.288791      0.139690      0.149101
  144 Atom       -0.283554      0.137537      0.146018
  145 Atom       -0.289878      0.142676      0.147202
  146 Atom       -0.291301      0.143413      0.147888
  147 Atom       -0.004739      0.000719      0.004020
  148 Atom       -0.289251      0.142268      0.146983
  149 Atom       -0.043910     -0.019515      0.063425
  150 Atom       -0.277068      0.138024      0.139045
  151 Atom       -0.038558     -0.016911      0.055469
  152 Atom       -0.283519      0.139432      0.144087
  153 Atom       -0.292502      0.142664      0.149838
  154 Atom       -0.289546      0.141648      0.147898
  155 Atom       -0.028828      0.001302      0.027526
  156 Atom       -0.288054      0.140818      0.147236
  157 Atom       -0.292993      0.143154      0.149838
  158 Atom       -0.281697      0.137743      0.143955
  159 Atom       -0.293555      0.144491      0.149064
  160 Atom       -0.292781      0.141349      0.151431
  161 Atom       -0.068108      0.012097      0.056011
  162 Atom       -0.290896      0.140301      0.150595
  163 Atom       -0.054049      0.007227      0.046822
  164 Atom       -0.286629      0.140309      0.146320
  165 Atom       -0.284585      0.137627      0.146958
  166 Atom       -0.406755      0.053742      0.353013
  167 Atom       -0.788995     -0.686836      1.475831
  168 Atom       -1.247289      0.412672      0.834617
  169 Atom       -0.308991      0.136253      0.172738
  170 Atom       -0.295163      0.143926      0.151237
  171 Atom       -0.294496      0.145705      0.148791
  172 Atom       -0.010655      0.002398      0.008257
  173 Atom       -0.292331      0.145118      0.147213
  174 Atom       -0.077584      0.008188      0.069396
  175 Atom       -0.290794      0.139527      0.151267
  176 Atom       -0.281985      0.139767      0.142219
  177 Atom       -0.296435      0.142789      0.153646
  178 Atom       -0.290050      0.142406      0.147644
  179 Atom       -0.292150      0.143004      0.149146
  180 Atom       -0.032897      0.009043      0.023854
  181 Atom       -0.293972      0.144590      0.149382
  182 Atom       -0.038538      0.000444      0.038094
  183 Atom       -0.285309      0.141375      0.143933
  184 Atom       -0.285609      0.140691      0.144919
  185 Atom       -0.063405      0.002029      0.061376
  186 Atom       -0.122858     -0.085130      0.207988
  187 Atom       -0.309967      0.142755      0.167212
  188 Atom       -0.427016     -0.108387      0.535404
  189 Atom       -0.285664      0.119061      0.166603
  190 Atom       -0.153052     -0.073220      0.226272
  191 Atom       -0.226987      0.083293      0.143693
  192 Atom       -0.298278      0.142544      0.155734
  193 Atom       -0.211951      0.077478      0.134473
  194 Atom       -0.306257      0.142766      0.163490
  195 Atom       -0.189519      0.064236      0.125284
  196 Atom       -0.307118      0.142412      0.164706
  197 Atom       -0.217613      0.071131      0.146482
  198 Atom       -0.305573      0.144090      0.161483
  199 Atom       -0.188698      0.081489      0.107209
  200 Atom       -0.290108      0.141729      0.148379
  201 Atom       -0.562581      0.161427      0.401154
  202 Atom       -0.918318     -0.474196      1.392514
  203 Atom       -0.126948      0.015225      0.111722
  204 Atom       -0.560739      0.231244      0.329495
  205 Atom       -0.043210      0.015235      0.027975
  206 Atom       -0.032734     -0.001304      0.034038
  207 Atom       -0.044960      0.001290      0.043670
  208 Atom       -0.112032      0.002849      0.109184
  209 Atom       -0.049277     -0.024314      0.073591
  210 Atom       -0.034383      0.012769      0.021613
  211 Atom       -0.043822      0.012881      0.030940
  212 Atom       -0.022647      0.008971      0.013676
  213 Atom       -0.037642      0.009561      0.028081
  214 Atom       -0.034334     -0.003129      0.037463
  215 Atom       -0.018883     -0.000063      0.018946
  216 Atom       -0.072441      0.010041      0.062400
  217 Atom       -0.037857     -0.002701      0.040558
  218 Atom       -0.336086      0.131962      0.204123
  219 Atom       -0.033274      0.008408      0.024866
  220 Atom       -1.617235     -0.153846      1.771082
  221 Atom       -0.292592      0.133183      0.159408
  222 Atom       -0.266314      0.129710      0.136603
  223 Atom       -0.280654      0.137353      0.143301
  224 Atom       -0.291283      0.143195      0.148088
  225 Atom       -0.276741      0.133868      0.142873
  226 Atom       -0.282058      0.134928      0.147131
  227 Atom       -0.288517      0.136470      0.152047
  228 Atom       -0.237941      0.117389      0.120553
  229 Atom       -0.282891      0.138449      0.144442
  230 Atom       -0.285122      0.140211      0.144911
  231 Atom       -0.274263      0.135349      0.138914
  232 Atom       -0.269153      0.133458      0.135695
  233 Atom       -0.269132      0.131813      0.137318
  234 Atom       -0.278959      0.137420      0.141539
  235 Atom       -0.278254      0.133905      0.144348
  236 Atom       -0.283144      0.139829      0.143315
  237 Atom       -0.288718      0.142380      0.146338
  238 Atom       -0.290078      0.142494      0.147583
  239 Atom       -0.288099      0.141494      0.146605
  240 Atom       -0.293186      0.145344      0.147842
  241 Atom       -0.291937      0.144695      0.147242
  242 Atom       -0.262943      0.125209      0.137734
  243 Atom       -0.295190      0.142196      0.152994
  244 Atom       -0.286892      0.137334      0.149558
  245 Atom       -0.293726      0.143603      0.150122
  246 Atom       -0.449883      0.196631      0.253252
 -----------------------------------------------------
 Unable to Open any file for archive entry.
 1\1\GINC-EXP-7-16\SP\RwB97XD\6-31G(d)\C84H151N2O8S1(1-)\HKLEM\07-Aug-2
 024\0\\# 6-31G* wB97XD prop=efg\\19nt_mm_min_distance_cutoff3_from_cut
 off6_nowat_efg\\-1,1\H,0,-8.562,-7.359,-3.047\C,0,-8.127,-6.359,-2.919
 \H,0,-8.353,-5.775,-3.815\C,0,-8.738,-5.68,-1.68\H,0,-9.823,-5.623,-1.
 818\H,0,-8.574,-6.298,-0.788\C,0,-8.165,-4.304,-1.456\C,0,-8.703,-3.17
 8,-2.083\H,0,-9.595,-3.279,-2.697\C,0,-8.128,-1.923,-1.927\H,0,-8.555,
 -1.046,-2.403\C,0,-6.984,-1.787,-1.145\O,0,-6.412,-0.558,-1.026\H,0,-5
 .793,-0.543,-0.242\C,0,-6.43,-2.895,-0.507\H,0,-5.547,-2.784,0.115\C,0
 ,-7.029,-4.137,-0.665\H,0,-6.595,-4.998,-0.166\H,0,-7.041,-6.444,-2.89
 3\H,0,-3.414,-4.86,-5.235\C,0,-2.51,-4.267,-5.06\H,0,-2.691,-3.257,-5.
 448\C,0,-2.18,-4.214,-3.562\H,0,-2.022,-5.246,-3.216\C,0,-0.897,-3.422
 ,-3.307\H,0,-0.038,-3.849,-3.838\H,0,-1.017,-2.39,-3.651\H,0,-0.652,-3
 .385,-2.239\C,0,-3.342,-3.63,-2.754\H,0,-3.092,-3.583,-1.686\H,0,-4.25
 ,-4.23,-2.87\H,0,-3.574,-2.609,-3.089\H,0,-1.684,-4.705,-5.634\H,0,-4.
 991,7.303,4.483\C,0,-4.207,6.543,4.368\H,0,-4.261,5.882,5.236\C,0,-4.4
 48,5.745,3.087\H,0,-4.397,6.419,2.224\H,0,-5.457,5.315,3.091\C,0,-3.43
 2,4.608,2.865\O,0,-2.474,4.547,3.691\O,0,-3.62,3.839,1.896\H,0,-3.258,
 7.078,4.321\H,0,1.206,5.295,-5.158\C,0,1.598,4.64,-4.379\H,0,0.823,4.5
 27,-3.617\H,0,2.474,5.091,-3.905\C,0,2.039,3.236,-4.814\O,0,2.806,2.59
 6,-4.107\N,0,1.5,2.766,-5.965\H,0,0.877,3.389,-6.461\C,0,1.802,1.467,-
 6.557\H,0,2.548,0.998,-5.91\C,0,0.544,0.598,-6.664\H,0,-0.123,1.042,-7
 .418\H,0,0.847,-0.376,-7.064\C,0,-0.229,0.419,-5.353\H,0,-0.545,1.414,
 -5.005\C,0,-1.489,-0.411,-5.609\H,0,-2.086,-0.521,-4.696\H,0,-2.125,0.
 047,-6.376\H,0,-1.227,-1.419,-5.954\C,0,0.635,-0.207,-4.258\H,0,1.056,
 -1.164,-4.591\H,0,1.459,0.451,-3.963\H,0,0.038,-0.405,-3.362\H,0,2.241
 ,1.577,-7.549\H,0,5.578,-2.632,-5.604\C,0,5.211,-2.915,-4.613\H,0,6.03
 6,-2.864,-3.894\C,0,4.089,-1.944,-4.181\H,0,3.251,-2.075,-4.879\C,0,3.
 597,-2.217,-2.756\H,0,3.149,-3.21,-2.649\H,0,4.427,-2.156,-2.041\H,0,2
 .846,-1.474,-2.465\C,0,4.597,-0.506,-4.31\H,0,5.447,-0.335,-3.638\H,0,
 4.927,-0.287,-5.332\H,0,3.822,0.221,-4.045\H,0,4.876,-3.949,-4.697\H,0
 ,-1.934,-7.253,6.418\C,0,-1.175,-7.516,5.673\H,0,-0.894,-8.563,5.828\C
 ,0,-1.705,-7.295,4.248\H,0,-0.937,-7.599,3.526\H,0,-2.567,-7.955,4.081
 \C,0,-2.116,-5.865,3.971\C,0,-1.378,-5.046,3.113\H,0,-0.486,-5.444,2.6
 31\C,0,-1.771,-3.732,2.858\H,0,-1.191,-3.111,2.181\C,0,-2.901,-3.21,3.
 476\H,0,-3.218,-2.188,3.298\C,0,-3.63,-4.007,4.356\H,0,-4.483,-3.578,4
 .873\C,0,-3.249,-5.324,4.588\H,0,-3.837,-5.945,5.261\H,0,-0.296,-6.891
 ,5.859\H,0,3.2,-4.544,2.664\C,0,3.546,-4.446,1.631\H,0,3.263,-5.343,1.
 071\C,0,2.906,-3.208,0.968\H,0,3.421,-3.039,0.013\C,0,1.432,-3.472,0.6
 69\H,0,0.888,-3.696,1.595\H,0,1.323,-4.321,-0.012\H,0,0.961,-2.597,0.2
 03\C,0,3.062,-1.958,1.833\H,0,2.534,-2.081,2.788\H,0,2.643,-1.081,1.32
 9\H,0,4.109,-1.744,2.057\H,0,4.632,-4.365,1.662\H,0,8.708,-2.785,-1.01
 7\C,0,9.017,-2.09,-1.798\H,0,9.171,-2.644,-2.735\C,0,7.945,-1.01,-2.05
 8\H,0,7.061,-1.52,-2.444\H,0,8.292,-0.368,-2.878\C,0,7.539,-0.144,-0.8
 54\H,0,8.398,0.085,-0.214\H,0,7.144,0.816,-1.202\S,0,6.235,-0.901,0.19
 1\C,0,7.112,-1.151,1.756\H,0,8.089,-1.601,1.564\H,0,7.24,-0.209,2.297\
 H,0,6.523,-1.852,2.354\H,0,9.997,-1.698,-1.524\H,0,6.289,-2.955,5.384\
 C,0,5.669,-2.278,5.98\H,0,6.296,-1.836,6.763\C,0,5.023,-1.227,5.085\H,
 0,4.537,-1.747,4.253\H,0,5.803,-0.595,4.633\C,0,4.,-0.318,5.779\H,0,3.
 194,-0.956,6.174\C,0,4.608,0.454,6.952\H,0,4.966,-0.215,7.744\H,0,5.45
 8,1.062,6.614\H,0,3.87,1.132,7.393\C,0,3.385,0.648,4.766\H,0,2.936,0.1
 04,3.928\H,0,4.159,1.308,4.353\H,0,2.612,1.279,5.218\H,0,4.903,-2.885,
 6.478\H,0,0.457,-3.01,7.405\C,0,-0.472,-2.464,7.612\H,0,-0.208,-1.571,
 8.192\C,0,-1.191,-2.084,6.316\H,0,-1.415,-3.013,5.776\C,0,-2.516,-1.38
 3,6.619\H,0,-3.069,-1.14,5.707\H,0,-3.165,-2.015,7.238\H,0,-2.338,-0.4
 49,7.169\C,0,-0.309,-1.218,5.411\H,0,-0.812,-1.024,4.455\H,0,0.646,-1.
 711,5.192\H,0,-0.091,-0.248,5.876\H,0,-1.104,-3.1,8.242\H,0,-6.704,-2.
 942,6.102\C,0,-6.887,-1.899,6.381\H,0,-5.955,-1.492,6.782\C,0,-7.347,-
 1.089,5.175\H,0,-8.247,-1.512,4.716\H,0,-7.59,-0.057,5.458\C,0,-6.266,
 -0.99,4.129\O,0,-5.078,-1.085,4.372\O,0,-6.738,-0.783,2.908\H,0,-5.961
 ,-0.669,2.301\H,0,-7.645,-1.887,7.17\H,0,-5.904,2.942,6.48\C,0,-5.118,
 2.181,6.526\H,0,-5.587,1.232,6.813\C,0,-4.403,2.054,5.183\H,0,-3.652,1
 .256,5.209\H,0,-3.903,2.985,4.905\H,0,-5.109,1.809,4.385\H,0,-4.424,2.
 465,7.327\H,0,-0.803,2.67,10.019\C,0,0.194,2.238,9.881\H,0,0.409,1.581
 ,10.731\C,0,0.265,1.475,8.552\H,0,1.251,1.001,8.454\H,0,-0.466,0.657,8
 .569\C,0,-0.003,2.347,7.363\C,0,-1.186,2.45,6.675\H,0,-2.109,1.907,6.8
 26\N,0,-1.092,3.389,5.684\H,0,-1.788,3.658,4.976\C,0,0.17,3.911,5.698\
 C,0,0.735,4.874,4.854\H,0,0.142,5.309,4.055\C,0,2.052,5.228,5.093\H,0,
 2.53,5.968,4.457\C,0,2.79,4.636,6.14\H,0,3.822,4.938,6.296\C,0,2.224,3
 .68,6.966\H,0,2.804,3.235,7.771\C,0,0.891,3.292,6.748\H,0,0.916,3.063,
 9.894\C,0,-3.721,-0.056,0.898\O,0,-4.878,-0.514,1.049\C,0,-2.91,0.343,
 2.001\C,0,-1.727,0.989,1.806\C,0,-1.1,1.117,0.435\C,0,-1.698,0.123,-0.
 56\C,0,-3.214,0.145,-0.503\C,0,-1.071,1.701,2.938\C,0,0.458,1.745,2.88
 8\C,0,0.964,2.101,1.489\C,0,0.439,1.026,0.512\C,0,2.481,2.2,1.408\C,0,
 3.006,2.408,-0.026\C,0,2.598,1.206,-0.877\C,0,1.075,1.044,-0.889\C,0,3
 .201,3.29,2.214\C,0,4.597,3.386,1.537\C,0,4.514,2.508,0.27\C,0,2.518,3
 .714,-0.678\O,0,5.306,3.055,-0.775\H,0,-3.349,0.26,2.991\H,0,-1.355,2.
 139,0.102\H,0,-1.333,-0.888,-0.328\H,0,-1.37,0.357,-1.576\H,0,-3.588,1
 .127,-0.83\H,0,-3.661,-0.613,-1.156\H,0,-1.422,1.295,3.891\H,0,-1.48,2
 .728,2.889\H,0,0.869,0.768,3.176\H,0,0.816,2.466,3.626\H,0,0.531,3.074
 ,1.212\H,0,0.689,0.049,0.961\H,0,2.886,1.23,1.743\H,0,3.064,0.3,-0.464
 \H,0,2.951,1.31,-1.911\H,0,0.626,1.845,-1.493\H,0,0.831,0.107,-1.4\H,0
 ,3.258,3.059,3.28\H,0,2.657,4.238,2.135\H,0,5.398,3.042,2.199\H,0,4.84
 1,4.412,1.245\H,0,4.875,1.497,0.504\H,0,2.895,4.599,-0.158\H,0,2.872,3
 .76,-1.713\H,0,1.426,3.782,-0.695\H,0,5.045,2.609,-1.591\\Version=ES64
 L-G16RevC.01\State=1-A\HF=-4400.494375\RMSD=8.083e-09\Dipole=4.376477,
 -3.930881,-4.4581377\Quadrupole=-22.4854906,-9.2655839,31.7510745,2.62
 47185,-6.6593595,-44.6741075\PG=C01 [X(C84H151N2O8S1)]\\@
 The archive entry for this job was punched.


 THE MOST INCOMPREHENSIBLE THING ABOUT THE WORLD
 IS THAT IT IS COMPREHENSIBLE. -- A. EINSTEIN
 Job cpu time:       0 days  2 hours  8 minutes 43.6 seconds.
 Elapsed time:       0 days  0 hours 10 minutes 59.5 seconds.
 File lengths (MBytes):  RWF=   1612 Int=      0 D2E=      0 Chk=    173 Scr=      1
 Normal termination of Gaussian 16 at Wed Aug  7 13:57:19 2024.
