 Entering Gaussian System, Link 0=g16
 Initial command:
 /cm/shared/apps/spack/cpu/opt/spack/linux-centos8-zen/gcc-8.3.1/gaussian-16.C.01-po5bqktfeugvmjyga3v7eigbecnokxng/g16/l1.exe "/scratch/hklem/job_32090255/Gau-2072902.inp" -scrdir="/scratch/hklem/job_32090255/"
 Entering Link 1 = /cm/shared/apps/spack/cpu/opt/spack/linux-centos8-zen/gcc-8.3.1/gaussian-16.C.01-po5bqktfeugvmjyga3v7eigbecnokxng/g16/l1.exe PID=   2072903.
  
 Copyright (c) 1988-2019, Gaussian, Inc.  All Rights Reserved.
  
 This is part of the Gaussian(R) 16 program.  It is based on
 the Gaussian(R) 09 system (copyright 2009, Gaussian, Inc.),
 the Gaussian(R) 03 system (copyright 2003, Gaussian, Inc.),
 the Gaussian(R) 98 system (copyright 1998, Gaussian, Inc.),
 the Gaussian(R) 94 system (copyright 1995, Gaussian, Inc.),
 the Gaussian 92(TM) system (copyright 1992, Gaussian, Inc.),
 the Gaussian 90(TM) system (copyright 1990, Gaussian, Inc.),
 the Gaussian 88(TM) system (copyright 1988, Gaussian, Inc.),
 the Gaussian 86(TM) system (copyright 1986, Carnegie Mellon
 University), and the Gaussian 82(TM) system (copyright 1983,
 Carnegie Mellon University). Gaussian is a federally registered
 trademark of Gaussian, Inc.
  
 This software contains proprietary and confidential information,
 including trade secrets, belonging to Gaussian, Inc.
  
 This software is provided under written license and may be
 used, copied, transmitted, or stored only in accord with that
 written license.
  
 The following legend is applicable only to US Government
 contracts under FAR:
  
                    RESTRICTED RIGHTS LEGEND
  
 Use, reproduction and disclosure by the US Government is
 subject to restrictions as set forth in subparagraphs (a)
 and (c) of the Commercial Computer Software - Restricted
 Rights clause in FAR 52.227-19.
  
 Gaussian, Inc.
 340 Quinnipiac St., Bldg. 40, Wallingford CT 06492
  
  
 ---------------------------------------------------------------
 Warning -- This program may not be used in any manner that
 competes with the business of Gaussian, Inc. or will provide
 assistance to any competitor of Gaussian, Inc.  The licensee
 of this program is prohibited from giving any competitor of
 Gaussian, Inc. access to this program.  By using this program,
 the user acknowledges that Gaussian, Inc. is engaged in the
 business of creating and licensing software in the field of
 computational chemistry and represents and warrants to the
 licensee that it is not a competitor of Gaussian, Inc. and that
 it will not use this program in any manner prohibited above.
 ---------------------------------------------------------------
  

 Cite this work as:
 Gaussian 16, Revision C.01,
 M. J. Frisch, G. W. Trucks, H. B. Schlegel, G. E. Scuseria, 
 M. A. Robb, J. R. Cheeseman, G. Scalmani, V. Barone, 
 G. A. Petersson, H. Nakatsuji, X. Li, M. Caricato, A. V. Marenich, 
 J. Bloino, B. G. Janesko, R. Gomperts, B. Mennucci, H. P. Hratchian, 
 J. V. Ortiz, A. F. Izmaylov, J. L. Sonnenberg, D. Williams-Young, 
 F. Ding, F. Lipparini, F. Egidi, J. Goings, B. Peng, A. Petrone, 
 T. Henderson, D. Ranasinghe, V. G. Zakrzewski, J. Gao, N. Rega, 
 G. Zheng, W. Liang, M. Hada, M. Ehara, K. Toyota, R. Fukuda, 
 J. Hasegawa, M. Ishida, T. Nakajima, Y. Honda, O. Kitao, H. Nakai, 
 T. Vreven, K. Throssell, J. A. Montgomery, Jr., J. E. Peralta, 
 F. Ogliaro, M. J. Bearpark, J. J. Heyd, E. N. Brothers, K. N. Kudin, 
 V. N. Staroverov, T. A. Keith, R. Kobayashi, J. Normand, 
 K. Raghavachari, A. P. Rendell, J. C. Burant, S. S. Iyengar, 
 J. Tomasi, M. Cossi, J. M. Millam, M. Klene, C. Adamo, R. Cammi, 
 J. W. Ochterski, R. L. Martin, K. Morokuma, O. Farkas, 
 J. B. Foresman, and D. J. Fox, Gaussian, Inc., Wallingford CT, 2019.
 
 ******************************************
 Gaussian 16:  ES64L-G16RevC.01  3-Jul-2019
                11-Jul-2024 
 ******************************************
 %nprocshared=32
 Will use up to   32 processors via shared memory.
 %mem=64GB
 --------------------------
 # wb97xd/6-31G(d) prop=efg
 --------------------------
 1/38=1,172=1/1;
 2/12=2,17=6,18=5,40=1/2;
 3/5=1,6=6,7=1,11=2,25=1,30=1,74=-58/1,2,3;
 4//1;
 5/5=2,38=5/2;
 6/7=2,8=2,9=2,10=2,14=1,28=1/1,2;
 99/5=1,9=1/99;
 ---------------------------------------
 19nt_mm_min_distance_cutoff5_xtb_conf_1
 ---------------------------------------
 Symbolic Z-matrix:
 Charge = -1 Multiplicity = 1
 H                     46.9606   33.6997   30.8019 
 C                     46.354    34.588    30.601 
 H                     45.7966   34.4247   29.6786 
 C                     45.378    34.8189   31.7611 
 H                     44.7947   33.9059   31.9038 
 H                     45.9318   35.0075   32.6851 
 C                     44.4545   35.97     31.4719 
 C                     43.1843   35.7667   30.9505 
 H                     42.8363   34.7598   30.7665 
 C                     42.354    36.8323   30.6606 
 H                     41.3701   36.6675   30.2492 
 C                     42.789    38.1327   30.8914 
 O                     41.9664   39.1743   30.5866 
 H                     42.4093   40.0065   30.8837 
 C                     44.0587   38.3453   31.4109 
 H                     44.4001   39.3517   31.5937 
 C                     44.877    37.2726   31.6921 
 H                     45.8641   37.4547   32.0819 
 C                     47.32     35.7517   30.318 
 O                     47.4468   36.1962   29.194 
 N                     48.0482   36.227    31.3578 
 H                     47.991    35.7802   32.2591 
 C                     49.06     37.273    31.205 
 H                     48.6913   37.9611   30.4426 
 C                     49.373    38.001    32.5124 
 H                     49.687    37.2501   33.2499 
 C                     50.5476   38.9504   32.2754 
 H                     50.7565   39.5231   33.1757 
 H                     50.3226   39.6423   31.469 
 H                     51.4424   38.3933   32.0047 
 C                     48.1705   38.7427   33.1123 
 H                     47.4123   38.0119   33.3995 
 H                     48.4973   39.2293   34.034 
 C                     47.5433   39.7909   32.2025 
 H                     46.6964   40.2487   32.7076 
 H                     47.1909   39.3507   31.274 
 H                     48.2538   40.5798   31.9702 
 H                     49.9836   36.8193   30.8206 
 H                     48.177    38.1701   26.6187 
 C                     48.063    39.251    26.62 
 H                     47.356    39.5243   25.8404 
 C                     47.5523   39.7119   27.9844 
 H                     48.2771   39.3894   28.7408 
 C                     47.4335   41.2317   28.0506 
 H                     48.3694   41.7118   27.7736 
 H                     46.6557   41.5717   27.3728 
 H                     47.1713   41.549    29.0581 
 C                     46.206    39.0616   28.2916 
 H                     45.8086   39.4251   29.2372 
 H                     46.3161   37.9831   28.3607 
 H                     45.485    39.2887   27.5082 
 H                     49.0262   39.705    26.3929 
 H                     36.0808   46.5658   32.4261 
 C                     37.164    46.712    32.465 
 H                     37.4934   46.662    33.5005 
 C                     37.8761   45.6442   31.6351 
 H                     37.4326   45.5732   30.6403 
 H                     37.8141   44.663    32.1088 
 C                     39.3709   46.0217   31.4461 
 O                     39.7575   47.0582   32.023 
 O                     40.061    45.2822   30.7239 
 C                     37.4806   48.0633   31.8546 
 O                     37.4047   48.2439   30.6389 
 N                     37.7217   49.1037   32.6683 
 C                     37.9735   50.4215   32.1074 
 H                     38.9607   50.4438   31.6357 
 H                     37.2223   50.6456   31.3468 
 C                     37.923    51.3486   33.3139 
 H                     38.4986   52.2582   33.1572 
 H                     36.8899   51.6172   33.5421 
 C                     38.5027   50.4717   34.4214 
 H                     38.2179   50.8033   35.4186 
 H                     39.5898   50.4667   34.3524 
 C                     37.95     49.082    34.098 
 H                     38.6632   48.2978   34.3627 
 H                     37.005    48.8996   34.6268 
 H                     40.9717   41.8901   22.7168 
 C                     40.763    42.802    23.272 
 H                     39.7536   42.7325   23.6702 
 C                     41.7642   42.9907   24.409 
 H                     42.7657   43.0853   23.9817 
 H                     41.5318   43.9085   24.951 
 C                     41.7355   41.8168   25.3486 
 C                     42.1525   40.563    24.9153 
 H                     42.5084   40.4374   23.9019 
 C                     42.1264   39.4687   25.7536 
 H                     42.4573   38.498    25.4186 
 C                     41.6735   39.6054   27.0634 
 O                     41.6626   38.51     27.8585 
 H                     41.5328   38.7748   28.7871 
 C                     41.2385   40.8515   27.5011 
 H                     40.8688   40.957    28.5122 
 C                     41.2723   41.9421   26.65 
 H                     40.9326   42.9049   27.0037 
 H                     40.8      43.6419   22.5787 
 H                     40.4655   46.287    20.438 
 C                     40.928    47.267    20.313 
 H                     41.3039   47.3672   19.2956 
 C                     39.9114   48.3771   20.6013 
 H                     39.1655   48.3972   19.8052 
 H                     40.4239   49.3412   20.5961 
 C                     39.19     48.1861   21.9316 
 H                     38.7069   47.205    21.9517 
 H                     39.8782   48.2514   22.7705 
 C                     38.0853   49.2251   22.11 
 O                     37.3909   49.6155   21.1913 
 N                     37.95     49.6461   23.3759 
 H                     38.5723   49.329    24.1212 
 H                     37.2281   50.3124   23.594 
 C                     42.135    47.4121   21.255 
 O                     43.1289   48.0517   20.9265 
 N                     42.077    46.8184   22.4697 
 H                     41.2258   46.3601   22.758 
 C                     43.019    47.115    23.555 
 H                     42.6163   46.657    24.4684 
 H                     43.0728   48.1976   23.7092 
 C                     44.4456   46.6298   23.3327 
 O                     45.391    47.2916   23.7671 
 N                     44.6545   45.4852   22.6785 
 H                     43.862    44.9647   22.3339 
 C                     45.983    44.912    22.455 
 H                     46.6871   45.5069   23.0352 
 C                     46.0188   43.4456   22.8678 
 H                     45.3104   42.8898   22.2469 
 H                     47.0164   43.0551   22.6588 
 C                     45.6794   43.2098   24.3449 
 H                     44.7273   43.7019   24.5694 
 C                     45.5239   41.7129   24.5974 
 H                     45.1561   41.5286   25.6033 
 H                     44.8147   41.2721   23.9015 
 H                     46.4806   41.2099   24.4754 
 C                     46.7413   43.7989   25.266 
 H                     47.7167   43.3688   25.0501 
 H                     46.7979   44.8773   25.1529 
 H                     46.5003   43.5827   26.3031 
 H                     46.2341   45.0093   21.3935 
 H                     51.4636   46.1436   23.6623 
 C                     51.26     46.169    24.731 
 H                     51.6344   47.1084   25.1295 
 C                     49.7615   46.0295   24.9966 
 H                     49.4359   45.059    24.6059 
 C                     49.4841   46.0645   26.497 
 H                     50.016    45.2597   26.9998 
 H                     49.8113   47.0111   26.9206 
 H                     48.422    45.9475   26.6967 
 C                     48.9721   47.1227   24.2796 
 H                     49.2801   48.1051   24.6291 
 H                     49.1347   47.0761   23.2047 
 H                     47.9069   47.0214   24.4742 
 H                     51.8065   45.3554   25.2033 
 H                     52.937    42.6382   29.5571 
 C                     52.152    42.334    30.246 
 H                     52.0984   43.0694   31.046 
 C                     50.8171   42.2271   29.5248 
 H                     50.0286   41.931    30.2132 
 H                     50.8704   41.4854   28.7309 
 H                     50.5409   43.1832   29.0862 
 H                     52.4302   41.3769   30.6824 
 H                     45.5131   38.1048   40.5412 
 C                     46.435    38.561    40.187 
 H                     47.1993   38.432    40.9492 
 C                     46.8808   37.9194   38.876 
 H                     47.0609   36.8532   39.0303 
 H                     47.8206   38.3666   38.5452 
 C                     45.8378   38.0896   37.7827 
 H                     45.6931   39.1427   37.5378 
 H                     44.8841   37.6539   38.0874 
 S                     46.3642   37.2304   36.2545 
 C                     44.8966   37.544    35.2348 
 H                     44.0085   37.2416   35.7828 
 H                     44.8458   38.5937   34.9613 
 H                     44.9857   36.9424   34.3369 
 H                     46.2592   39.6259   40.0502 
 H                     49.4668   42.5182   37.9358 
 C                     50.213    42.685    37.162 
 H                     51.2012   42.539    37.5935 
 C                     49.9878   41.7255   35.9905 
 H                     50.7538   41.8993   35.2312 
 H                     50.0865   40.6964   36.3454 
 C                     48.6224   41.9306   35.3955 
 C                     48.4383   42.7641   34.3006 
 H                     49.295    43.2437   33.8469 
 C                     47.1727   42.9878   33.7872 
 H                     47.0429   43.6374   32.9347 
 C                     46.0722   42.3835   34.3686 
 H                     45.0826   42.5682   33.9829 
 C                     46.246    41.55     35.4597 
 H                     45.3841   41.0861   35.9176 
 C                     47.5116   41.3232   35.9677 
 H                     47.6466   40.6682   36.8177 
 H                     50.1283   43.7158   36.825 
 H                     50.5438   46.7927   32.3315 
 C                     50.84     46.417    31.354 
 H                     51.3024   45.4411   31.4855 
 C                     49.6247   46.317    30.4346 
 H                     49.9558   45.9259   29.4661 
 C                     48.5895   45.3574   31.0159 
 H                     48.2257   45.7306   31.9715 
 H                     49.0233   44.3718   31.17 
 H                     47.742    45.2551   30.3408 
 C                     49.0051   47.6937   30.2127 
 H                     48.633    48.096    31.1533 
 H                     48.1722   47.6266   29.5147 
 H                     49.7425   48.3861   29.8128 
 H                     51.5806   47.0958   30.9368 
 H                     52.7844   51.0055   27.0842 
 C                     52.401    50.618    26.143 
 H                     53.1838   50.0379   25.6601 
 C                     51.1763   49.7504   26.3947 
 H                     51.4586   48.8955   27.0131 
 H                     50.8035   49.3752   25.4383 
 C                     50.045    50.4995   27.0798 
 H                     49.7973   51.4152   26.5401 
 H                     49.1568   49.8692   27.1491 
 S                     50.4874   50.9689   28.7943 
 C                     48.843    51.4935   29.3494 
 H                     48.4738   52.281    28.6978 
 H                     48.167    50.6425   29.3419 
 H                     48.9541   51.8692   30.361 
 H                     52.1474   51.4593   25.5012 
 H                     50.4948   51.3265   33.6176 
 C                     49.755    50.767    34.187 
 H                     49.633    51.2559   35.1501 
 C                     48.4386   50.7068   33.4225 
 H                     48.6389   50.3367   32.414 
 H                     48.0282   51.7148   33.3274 
 C                     47.3914   49.7965   34.0723 
 H                     47.8254   48.7944   34.176 
 C                     46.9869   50.2886   35.458 
 H                     47.8334   50.3056   36.14 
 H                     46.5679   51.2906   35.3935 
 H                     46.2308   49.6285   35.8754 
 C                     46.1566   49.7038   33.1791 
 H                     46.4193   49.322    32.195 
 H                     45.7013   50.6847   33.0562 
 H                     45.4126   49.0436   33.6168 
 H                     50.1433   49.7645   34.3562 
 H                     47.1833   46.8468   36.8633 
 C                     46.253    46.438    37.253 
 H                     45.5584   47.2592   37.4138 
 C                     45.6586   45.4259   36.275 
 H                     46.3766   44.6078   36.143 
 C                     44.359    44.8448   36.8252 
 H                     43.9459   44.1057   36.1435 
 H                     44.5294   44.3667   37.7884 
 H                     43.6234   45.6352   36.9612 
 C                     45.4113   46.0763   34.9172 
 H                     45.0273   45.3415   34.2151 
 H                     46.3344   46.4871   34.5131 
 H                     44.6852   46.8822   35.0075 
 H                     46.4601   45.9697   38.2135 
 H                     43.2959   41.6114   37.7623 
 C                     42.317    41.201    37.522 
 H                     41.6455   42.0339   37.3333 
 C                     42.3924   40.313    36.2908 
 H                     43.1071   39.5005   36.4253 
 H                     41.4186   39.8605   36.0881 
 C                     42.7595   41.0746   35.0361 
 O                     42.7831   42.277    34.9383 
 O                     43.0486   40.2595   34.0356 
 H                     43.1515   40.7557   33.1765 
 H                     41.9524   40.6373   38.3772 
 H                     35.4705   39.4014   34.99 
 C                     36.5      39.053    34.953 
 H                     36.5568   38.0829   35.4427 
 C                     36.9822   38.9513   33.5112 
 H                     36.3802   38.2176   32.9676 
 H                     36.856    39.9164   33.0157 
 C                     38.4437   38.5322   33.4379 
 H                     38.6137   37.6323   34.0289 
 H                     38.7609   38.3487   32.4115 
 S                     39.571    39.7923   34.1251 
 C                     39.7824   40.8511   32.6719 
 H                     38.8268   41.2781   32.3814 
 H                     40.2063   40.2599   31.8654 
 H                     40.4649   41.6456   32.953 
 H                     37.1262   39.752    35.5024 
 H                     39.125    45.339    36.105 
 C                     39.963    44.652    35.992 
 H                     39.7426   43.7497   36.5599 
 C                     40.199    44.3125   34.5291 
 H                     41.0774   43.6806   34.4352 
 H                     40.3518   45.2088   33.9338 
 H                     39.3441   43.7791   34.1194 
 H                     40.8474   45.1134   36.4267 
 H                     41.472    49.8365   37.8838 
 C                     42.518    50.112    37.763 
 H                     42.9928   50.1106   38.7428 
 C                     43.2181   49.1292   36.8242 
 H                     44.273    49.41     36.7505 
 H                     43.1626   48.1234   37.2482 
 C                     42.6057   49.1203   35.4614 
 C                     41.8855   48.1104   34.8825 
 H                     41.6471   47.1428   35.2819 
 N                     41.4664   48.4659   33.6364 
 H                     40.8921   47.9013   33.0042 
 C                     41.903    49.7263   33.3802 
 C                     41.7281   50.5229   32.2543 
 H                     41.1803   50.1476   31.4034 
 C                     42.2833   51.7828   32.2653 
 H                     42.1667   52.4288   31.4072 
 C                     43.0102   52.243    33.3685 
 H                     43.4356   53.2364   33.3349 
 C                     43.1956   51.4596   34.4845 
 H                     43.7662   51.8265   35.3256 
 C                     42.6345   50.1823   34.5093 
 H                     42.5585   51.1196   37.3573 
 H                     50.1606   54.8865   35.6235 
 C                     49.23     55.22     35.169 
 H                     49.2855   55.0172   34.1026 
 C                     48.045    54.5012   35.8049 
 H                     48.075    54.6705   36.8846 
 H                     48.1396   53.4265   35.6374 
 C                     46.6861   54.9735   35.2735 
 H                     46.6759   56.0702   35.2821 
 C                     46.4407   54.4961   33.8444 
 H                     46.392    53.4097   33.8113 
 H                     45.497    54.8879   33.4714 
 H                     47.2307   54.8285   33.1759 
 C                     45.5652   54.4737   36.1836 
 H                     45.581    53.3873   36.2397 
 H                     45.6782   54.8683   37.1915 
 H                     44.5942   54.7813   35.8017 
 H                     49.1448   56.2957   35.3105 
 C                     43.3644   42.4527   31.0083 
 O                     43.1976   41.3677   31.5924 
 C                     43.3346   43.7081   31.6795 
 C                     43.4018   44.8969   31.0309 
 C                     43.6946   44.9792   29.5642 
 C                     44.3515   43.6847   29.0799 
 C                     43.5241   42.4869   29.5165 
 C                     43.0536   46.1463   31.7441 
 C                     43.8855   47.3487   31.3122 
 C                     43.8531   47.4767   29.7941 
 C                     44.5107   46.2319   29.1795 
 C                     44.5854   48.7158   29.299 
 C                     44.5139   48.8518   27.7689 
 C                     45.2666   47.6609   27.179 
 C                     44.6406   46.3437   27.6524 
 C                     44.1263   50.0806   29.8014 
 C                     44.7719   51.0592   28.8097 
 C                     45.1817   50.2388   27.5645 
 C                     43.088    48.9081   27.2214 
 O                     44.7805   50.9516   26.4179 
 H                     43.124    43.6832   32.7407 
 H                     42.7154   45.0793   29.0755 
 H                     45.3614   43.6089   29.4944 
 H                     44.4265   43.6796   27.9928 
 H                     42.5202   42.5781   29.0916 
 H                     43.9516   41.5461   29.1611 
 H                     43.1042   46.0013   32.8238 
 H                     41.9995   46.3336   31.4919 
 H                     44.9165   47.2227   31.6541 
 H                     43.4872   48.25     31.775 
 H                     42.809    47.5189   29.4825 
 H                     45.5189   46.1366   29.6051 
 H                     45.6464   48.6071   29.5658 
 H                     46.3122   47.6999   27.5016 
 H                     45.2574   47.6858   26.088 
 H                     43.6528   46.2311   27.2072 
 H                     45.2632   45.5283   27.2812 
 H                     44.4395   50.2777   30.824 
 H                     43.0414   50.1449   29.767 
 H                     45.643    51.546    29.2473 
 H                     44.0791   51.8395   28.4987 
 H                     46.2758   50.106    27.5413 
 H                     42.5569   49.7576   27.635 
 H                     43.122    49.0168   26.1399 
 H                     42.5324   48.0096   27.4545 
 H                     45.1052   50.52     25.6111 
 O                     40.905    46.4104   28.4393 
 H                     40.4415   47.2565   28.5634 
 H                     40.6306   45.8897   29.2258 
 O                     43.5984   50.5759   22.0781 
 H                     43.5398   49.7623   21.556 
 H                     44.3428   50.4572   22.6988 
 O                     41.0519   46.3099   25.6759 
 H                     41.0196   46.2003   26.6444 
 H                     40.5969   47.1553   25.5225 
 O                     42.0878   51.8097   26.1283 
 H                     43.0095   51.5883   26.3377 
 H                     41.9347   51.4361   25.2469 
 O                     41.4996   50.5671   23.6481 
 H                     42.2886   50.6243   23.0496 
 H                     40.8292   51.1353   23.2657 
 O                     39.963    48.8605   25.1596 
 H                     40.6485   49.3258   24.6546 
 H                     39.7885   49.4823   25.9116 
 O                     39.6892   50.7413   26.9945 
 H                     40.546    51.1916   26.874 
 H                     39.727    50.2304   27.8179 
 O                     46.1522   48.4803   21.2277 
 H                     46.16     47.9779   22.0498 
 H                     45.2546   48.4102   20.8839 
 O                     45.6086   49.967    23.8672 
 H                     46.3689   50.1095   23.2976 
 H                     45.5133   48.9958   23.9389 
 O                     39.2578   48.652    28.741 
 H                     38.7166   48.5442   29.5502 
 H                     38.6778   48.3548   28.0347 
 
 Stoichiometry    C123H245N6O23S3(1-)
 Framework group  C1[X(C123H245N6O23S3)]
 Deg. of freedom  1194
 Full point group                 C1      NOp   1
 Largest Abelian subgroup         C1      NOp   1
 Largest concise Abelian subgroup C1      NOp   1
                         Standard orientation:                         
 ---------------------------------------------------------------------
 Center     Atomic      Atomic             Coordinates (Angstroms)
 Number     Number       Type             X           Y           Z
 ---------------------------------------------------------------------
      1          1           0       -9.912885   -6.029391    1.889399
      2          6           0       -9.001743   -5.717381    1.369907
      3          1           0       -8.535234   -6.599009    0.930266
      4          6           0       -9.355946   -4.714460    0.265184
      5          1           0      -10.103438   -5.173664   -0.386397
      6          1           0       -9.802426   -3.817037    0.702595
      7          6           0       -8.141350   -4.343394   -0.540165
      8          6           0       -7.846883   -4.975290   -1.740412
      9          1           0       -8.513016   -5.736625   -2.121782
     10          6           0       -6.712907   -4.647957   -2.458669
     11          1           0       -6.486435   -5.147784   -3.387837
     12          6           0       -5.846865   -3.671270   -1.979516
     13          8           0       -4.724765   -3.369438   -2.689651
     14          1           0       -4.276894   -2.611689   -2.239968
     15          6           0       -6.132649   -3.035521   -0.778946
     16          1           0       -5.465400   -2.275924   -0.403977
     17          6           0       -7.265876   -3.374899   -0.071845
     18          1           0       -7.466369   -2.882223    0.864395
     19          6           0       -8.019190   -5.197858    2.433923
     20          8           0       -7.031380   -5.838715    2.734867
     21          7           0       -8.321834   -4.026935    3.046063
     22          1           0       -9.192737   -3.562570    2.843242
     23          6           0       -7.514971   -3.467448    4.131028
     24          1           0       -6.474398   -3.709348    3.908843
     25          6           0       -7.713782   -1.962520    4.312450
     26          1           0       -8.784045   -1.781342    4.479978
     27          6           0       -6.957492   -1.515781    5.563715
     28          1           0       -7.035744   -0.438292    5.686429
     29          1           0       -5.906791   -1.780709    5.489743
     30          1           0       -7.366670   -1.995335    6.450793
     31          6           0       -7.304791   -1.131114    3.088728
     32          1           0       -7.965394   -1.379723    2.256131
     33          1           0       -7.479927   -0.078051    3.320016
     34          6           0       -5.855486   -1.300798    2.652197
     35          1           0       -5.667047   -0.686097    1.775510
     36          1           0       -5.635641   -2.334137    2.399307
     37          1           0       -5.173249   -0.977317    3.433894
     38          1           0       -7.778916   -3.976588    5.067914
     39          1           0       -4.049827   -6.717965    3.917620
     40          6           0       -3.160747   -6.094537    3.870533
     41          1           0       -2.403532   -6.616707    3.290636
     42          6           0       -3.504476   -4.758646    3.213207
     43          1           0       -4.290498   -4.282665    3.810781
     44          6           0       -2.296499   -3.827010    3.179551
     45          1           0       -1.867230   -3.703607    4.171334
     46          1           0       -1.534630   -4.233012    2.520229
     47          1           0       -2.583490   -2.845726    2.806454
     48          6           0       -4.037044   -4.986469    1.801027
     49          1           0       -4.234082   -4.038046    1.305155
     50          1           0       -4.964013   -5.551825    1.835106
     51          1           0       -3.313301   -5.539674    1.204964
     52          1           0       -2.784648   -5.944026    4.881147
     53          1           0        0.951475    2.006931   -8.305101
     54          6           0        0.910762    2.201709   -7.229641
     55          1           0        0.235520    3.033975   -7.043508
     56          6           0        0.431358    0.958670   -6.480613
     57          1           0        0.999703    0.080522   -6.792381
     58          1           0       -0.626821    0.765001   -6.664294
     59          6           0        0.656520    1.133662   -4.953742
     60          8           0        1.116697    2.232899   -4.584253
     61          8           0        0.384095    0.167695   -4.220692
     62          6           0        2.314825    2.519039   -6.753463
     63          8           0        3.167035    1.635441   -6.657040
     64          7           0        2.660901    3.801640   -6.558954
     65          6           0        4.017664    4.134805   -6.155464
     66          1           0        4.181204    3.837315   -5.115120
     67          1           0        4.729733    3.596119   -6.784599
     68          6           0        4.083821    5.648078   -6.308223
     69          1           0        4.837551    6.093418   -5.662618
     70          1           0        4.301157    5.914981   -7.344101
     71          6           0        2.666009    6.074213   -5.934350
     72          1           0        2.399354    7.053880   -6.327575
     73          1           0        2.564152    6.093773   -4.850000
     74          6           0        1.795553    4.962039   -6.523168
     75          1           0        0.918711    4.770052   -5.900289
     76          1           0        1.464310    5.215361   -7.539057
     77          1           0        2.108249   -8.223311   -2.469211
     78          6           0        2.555144   -7.257196   -2.693423
     79          1           0        2.398282   -7.048302   -3.748903
     80          6           0        1.930219   -6.155176   -1.841484
     81          1           0        2.125076   -6.373537   -0.788448
     82          1           0        2.392448   -5.198005   -2.087041
     83          6           0        0.444898   -6.081957   -2.065476
     84          6           0       -0.375042   -7.133914   -1.672110
     85          1           0        0.058750   -8.001387   -1.193847
     86          6           0       -1.738198   -7.096021   -1.875304
     87          1           0       -2.374284   -7.909498   -1.562848
     88          6           0       -2.320525   -5.989274   -2.487993
     89          8           0       -3.661748   -5.985876   -2.670512
     90          1           0       -3.962791   -5.089513   -2.905399
     91          6           0       -1.507068   -4.939545   -2.900218
     92          1           0       -1.954078   -4.086653   -3.393056
     93          6           0       -0.140548   -4.989398   -2.687942
     94          1           0        0.479539   -4.166035   -3.012055
     95          1           0        3.627829   -7.325415   -2.514093
     96          1           0        7.038551   -7.538189   -2.401198
     97          6           0        7.845428   -7.034279   -1.867387
     98          1           0        8.461861   -7.771817   -1.355047
     99          6           0        8.707787   -6.226644   -2.843592
    100          1           0        9.274300   -6.912679   -3.475229
    101          1           0        9.426849   -5.631491   -2.277099
    102          6           0        7.882233   -5.313828   -3.744605
    103          1           0        7.137154   -5.904727   -4.285015
    104          1           0        7.367658   -4.547502   -3.170502
    105          6           0        8.761088   -4.642926   -4.797797
    106          8           0        9.691227   -5.208404   -5.339727
    107          7           0        8.394041   -3.382960   -5.073140
    108          1           0        7.631699   -2.920192   -4.575183
    109          1           0        8.899947   -2.869800   -5.775557
    110          6           0        7.270889   -6.100625   -0.788747
    111          8           0        7.851510   -5.921658    0.276939
    112          7           0        6.101597   -5.468480   -1.042690
    113          1           0        5.672811   -5.563922   -1.950837
    114          6           0        5.601153   -4.349600   -0.235921
    115          1           0        4.757894   -3.906864   -0.782850
    116          1           0        6.382830   -3.589400   -0.137075
    117          6           0        5.155302   -4.709751    1.175296
    118          8           0        5.323041   -3.904145    2.093624
    119          7           0        4.576625   -5.891697    1.398595
    120          1           0        4.452573   -6.531209    0.628296
    121          6           0        4.072583   -6.311222    2.707550
    122          1           0        4.133107   -5.444074    3.363816
    123          6           0        2.643968   -6.830176    2.599100
    124          1           0        2.638967   -7.707749    1.946336
    125          1           0        2.321392   -7.155218    3.589892
    126          6           0        1.649786   -5.797223    2.053914
    127          1           0        2.040022   -5.397092    1.112284
    128          6           0        0.312456   -6.477430    1.775504
    129          1           0       -0.366526   -5.797674    1.267572
    130          1           0        0.443654   -7.348645    1.138859
    131          1           0       -0.145901   -6.800667    2.707488
    132          6           0        1.465145   -4.631903    3.018815
    133          1           0        1.117254   -4.987228    3.986140
    134          1           0        2.396177   -4.090194    3.155466
    135          1           0        0.726438   -3.936384    2.630271
    136          1           0        4.727693   -7.095118    3.102061
    137          1           0        3.686163   -4.221287    8.045549
    138          6           0        3.120304   -3.356563    7.704560
    139          1           0        3.605567   -2.459177    8.079615
    140          6           0        3.044489   -3.331006    6.178419
    141          1           0        2.523405   -4.236711    5.848720
    142          6           0        2.248450   -2.116756    5.708002
    143          1           0        1.241443   -2.141198    6.118816
    144          1           0        2.731130   -1.198263    6.033484
    145          1           0        2.173476   -2.099954    4.623694
    146          6           0        4.440295   -3.330146    5.558699
    147          1           0        4.996840   -2.452097    5.877151
    148          1           0        4.997716   -4.215206    5.858651
    149          1           0        4.381350   -3.308534    4.472955
    150          1           0        2.121796   -3.409762    8.133309
    151          1           0       -2.715541   -1.391340    8.511362
    152          6           0       -3.257348   -1.068032    7.625211
    153          1           0       -3.113215    0.004327    7.511373
    154          6           0       -2.762188   -1.809986    6.393207
    155          1           0       -3.296706   -1.482609    5.504153
    156          1           0       -2.914879   -2.881107    6.505558
    157          1           0       -1.701719   -1.626923    6.236119
    158          1           0       -4.317620   -1.253314    7.784507
    159          1           0      -11.741000    4.315263   -0.560145
    160          6           0      -11.285098    4.361260    0.426523
    161          1           0      -11.922716    4.957664    1.074203
    162          6           0      -11.110107    2.958476    1.001576
    163          1           0      -12.084759    2.474264    1.094412
    164          1           0      -10.677160    3.019443    2.002316
    165          6           0      -10.214259    2.098178    0.124384
    166          1           0       -9.202793    2.504003    0.077736
    167          1           0      -10.621187    2.021805   -0.885961
    168         16           0      -10.101273    0.398541    0.794597
    169          6           0       -9.077804   -0.349140   -0.503660
    170          1           0       -9.524421   -0.146194   -1.473102
    171          1           0       -8.064572    0.038328   -0.453837
    172          1           0       -9.061980   -1.420084   -0.333619
    173          1           0      -10.322066    4.859181    0.335551
    174          1           0       -7.173668    5.067014    3.964487
    175          6           0       -6.689609    4.592071    4.815086
    176          1           0       -7.179855    4.927150    5.726913
    177          6           0       -6.767225    3.068353    4.688480
    178          1           0       -6.288305    2.610650    5.557181
    179          1           0       -7.816451    2.762206    4.676557
    180          6           0       -6.087810    2.608315    3.428651
    181          6           0       -4.762341    2.195547    3.441865
    182          1           0       -4.222258    2.170004    4.378589
    183          6           0       -4.127210    1.819561    2.271135
    184          1           0       -3.096388    1.499517    2.294860
    185          6           0       -4.810635    1.858103    1.068743
    186          1           0       -4.315103    1.582552    0.151842
    187          6           0       -6.132627    2.267056    1.045840
    188          1           0       -6.661744    2.304780    0.104373
    189          6           0       -6.767176    2.636864    2.217094
    190          1           0       -7.801596    2.952109    2.198515
    191          1           0       -5.651029    4.914699    4.838601
    192          1           0       -0.637653    3.104456    6.030481
    193          6           0       -0.419439    2.115820    6.429697
    194          1           0       -1.343560    1.686175    6.810345
    195          6           0        0.179730    1.226163    5.342610
    196          1           0        0.375907    0.238338    5.774228
    197          6           0       -0.799646    1.062049    4.183183
    198          1           0       -0.998801    2.026640    3.719825
    199          1           0       -1.740955    0.642968    4.531961
    200          1           0       -0.388739    0.395177    3.427591
    201          6           0        1.500099    1.805176    4.842794
    202          1           0        1.334153    2.774011    4.374978
    203          1           0        1.950788    1.141365    4.106815
    204          1           0        2.196784    1.938710    5.667351
    205          1           0        0.275736    2.227655    7.258876
    206          1           0        5.496906    1.478519    9.196811
    207          6           0        5.770623    0.463418    8.918138
    208          1           0        5.478515   -0.209288    9.721022
    209          6           0        5.078492    0.072684    7.620350
    210          1           0        3.996225    0.094556    7.765902
    211          1           0        5.369538   -0.946775    7.354922
    212          6           0        5.435679    0.982461    6.456273
    213          1           0        6.517738    1.062219    6.338269
    214          1           0        4.997707    0.606841    5.529953
    215         16           0        4.777894    2.675185    6.696210
    216          6           0        5.092540    3.311867    5.027970
    217          1           0        6.150215    3.217556    4.796718
    218          1           0        4.493008    2.760645    4.308283
    219          1           0        4.803341    4.357424    5.027223
    220          1           0        6.851654    0.416749    8.803243
    221          1           0        2.303792    6.786348    6.088500
    222          6           0        1.617957    6.867298    5.247287
    223          1           0        1.477666    7.922870    5.029220
    224          6           0        2.173405    6.118891    4.042149
    225          1           0        2.426026    5.101536    4.350918
    226          1           0        3.096104    6.600455    3.710098
    227          6           0        1.196236    6.038089    2.864810
    228          1           0        0.270408    5.568624    3.219435
    229          6           0        0.852159    7.417062    2.311645
    230          1           0        0.368341    8.039681    3.060137
    231          1           0        1.753558    7.919262    1.966679
    232          1           0        0.173973    7.315182    1.468243
    233          6           0        1.788773    5.172482    1.755416
    234          1           0        2.010059    4.172536    2.121988
    235          1           0        2.711120    5.612513    1.380962
    236          1           0        1.097349    5.087837    0.921300
    237          1           0        0.660059    6.447297    5.548025
    238          1           0       -2.765128    6.560169    2.110661
    239          6           0       -3.201913    6.569939    1.113883
    240          1           0       -2.541181    7.129078    0.455482
    241          6           0       -3.386327    5.145484    0.593248
    242          1           0       -4.064002    4.613139    1.271186
    243          6           0       -4.007940    5.157981   -0.800595
    244          1           0       -4.163874    4.145554   -1.164342
    245          1           0       -4.968401    5.670555   -0.788316
    246          1           0       -3.352767    5.676135   -1.498163
    247          6           0       -2.050578    4.408661    0.567485
    248          1           0       -2.195021    3.384335    0.235485
    249          1           0       -1.603015    4.387890    1.559162
    250          1           0       -1.357875    4.899571   -0.113705
    251          1           0       -4.157528    7.088690    1.163427
    252          1           0       -7.029149    3.953182   -2.173174
    253          6           0       -7.100226    3.448853   -3.134953
    254          1           0       -6.232742    3.733739   -3.723641
    255          6           0       -7.123712    1.940202   -2.951915
    256          1           0       -7.949086    1.626482   -2.312086
    257          1           0       -7.251068    1.442098   -3.916178
    258          6           0       -5.834574    1.395911   -2.376644
    259          8           0       -4.807709    2.019960   -2.267104
    260          8           0       -5.958159    0.131815   -2.008194
    261          1           0       -5.077193   -0.266300   -1.762720
    262          1           0       -8.000567    3.785586   -3.642944
    263          1           0       -6.242491   -0.142497   -9.684047
    264          6           0       -6.633522   -0.301534   -8.681838
    265          1           0       -7.706883   -0.467227   -8.749418
    266          6           0       -5.950941   -1.492539   -8.020599
    267          1           0       -6.157742   -2.403700   -8.589142
    268          1           0       -4.869539   -1.339454   -8.021220
    269          6           0       -6.433013   -1.691074   -6.590497
    270          1           0       -7.521844   -1.725709   -6.555177
    271          1           0       -6.033779   -2.605630   -6.152336
    272         16           0       -5.948493   -0.318812   -5.489118
    273          6           0       -4.285281   -0.861518   -5.023571
    274          1           0       -3.652336   -0.916249   -5.904636
    275          1           0       -4.355682   -1.828340   -4.533723
    276          1           0       -3.889047   -0.121450   -4.337021
    277          1           0       -6.461203    0.595818   -8.092233
    278          1           0       -2.533955    4.486682   -5.853753
    279          6           0       -3.131494    4.054833   -5.051609
    280          1           0       -4.159719    3.971992   -5.399636
    281          6           0       -2.598320    2.690295   -4.645660
    282          1           0       -3.167277    2.308952   -3.802709
    283          1           0       -1.550719    2.742601   -4.361263
    284          1           0       -2.687647    1.986097   -5.469886
    285          1           0       -3.118526    4.739376   -4.205885
    286          1           0       -0.206810    8.718558   -3.492467
    287          6           0       -0.046627    8.856893   -2.424847
    288          1           0       -0.668971    9.682923   -2.084543
    289          6           0       -0.393296    7.574479   -1.668133
    290          1           0       -0.256923    7.754651   -0.597602
    291          1           0       -1.443751    7.326720   -1.840320
    292          6           0        0.457472    6.422685   -2.094633
    293          6           0        0.062127    5.313322   -2.792291
    294          1           0       -0.920194    5.054774   -3.139859
    295          7           0        1.116758    4.482447   -3.020748
    296          1           0        1.094162    3.600257   -3.539881
    297          6           0        2.229155    5.041935   -2.478150
    298          6           0        3.541333    4.583223   -2.453990
    299          1           0        3.793975    3.636451   -2.906493
    300          6           0        4.485290    5.367124   -1.829362
    301          1           0        5.514737    5.041401   -1.792057
    302          6           0        4.134266    6.580435   -1.227799
    303          1           0        4.904329    7.163432   -0.741944
    304          6           0        2.837123    7.039594   -1.239459
    305          1           0        2.580411    7.975180   -0.763616
    306          6           0        1.859312    6.274079   -1.875711
    307          1           0        0.996699    9.119426   -2.269806
    308          1           0        4.080282   10.461906    5.709968
    309          6           0        4.728283   10.221754    4.869592
    310          1           0        5.167858    9.244731    5.052941
    311          6           0        3.931580   10.231502    3.569424
    312          1           0        3.446454   11.205899    3.466869
    313          1           0        3.145172    9.475839    3.619638
    314          6           0        4.790150    9.979266    2.323913
    315          1           0        5.674732   10.625293    2.379522
    316          6           0        5.253093    8.526950    2.240713
    317          1           0        4.398327    7.862869    2.130692
    318          1           0        5.903282    8.385800    1.380169
    319          1           0        5.805422    8.236957    3.130836
    320          6           0        4.005657   10.343219    1.064307
    321          1           0        3.091649    9.755945    1.006324
    322          1           0        3.733643   11.396946    1.067080
    323          1           0        4.596199   10.143780    0.172797
    324          1           0        5.529206   10.957644    4.832171
    325          6           0       -2.487739   -1.015008   -1.162393
    326          8           0       -3.679983   -1.187469   -1.470663
    327          6           0       -1.851687    0.258230   -1.203988
    328          6           0       -0.525846    0.431893   -0.979418
    329          6           0        0.343946   -0.685554   -0.491065
    330          6           0       -0.510050   -1.785235    0.143904
    331          6           0       -1.625711   -2.190408   -0.805343
    332          6           0        0.121511    1.712675   -1.341940
    333          6           0        1.237638    2.124658   -0.388580
    334          6           0        2.214966    0.968868   -0.212399
    335          6           0        1.475770   -0.207180    0.443496
    336          6           0        3.409599    1.343959    0.653000
    337          6           0        4.405220    0.180312    0.792569
    338          6           0        3.683515   -0.937460    1.542576
    339          6           0        2.424630   -1.368013    0.780453
    340          6           0        4.285175    2.513542    0.215622
    341          6           0        5.564234    2.328670    1.044934
    342          6           0        5.561272    0.872215    1.564785
    343          6           0        4.944556   -0.332465   -0.542456
    344          8           0        6.846026    0.331570    1.362677
    345          1           0       -2.453104    1.087037   -1.553978
    346          1           0        0.828645   -1.093037   -1.389233
    347          1           0       -0.936445   -1.421392    1.083723
    348          1           0        0.099036   -2.662264    0.361327
    349          1           0       -1.181645   -2.553248   -1.736914
    350          1           0       -2.238099   -2.995987   -0.392798
    351          1           0       -0.620769    2.505197   -1.443268
    352          1           0        0.550829    1.541996   -2.340122
    353          1           0        0.809505    2.402002    0.578640
    354          1           0        1.752827    2.996182   -0.788823
    355          1           0        2.559528    0.666205   -1.201688
    356          1           0        1.027439    0.154144    1.378978
    357          1           0        3.034706    1.572801    1.660871
    358          1           0        3.398228   -0.578418    2.536845
    359          1           0        4.329769   -1.806206    1.679037
    360          1           0        2.713233   -1.865011   -0.144929
    361          1           0        1.898208   -2.099165    1.395752
    362          1           0        3.819496    3.478361    0.402490
    363          1           0        4.494010    2.445086   -0.849285
    364          1           0        5.597793    3.029419    1.878664
    365          1           0        6.461862    2.482395    0.448113
    366          1           0        5.328791    0.854773    2.642225
    367          1           0        5.462751    0.459472   -1.070748
    368          1           0        5.647781   -1.141526   -0.359402
    369          1           0        4.153528   -0.708083   -1.177684
    370          1           0        6.917589   -0.549530    1.764145
    371          8           0        2.499825   -0.961558   -3.015270
    372          1           0        3.172552   -0.400938   -3.438664
    373          1           0        1.662266   -0.648821   -3.422328
    374          8           0        9.176917   -3.483612    0.743234
    375          1           0        8.824442   -4.384854    0.704607
    376          1           0        8.631206   -2.997105    1.390536
    377          8           0        3.982749   -3.245176   -2.511201
    378          1           0        3.343307   -2.527934   -2.677709
    379          1           0        4.812786   -2.908848   -2.889590
    380          8           0        8.047049    0.403954   -1.210870
    381          1           0        7.631356    0.510579   -0.340107
    382          1           0        8.268677   -0.538073   -1.268738
    383          8           0        8.535630   -2.369793   -1.541082
    384          1           0        8.825105   -2.763778   -0.677962
    385          1           0        9.299546   -2.395954   -2.119239
    386          8           0        6.481780   -2.253289   -3.364918
    387          1           0        7.061293   -2.341006   -2.591672
    388          1           0        6.576675   -1.294743   -3.598956
    389          8           0        6.988601    0.308651   -3.763450
    390          1           0        7.314084    0.535579   -2.872405
    391          1           0        6.098403    0.679443   -3.865902
    392          8           0        7.644179   -5.210198    3.254455
    393          1           0        6.765400   -4.837659    3.123012
    394          1           0        7.897726   -5.593873    2.407517
    395          8           0        7.405026   -2.246689    2.458741
    396          1           0        7.750657   -2.569598    3.294849
    397          1           0        6.589418   -2.762137    2.295800
    398          8           0        4.350575    0.471606   -4.548185
    399          1           0        3.868126    1.024373   -5.197041
    400          1           0        4.587711   -0.314943   -5.046878
 ---------------------------------------------------------------------
 Rotational constants (GHZ):           0.0068061           0.0053099           0.0047830
 Standard basis: 6-31G(d) (6D, 7F)
 There are  2827 symmetry adapted cartesian basis functions of A   symmetry.
 There are  2827 symmetry adapted basis functions of A   symmetry.
  2827 basis functions,  5392 primitive gaussians,  2827 cartesian basis functions
   629 alpha electrons      629 beta electrons
       nuclear repulsion energy     50798.9815606273 Hartrees.
 NAtoms=  400 NActive=  400 NUniq=  400 SFac= 1.00D+00 NAtFMM=   60 NAOKFM=T Big=T
 Integral buffers will be    131072 words long.
 Raffenetti 2 integral format.
 Two-electron integral symmetry is turned on.
 Nuclear repulsion after empirical dispersion term =    50798.4909281274 Hartrees.
 One-electron integrals computed using PRISM.
 NBasis=  2827 RedAO= T EigKep=  3.24D-04  NBF=  2827
 NBsUse=  2827 1.00D-06 EigRej= -1.00D+00 NBFU=  2827
 ExpMin= 1.17D-01 ExpMax= 2.19D+04 ExpMxC= 3.30D+03 IAcc=3 IRadAn=         5 AccDes= 0.00D+00
 Harris functional with IExCor= 4639 and IRadAn=       5 diagonalized for initial guess.
 HarFok:  IExCor= 4639 AccDes= 0.00D+00 IRadAn=         5 IDoV= 1 UseB2=F ITyADJ=14
 ICtDFT=  3500011 ScaDFX=  1.000000  1.000000  1.000000  1.000000
 FoFCou: FMM=F IPFlag=           0 FMFlag=      100000 FMFlg1=        2001
         NFxFlg=           0 DoJE=T BraDBF=F KetDBF=T FulRan=T
         wScrn=  0.000000 ICntrl=       500 IOpCl=  0 I1Cent=   200000004 NGrid=           0
         NMat0=    1 NMatS0=      1 NMatT0=    0 NMatD0=    1 NMtDS0=    0 NMtDT0=    0
 Petite list used in FoFCou.
 Requested convergence on RMS density matrix=1.00D-08 within 128 cycles.
 Requested convergence on MAX density matrix=1.00D-06.
 Requested convergence on             energy=1.00D-06.
 No special actions if energy rises.
 Integral accuracy reduced to 1.0D-05 until final iterations.
 Initial convergence to 1.0D-05 achieved.  Increase integral accuracy.
 SCF Done:  E(RwB97XD) =  -8086.41665862     A.U. after   15 cycles
            NFock= 15  Conv=0.32D-08     -V/T= 2.0080
 Hyperfine terms turned off by default for NAtoms > 100.

 **********************************************************************

            Population analysis using the SCF Density.

 **********************************************************************

 Orbital symmetries:
       Occupied  (A) (A) (A) (A) (A) (A) (A) (A) (A) (A) (A) (A)
                 (A) (A) (A) (A) (A) (A) (A) (A) (A) (A) (A) (A)
                 (A) (A) (A) (A) (A) (A) (A) (A) (A) (A) (A) (A)
                 (A) (A) (A) (A) (A) (A) (A) (A) (A) (A) (A) (A)
                 (A) (A) (A) (A) (A) (A) (A) (A) (A) (A) (A) (A)
                 (A) (A) (A) (A) (A) (A) (A) (A) (A) (A) (A) (A)
                 (A) (A) (A) (A) (A) (A) (A) (A) (A) (A) (A) (A)
                 (A) (A) (A) (A) (A) (A) (A) (A) (A) (A) (A) (A)
                 (A) (A) (A) (A) (A) (A) (A) (A) (A) (A) (A) (A)
                 (A) (A) (A) (A) (A) (A) (A) (A) (A) (A) (A) (A)
                 (A) (A) (A) (A) (A) (A) (A) (A) (A) (A) (A) (A)
                 (A) (A) (A) (A) (A) (A) (A) (A) (A) (A) (A) (A)
                 (A) (A) (A) (A) (A) (A) (A) (A) (A) (A) (A) (A)
                 (A) (A) (A) (A) (A) (A) (A) (A) (A) (A) (A) (A)
                 (A) (A) (A) (A) (A) (A) (A) (A) (A) (A) (A) (A)
                 (A) (A) (A) (A) (A) (A) (A) (A) (A) (A) (A) (A)
                 (A) (A) (A) (A) (A) (A) (A) (A) (A) (A) (A) (A)
                 (A) (A) (A) (A) (A) (A) (A) (A) (A) (A) (A) (A)
                 (A) (A) (A) (A) (A) (A) (A) (A) (A) (A) (A) (A)
                 (A) (A) (A) (A) (A) (A) (A) (A) (A) (A) (A) (A)
                 (A) (A) (A) (A) (A) (A) (A) (A) (A) (A) (A) (A)
                 (A) (A) (A) (A) (A) (A) (A) (A) (A) (A) (A) (A)
                 (A) (A) (A) (A) (A) (A) (A) (A) (A) (A) (A) (A)
                 (A) (A) (A) (A) (A) (A) (A) (A) (A) (A) (A) (A)
                 (A) (A) (A) (A) (A) (A) (A) (A) (A) (A) (A) (A)
                 (A) (A) (A) (A) (A) (A) (A) (A) (A) (A) (A) (A)
                 (A) (A) (A) (A) (A) (A) (A) (A) (A) (A) (A) (A)
                 (A) (A) (A) (A) (A) (A) (A) (A) (A) (A) (A) (A)
                 (A) (A) (A) (A) (A) (A) (A) (A) (A) (A) (A) (A)
                 (A) (A) (A) (A) (A) (A) (A) (A) (A) (A) (A) (A)
                 (A) (A) (A) (A) (A) (A) (A) (A) (A) (A) (A) (A)
                 (A) (A) (A) (A) (A) (A) (A) (A) (A) (A) (A) (A)
                 (A) (A) (A) (A) (A) (A) (A) (A) (A) (A) (A) (A)
                 (A) (A) (A) (A) (A) (A) (A) (A) (A) (A) (A) (A)
                 (A) (A) (A) (A) (A) (A) (A) (A) (A) (A) (A) (A)
                 (A) (A) (A) (A) (A) (A) (A) (A) (A) (A) (A) (A)
                 (A) (A) (A) (A) (A) (A) (A) (A) (A) (A) (A) (A)
                 (A) (A) (A) (A) (A) (A) (A) (A) (A) (A) (A) (A)
                 (A) (A) (A) (A) (A) (A) (A) (A) (A) (A) (A) (A)
                 (A) (A) (A) (A) (A) (A) (A) (A) (A) (A) (A) (A)
                 (A) (A) (A) (A) (A) (A) (A) (A) (A) (A) (A) (A)
                 (A) (A) (A) (A) (A) (A) (A) (A) (A) (A) (A) (A)
                 (A) (A) (A) (A) (A) (A) (A) (A) (A) (A) (A) (A)
                 (A) (A) (A) (A) (A) (A) (A) (A) (A) (A) (A) (A)
                 (A) (A) (A) (A) (A) (A) (A) (A) (A) (A) (A) (A)
                 (A) (A) (A) (A) (A) (A) (A) (A) (A) (A) (A) (A)
                 (A) (A) (A) (A) (A) (A) (A) (A) (A) (A) (A) (A)
                 (A) (A) (A) (A) (A) (A) (A) (A) (A) (A) (A) (A)
                 (A) (A) (A) (A) (A) (A) (A) (A) (A) (A) (A) (A)
                 (A) (A) (A) (A) (A) (A) (A) (A) (A) (A) (A) (A)
                 (A) (A) (A) (A) (A) (A) (A) (A) (A) (A) (A) (A)
                 (A) (A) (A) (A) (A) (A) (A) (A) (A) (A) (A) (A)
                 (A) (A) (A) (A) (A)
       Virtual   (A) (A) (A) (A) (A) (A) (A) (A) (A) (A) (A) (A)
                 (A) (A) (A) (A) (A) (A) (A) (A) (A) (A) (A) (A)
                 (A) (A) (A) (A) (A) (A) (A) (A) (A) (A) (A) (A)
                 (A) (A) (A) (A) (A) (A) (A) (A) (A) (A) (A) (A)
                 (A) (A) (A) (A) (A) (A) (A) (A) (A) (A) (A) (A)
                 (A) (A) (A) (A) (A) (A) (A) (A) (A) (A) (A) (A)
                 (A) (A) (A) (A) (A) (A) (A) (A) (A) (A) (A) (A)
                 (A) (A) (A) (A) (A) (A) (A) (A) (A) (A) (A) (A)
                 (A) (A) (A) (A) (A) (A) (A) (A) (A) (A) (A) (A)
                 (A) (A) (A) (A) (A) (A) (A) (A) (A) (A) (A) (A)
                 (A) (A) (A) (A) (A) (A) (A) (A) (A) (A) (A) (A)
                 (A) (A) (A) (A) (A) (A) (A) (A) (A) (A) (A) (A)
                 (A) (A) (A) (A) (A) (A) (A) (A) (A) (A) (A) (A)
                 (A) (A) (A) (A) (A) (A) (A) (A) (A) (A) (A) (A)
                 (A) (A) (A) (A) (A) (A) (A) (A) (A) (A) (A) (A)
                 (A) (A) (A) (A) (A) (A) (A) (A) (A) (A) (A) (A)
                 (A) (A) (A) (A) (A) (A) (A) (A) (A) (A) (A) (A)
                 (A) (A) (A) (A) (A) (A) (A) (A) (A) (A) (A) (A)
                 (A) (A) (A) (A) (A) (A) (A) (A) (A) (A) (A) (A)
                 (A) (A) (A) (A) (A) (A) (A) (A) (A) (A) (A) (A)
                 (A) (A) (A) (A) (A) (A) (A) (A) (A) (A) (A) (A)
                 (A) (A) (A) (A) (A) (A) (A) (A) (A) (A) (A) (A)
                 (A) (A) (A) (A) (A) (A) (A) (A) (A) (A) (A) (A)
                 (A) (A) (A) (A) (A) (A) (A) (A) (A) (A) (A) (A)
                 (A) (A) (A) (A) (A) (A) (A) (A) (A) (A) (A) (A)
                 (A) (A) (A) (A) (A) (A) (A) (A) (A) (A) (A) (A)
                 (A) (A) (A) (A) (A) (A) (A) (A) (A) (A) (A) (A)
                 (A) (A) (A) (A) (A) (A) (A) (A) (A) (A) (A) (A)
                 (A) (A) (A) (A) (A) (A) (A) (A) (A) (A) (A) (A)
                 (A) (A) (A) (A) (A) (A) (A) (A) (A) (A) (A) (A)
                 (A) (A) (A) (A) (A) (A) (A) (A) (A) (A) (A) (A)
                 (A) (A) (A) (A) (A) (A) (A) (A) (A) (A) (A) (A)
                 (A) (A) (A) (A) (A) (A) (A) (A) (A) (A) (A) (A)
                 (A) (A) (A) (A) (A) (A) (A) (A) (A) (A) (A) (A)
                 (A) (A) (A) (A) (A) (A) (A) (A) (A) (A) (A) (A)
                 (A) (A) (A) (A) (A) (A) (A) (A) (A) (A) (A) (A)
                 (A) (A) (A) (A) (A) (A) (A) (A) (A) (A) (A) (A)
                 (A) (A) (A) (A) (A) (A) (A) (A) (A) (A) (A) (A)
                 (A) (A) (A) (A) (A) (A) (A) (A) (A) (A) (A) (A)
                 (A) (A) (A) (A) (A) (A) (A) (A) (A) (A) (A) (A)
                 (A) (A) (A) (A) (A) (A) (A) (A) (A) (A) (A) (A)
                 (A) (A) (A) (A) (A) (A) (A) (A) (A) (A) (A) (A)
                 (A) (A) (A) (A) (A) (A) (A) (A) (A) (A) (A) (A)
                 (A) (A) (A) (A) (A) (A) (A) (A) (A) (A) (A) (A)
                 (A) (A) (A) (A) (A) (A) (A) (A) (A) (A) (A) (A)
                 (A) (A) (A) (A) (A) (A) (A) (A) (A) (A) (A) (A)
                 (A) (A) (A) (A) (A) (A) (A) (A) (A) (A) (A) (A)
                 (A) (A) (A) (A) (A) (A) (A) (A) (A) (A) (A) (A)
                 (A) (A) (A) (A) (A) (A) (A) (A) (A) (A) (A) (A)
                 (A) (A) (A) (A) (A) (A) (A) (A) (A) (A) (A) (A)
                 (A) (A) (A) (A) (A) (A) (A) (A) (A) (A) (A) (A)
                 (A) (A) (A) (A) (A) (A) (A) (A) (A) (A) (A) (A)
                 (A) (A) (A) (A) (A) (A) (A) (A) (A) (A) (A) (A)
                 (A) (A) (A) (A) (A) (A) (A) (A) (A) (A) (A) (A)
                 (A) (A) (A) (A) (A) (A) (A) (A) (A) (A) (A) (A)
                 (A) (A) (A) (A) (A) (A) (A) (A) (A) (A) (A) (A)
                 (A) (A) (A) (A) (A) (A) (A) (A) (A) (A) (A) (A)
                 (A) (A) (A) (A) (A) (A) (A) (A) (A) (A) (A) (A)
                 (A) (A) (A) (A) (A) (A) (A) (A) (A) (A) (A) (A)
                 (A) (A) (A) (A) (A) (A) (A) (A) (A) (A) (A) (A)
                 (A) (A) (A) (A) (A) (A) (A) (A) (A) (A) (A) (A)
                 (A) (A) (A) (A) (A) (A) (A) (A) (A) (A) (A) (A)
                 (A) (A) (A) (A) (A) (A) (A) (A) (A) (A) (A) (A)
                 (A) (A) (A) (A) (A) (A) (A) (A) (A) (A) (A) (A)
                 (A) (A) (A) (A) (A) (A) (A) (A) (A) (A) (A) (A)
                 (A) (A) (A) (A) (A) (A) (A) (A) (A) (A) (A) (A)
                 (A) (A) (A) (A) (A) (A) (A) (A) (A) (A) (A) (A)
                 (A) (A) (A) (A) (A) (A) (A) (A) (A) (A) (A) (A)
                 (A) (A) (A) (A) (A) (A) (A) (A) (A) (A) (A) (A)
                 (A) (A) (A) (A) (A) (A) (A) (A) (A) (A) (A) (A)
                 (A) (A) (A) (A) (A) (A) (A) (A) (A) (A) (A) (A)
                 (A) (A) (A) (A) (A) (A) (A) (A) (A) (A) (A) (A)
                 (A) (A) (A) (A) (A) (A) (A) (A) (A) (A) (A) (A)
                 (A) (A) (A) (A) (A) (A) (A) (A) (A) (A) (A) (A)
                 (A) (A) (A) (A) (A) (A) (A) (A) (A) (A) (A) (A)
                 (A) (A) (A) (A) (A) (A) (A) (A) (A) (A) (A) (A)
                 (A) (A) (A) (A) (A) (A) (A) (A) (A) (A) (A) (A)
                 (A) (A) (A) (A) (A) (A) (A) (A) (A) (A) (A) (A)
                 (A) (A) (A) (A) (A) (A) (A) (A) (A) (A) (A) (A)
                 (A) (A) (A) (A) (A) (A) (A) (A) (A) (A) (A) (A)
                 (A) (A) (A) (A) (A) (A) (A) (A) (A) (A) (A) (A)
                 (A) (A) (A) (A) (A) (A) (A) (A) (A) (A) (A) (A)
                 (A) (A) (A) (A) (A) (A) (A) (A) (A) (A) (A) (A)
                 (A) (A) (A) (A) (A) (A) (A) (A) (A) (A) (A) (A)
                 (A) (A) (A) (A) (A) (A) (A) (A) (A) (A) (A) (A)
                 (A) (A) (A) (A) (A) (A) (A) (A) (A) (A) (A) (A)
                 (A) (A) (A) (A) (A) (A) (A) (A) (A) (A) (A) (A)
                 (A) (A) (A) (A) (A) (A) (A) (A) (A) (A) (A) (A)
                 (A) (A) (A) (A) (A) (A) (A) (A) (A) (A) (A) (A)
                 (A) (A) (A) (A) (A) (A) (A) (A) (A) (A) (A) (A)
                 (A) (A) (A) (A) (A) (A) (A) (A) (A) (A) (A) (A)
                 (A) (A) (A) (A) (A) (A) (A) (A) (A) (A) (A) (A)
                 (A) (A) (A) (A) (A) (A) (A) (A) (A) (A) (A) (A)
                 (A) (A) (A) (A) (A) (A) (A) (A) (A) (A) (A) (A)
                 (A) (A) (A) (A) (A) (A) (A) (A) (A) (A) (A) (A)
                 (A) (A) (A) (A) (A) (A) (A) (A) (A) (A) (A) (A)
                 (A) (A) (A) (A) (A) (A) (A) (A) (A) (A) (A) (A)
                 (A) (A) (A) (A) (A) (A) (A) (A) (A) (A) (A) (A)
                 (A) (A) (A) (A) (A) (A) (A) (A) (A) (A) (A) (A)
                 (A) (A) (A) (A) (A) (A) (A) (A) (A) (A) (A) (A)
                 (A) (A) (A) (A) (A) (A) (A) (A) (A) (A) (A) (A)
                 (A) (A) (A) (A) (A) (A) (A) (A) (A) (A) (A) (A)
                 (A) (A) (A) (A) (A) (A) (A) (A) (A) (A) (A) (A)
                 (A) (A) (A) (A) (A) (A) (A) (A) (A) (A) (A) (A)
                 (A) (A) (A) (A) (A) (A) (A) (A) (A) (A) (A) (A)
                 (A) (A) (A) (A) (A) (A) (A) (A) (A) (A) (A) (A)
                 (A) (A) (A) (A) (A) (A) (A) (A) (A) (A) (A) (A)
                 (A) (A) (A) (A) (A) (A) (A) (A) (A) (A) (A) (A)
                 (A) (A) (A) (A) (A) (A) (A) (A) (A) (A) (A) (A)
                 (A) (A) (A) (A) (A) (A) (A) (A) (A) (A) (A) (A)
                 (A) (A) (A) (A) (A) (A) (A) (A) (A) (A) (A) (A)
                 (A) (A) (A) (A) (A) (A) (A) (A) (A) (A) (A) (A)
                 (A) (A) (A) (A) (A) (A) (A) (A) (A) (A) (A) (A)
                 (A) (A) (A) (A) (A) (A) (A) (A) (A) (A) (A) (A)
                 (A) (A) (A) (A) (A) (A) (A) (A) (A) (A) (A) (A)
                 (A) (A) (A) (A) (A) (A) (A) (A) (A) (A) (A) (A)
                 (A) (A) (A) (A) (A) (A) (A) (A) (A) (A) (A) (A)
                 (A) (A) (A) (A) (A) (A) (A) (A) (A) (A) (A) (A)
                 (A) (A) (A) (A) (A) (A) (A) (A) (A) (A) (A) (A)
                 (A) (A) (A) (A) (A) (A) (A) (A) (A) (A) (A) (A)
                 (A) (A) (A) (A) (A) (A) (A) (A) (A) (A) (A) (A)
                 (A) (A) (A) (A) (A) (A) (A) (A) (A) (A) (A) (A)
                 (A) (A) (A) (A) (A) (A) (A) (A) (A) (A) (A) (A)
                 (A) (A) (A) (A) (A) (A) (A) (A) (A) (A) (A) (A)
                 (A) (A) (A) (A) (A) (A) (A) (A) (A) (A) (A) (A)
                 (A) (A) (A) (A) (A) (A) (A) (A) (A) (A) (A) (A)
                 (A) (A) (A) (A) (A) (A) (A) (A) (A) (A) (A) (A)
                 (A) (A) (A) (A) (A) (A) (A) (A) (A) (A) (A) (A)
                 (A) (A) (A) (A) (A) (A) (A) (A) (A) (A) (A) (A)
                 (A) (A) (A) (A) (A) (A) (A) (A) (A) (A) (A) (A)
                 (A) (A) (A) (A) (A) (A) (A) (A) (A) (A) (A) (A)
                 (A) (A) (A) (A) (A) (A) (A) (A) (A) (A) (A) (A)
                 (A) (A) (A) (A) (A) (A) (A) (A) (A) (A) (A) (A)
                 (A) (A) (A) (A) (A) (A) (A) (A) (A) (A) (A) (A)
                 (A) (A) (A) (A) (A) (A) (A) (A) (A) (A) (A) (A)
                 (A) (A) (A) (A) (A) (A) (A) (A) (A) (A) (A) (A)
                 (A) (A) (A) (A) (A) (A) (A) (A) (A) (A) (A) (A)
                 (A) (A) (A) (A) (A) (A) (A) (A) (A) (A) (A) (A)
                 (A) (A) (A) (A) (A) (A) (A) (A) (A) (A) (A) (A)
                 (A) (A) (A) (A) (A) (A) (A) (A) (A) (A) (A) (A)
                 (A) (A) (A) (A) (A) (A) (A) (A) (A) (A) (A) (A)
                 (A) (A) (A) (A) (A) (A) (A) (A) (A) (A) (A) (A)
                 (A) (A) (A) (A) (A) (A) (A) (A) (A) (A) (A) (A)
                 (A) (A) (A) (A) (A) (A) (A) (A) (A) (A) (A) (A)
                 (A) (A) (A) (A) (A) (A) (A) (A) (A) (A) (A) (A)
                 (A) (A) (A) (A) (A) (A) (A) (A) (A) (A) (A) (A)
                 (A) (A) (A) (A) (A) (A) (A) (A) (A) (A) (A) (A)
                 (A) (A) (A) (A) (A) (A) (A) (A) (A) (A) (A) (A)
                 (A) (A) (A) (A) (A) (A) (A) (A) (A) (A) (A) (A)
                 (A) (A) (A) (A) (A) (A) (A) (A) (A) (A) (A) (A)
                 (A) (A) (A) (A) (A) (A) (A) (A) (A) (A) (A) (A)
                 (A) (A) (A) (A) (A) (A) (A) (A) (A) (A) (A) (A)
                 (A) (A) (A) (A) (A) (A) (A) (A) (A) (A) (A) (A)
                 (A) (A) (A) (A) (A) (A) (A) (A) (A) (A) (A) (A)
                 (A) (A) (A) (A) (A) (A) (A) (A) (A) (A) (A) (A)
                 (A) (A) (A) (A) (A) (A) (A) (A) (A) (A) (A) (A)
                 (A) (A) (A) (A) (A) (A) (A) (A) (A) (A) (A) (A)
                 (A) (A) (A) (A) (A) (A) (A) (A) (A) (A) (A) (A)
                 (A) (A) (A) (A) (A) (A) (A) (A) (A) (A) (A) (A)
                 (A) (A) (A) (A) (A) (A) (A) (A) (A) (A) (A) (A)
                 (A) (A) (A) (A) (A) (A) (A) (A) (A) (A) (A) (A)
                 (A) (A) (A) (A) (A) (A) (A) (A) (A) (A) (A) (A)
                 (A) (A) (A) (A) (A) (A) (A) (A) (A) (A) (A) (A)
                 (A) (A) (A) (A) (A) (A) (A) (A) (A) (A) (A) (A)
                 (A) (A) (A) (A) (A) (A) (A) (A) (A) (A) (A) (A)
                 (A) (A) (A) (A) (A) (A) (A) (A) (A) (A) (A) (A)
                 (A) (A) (A) (A) (A) (A) (A) (A) (A) (A) (A) (A)
                 (A) (A) (A) (A) (A) (A) (A) (A) (A) (A) (A) (A)
                 (A) (A) (A) (A) (A) (A) (A) (A) (A) (A) (A) (A)
                 (A) (A) (A) (A) (A) (A) (A) (A) (A) (A) (A) (A)
                 (A) (A) (A) (A) (A) (A) (A) (A) (A) (A) (A) (A)
                 (A) (A) (A) (A) (A) (A) (A) (A) (A) (A) (A) (A)
                 (A) (A) (A) (A) (A) (A) (A) (A) (A) (A) (A) (A)
                 (A) (A) (A) (A) (A) (A) (A) (A) (A) (A) (A) (A)
                 (A) (A) (A) (A) (A) (A) (A) (A) (A) (A) (A) (A)
                 (A) (A) (A) (A) (A) (A) (A) (A) (A) (A) (A) (A)
                 (A) (A) (A) (A) (A) (A) (A) (A) (A) (A) (A) (A)
                 (A) (A) (A) (A) (A) (A) (A) (A) (A) (A) (A) (A)
                 (A) (A) (A) (A) (A) (A) (A) (A) (A) (A) (A) (A)
                 (A) (A) (A) (A) (A) (A) (A) (A) (A) (A) (A) (A)
                 (A) (A) (A) (A) (A) (A) (A) (A) (A) (A) (A) (A)
                 (A) (A) (A) (A) (A) (A) (A) (A) (A) (A) (A) (A)
                 (A) (A) (A) (A) (A) (A) (A) (A) (A) (A) (A) (A)
                 (A) (A)
 The electronic state is 1-A.
 Alpha  occ. eigenvalues --  -88.97864 -88.97845 -88.96547 -19.23754 -19.23475
 Alpha  occ. eigenvalues --  -19.23336 -19.22181 -19.21947 -19.21871 -19.21648
 Alpha  occ. eigenvalues --  -19.21552 -19.20453 -19.20252 -19.19692 -19.19389
 Alpha  occ. eigenvalues --  -19.19240 -19.18942 -19.17589 -19.17524 -19.16652
 Alpha  occ. eigenvalues --  -19.15961 -19.15958 -19.15830 -19.15724 -19.12954
 Alpha  occ. eigenvalues --  -19.11846 -14.45511 -14.45463 -14.42300 -14.40119
 Alpha  occ. eigenvalues --  -14.39907 -14.38776 -10.38134 -10.37790 -10.36344
 Alpha  occ. eigenvalues --  -10.34268 -10.33578 -10.32841 -10.32358 -10.29761
 Alpha  occ. eigenvalues --  -10.29650 -10.29639 -10.29577 -10.28875 -10.27743
 Alpha  occ. eigenvalues --  -10.27546 -10.27344 -10.27058 -10.26952 -10.26945
 Alpha  occ. eigenvalues --  -10.26494 -10.26399 -10.26227 -10.25886 -10.25818
 Alpha  occ. eigenvalues --  -10.25714 -10.25712 -10.25449 -10.25430 -10.25403
 Alpha  occ. eigenvalues --  -10.25373 -10.25371 -10.25140 -10.25046 -10.24989
 Alpha  occ. eigenvalues --  -10.24867 -10.24849 -10.24771 -10.24688 -10.24673
 Alpha  occ. eigenvalues --  -10.24584 -10.24414 -10.24294 -10.24285 -10.24283
 Alpha  occ. eigenvalues --  -10.24231 -10.24229 -10.24162 -10.24140 -10.24058
 Alpha  occ. eigenvalues --  -10.23979 -10.23959 -10.23884 -10.23876 -10.23754
 Alpha  occ. eigenvalues --  -10.23679 -10.23639 -10.23627 -10.23575 -10.23500
 Alpha  occ. eigenvalues --  -10.23478 -10.23474 -10.23466 -10.23426 -10.23397
 Alpha  occ. eigenvalues --  -10.23309 -10.23305 -10.23292 -10.23263 -10.23183
 Alpha  occ. eigenvalues --  -10.23180 -10.23151 -10.23119 -10.23117 -10.23086
 Alpha  occ. eigenvalues --  -10.23052 -10.23043 -10.22994 -10.22913 -10.22893
 Alpha  occ. eigenvalues --  -10.22860 -10.22847 -10.22838 -10.22836 -10.22823
 Alpha  occ. eigenvalues --  -10.22766 -10.22748 -10.22728 -10.22682 -10.22611
 Alpha  occ. eigenvalues --  -10.22529 -10.22472 -10.22422 -10.22348 -10.22303
 Alpha  occ. eigenvalues --  -10.22290 -10.22262 -10.22124 -10.22038 -10.21926
 Alpha  occ. eigenvalues --  -10.21888 -10.21887 -10.21792 -10.21789 -10.21627
 Alpha  occ. eigenvalues --  -10.21556 -10.21429 -10.21427 -10.21337 -10.21297
 Alpha  occ. eigenvalues --  -10.21285 -10.21232 -10.21178 -10.21029 -10.20950
 Alpha  occ. eigenvalues --  -10.20861 -10.20835 -10.20710 -10.20619 -10.20586
 Alpha  occ. eigenvalues --  -10.20457 -10.20307 -10.19682 -10.19600 -10.19455
 Alpha  occ. eigenvalues --   -7.99776  -7.99761  -7.98468  -5.94817  -5.94804
 Alpha  occ. eigenvalues --   -5.94448  -5.94433  -5.93744  -5.93732  -5.93516
 Alpha  occ. eigenvalues --   -5.93132  -5.92443  -1.13823  -1.12635  -1.11619
 Alpha  occ. eigenvalues --   -1.10291  -1.09005  -1.08171  -1.08008  -1.07495
 Alpha  occ. eigenvalues --   -1.06757  -1.06441  -1.06201  -1.05278  -1.04581
 Alpha  occ. eigenvalues --   -1.04528  -1.04427  -1.03812  -1.03295  -1.03192
 Alpha  occ. eigenvalues --   -1.01397  -1.00456  -1.00358  -1.00302  -1.00052
 Alpha  occ. eigenvalues --   -0.99091  -0.98875  -0.97421  -0.96795  -0.95202
 Alpha  occ. eigenvalues --   -0.92809  -0.90777  -0.90650  -0.90305  -0.89297
 Alpha  occ. eigenvalues --   -0.88320  -0.87282  -0.87042  -0.86950  -0.86881
 Alpha  occ. eigenvalues --   -0.86339  -0.86280  -0.86266  -0.85883  -0.85548
 Alpha  occ. eigenvalues --   -0.85142  -0.84784  -0.84075  -0.83809  -0.83666
 Alpha  occ. eigenvalues --   -0.83440  -0.83393  -0.83117  -0.83027  -0.82409
 Alpha  occ. eigenvalues --   -0.82277  -0.82265  -0.81696  -0.81534  -0.81476
 Alpha  occ. eigenvalues --   -0.80747  -0.79926  -0.79811  -0.79691  -0.79025
 Alpha  occ. eigenvalues --   -0.78965  -0.78796  -0.78490  -0.78245  -0.77998
 Alpha  occ. eigenvalues --   -0.77993  -0.77688  -0.77354  -0.77289  -0.77086
 Alpha  occ. eigenvalues --   -0.76853  -0.76846  -0.76310  -0.75809  -0.75319
 Alpha  occ. eigenvalues --   -0.75202  -0.74350  -0.74059  -0.73785  -0.73659
 Alpha  occ. eigenvalues --   -0.73435  -0.73416  -0.73170  -0.72985  -0.72977
 Alpha  occ. eigenvalues --   -0.72970  -0.72493  -0.72130  -0.71558  -0.71505
 Alpha  occ. eigenvalues --   -0.71006  -0.70727  -0.70518  -0.70429  -0.70304
 Alpha  occ. eigenvalues --   -0.69817  -0.69270  -0.69099  -0.69082  -0.67922
 Alpha  occ. eigenvalues --   -0.67779  -0.67391  -0.67100  -0.66963  -0.66905
 Alpha  occ. eigenvalues --   -0.66507  -0.66326  -0.66108  -0.66048  -0.66044
 Alpha  occ. eigenvalues --   -0.65960  -0.65904  -0.65815  -0.64810  -0.64795
 Alpha  occ. eigenvalues --   -0.64536  -0.64493  -0.64405  -0.64078  -0.63259
 Alpha  occ. eigenvalues --   -0.62970  -0.62817  -0.62445  -0.61892  -0.61787
 Alpha  occ. eigenvalues --   -0.61586  -0.61581  -0.61450  -0.61202  -0.60954
 Alpha  occ. eigenvalues --   -0.60914  -0.60373  -0.60189  -0.60159  -0.60148
 Alpha  occ. eigenvalues --   -0.60130  -0.59546  -0.59493  -0.58801  -0.58748
 Alpha  occ. eigenvalues --   -0.58466  -0.58241  -0.57977  -0.57687  -0.57537
 Alpha  occ. eigenvalues --   -0.57446  -0.57400  -0.57234  -0.57023  -0.56959
 Alpha  occ. eigenvalues --   -0.56562  -0.56106  -0.55965  -0.55572  -0.55324
 Alpha  occ. eigenvalues --   -0.55273  -0.55176  -0.54918  -0.54327  -0.54114
 Alpha  occ. eigenvalues --   -0.54085  -0.54042  -0.53490  -0.53328  -0.53247
 Alpha  occ. eigenvalues --   -0.52966  -0.52637  -0.52438  -0.52416  -0.52226
 Alpha  occ. eigenvalues --   -0.52101  -0.52001  -0.51774  -0.51579  -0.51421
 Alpha  occ. eigenvalues --   -0.51221  -0.51149  -0.51014  -0.50930  -0.50816
 Alpha  occ. eigenvalues --   -0.50743  -0.50716  -0.50516  -0.50478  -0.50410
 Alpha  occ. eigenvalues --   -0.50173  -0.50001  -0.49974  -0.49840  -0.49724
 Alpha  occ. eigenvalues --   -0.49688  -0.49654  -0.49615  -0.49570  -0.49480
 Alpha  occ. eigenvalues --   -0.49316  -0.49259  -0.49199  -0.49046  -0.49012
 Alpha  occ. eigenvalues --   -0.48879  -0.48730  -0.48556  -0.48425  -0.48271
 Alpha  occ. eigenvalues --   -0.48248  -0.48158  -0.47878  -0.47874  -0.47819
 Alpha  occ. eigenvalues --   -0.47742  -0.47486  -0.47416  -0.47346  -0.47216
 Alpha  occ. eigenvalues --   -0.47165  -0.47126  -0.47057  -0.46972  -0.46953
 Alpha  occ. eigenvalues --   -0.46868  -0.46759  -0.46579  -0.46474  -0.46407
 Alpha  occ. eigenvalues --   -0.46360  -0.46296  -0.46244  -0.46192  -0.46103
 Alpha  occ. eigenvalues --   -0.46024  -0.45918  -0.45782  -0.45754  -0.45717
 Alpha  occ. eigenvalues --   -0.45705  -0.45682  -0.45584  -0.45508  -0.45397
 Alpha  occ. eigenvalues --   -0.45339  -0.45151  -0.45107  -0.45083  -0.45053
 Alpha  occ. eigenvalues --   -0.44898  -0.44884  -0.44853  -0.44805  -0.44763
 Alpha  occ. eigenvalues --   -0.44718  -0.44621  -0.44581  -0.44508  -0.44473
 Alpha  occ. eigenvalues --   -0.44320  -0.44297  -0.44211  -0.44069  -0.43915
 Alpha  occ. eigenvalues --   -0.43873  -0.43819  -0.43742  -0.43719  -0.43637
 Alpha  occ. eigenvalues --   -0.43520  -0.43400  -0.43372  -0.43295  -0.43205
 Alpha  occ. eigenvalues --   -0.43101  -0.42984  -0.42912  -0.42804  -0.42704
 Alpha  occ. eigenvalues --   -0.42598  -0.42517  -0.42377  -0.42307  -0.42259
 Alpha  occ. eigenvalues --   -0.42229  -0.42177  -0.42120  -0.42067  -0.42035
 Alpha  occ. eigenvalues --   -0.41921  -0.41882  -0.41824  -0.41655  -0.41623
 Alpha  occ. eigenvalues --   -0.41587  -0.41511  -0.41467  -0.41416  -0.41339
 Alpha  occ. eigenvalues --   -0.41316  -0.41253  -0.41112  -0.40992  -0.40877
 Alpha  occ. eigenvalues --   -0.40680  -0.40642  -0.40523  -0.40398  -0.40322
 Alpha  occ. eigenvalues --   -0.40061  -0.40054  -0.40001  -0.39953  -0.39933
 Alpha  occ. eigenvalues --   -0.39865  -0.39773  -0.39713  -0.39645  -0.39596
 Alpha  occ. eigenvalues --   -0.39534  -0.39412  -0.39353  -0.39317  -0.39307
 Alpha  occ. eigenvalues --   -0.39227  -0.39205  -0.39125  -0.39077  -0.39044
 Alpha  occ. eigenvalues --   -0.39009  -0.38926  -0.38881  -0.38850  -0.38601
 Alpha  occ. eigenvalues --   -0.38531  -0.38452  -0.38435  -0.38361  -0.38339
 Alpha  occ. eigenvalues --   -0.38226  -0.38180  -0.38094  -0.38062  -0.38017
[...]
  259 Atom       -0.763141     -0.708594      1.471735
  260 Atom       -1.315667      0.436112      0.879555
  261 Atom       -0.299471      0.133592      0.165879
  262 Atom       -0.307186      0.150141      0.157045
  263 Atom       -0.307163      0.150418      0.156745
  264 Atom       -0.047240      0.000705      0.046535
  265 Atom       -0.305759      0.148948      0.156811
  266 Atom       -0.040692      0.002190      0.038501
  267 Atom       -0.292298      0.143389      0.148909
  268 Atom       -0.293053      0.142453      0.150600
  269 Atom       -0.203875      0.086354      0.117520
  270 Atom       -0.296706      0.144243      0.152463
  271 Atom       -0.295036      0.143155      0.151881
  272 Atom       -2.293810     -0.553316      2.847126
  273 Atom       -0.238249      0.103887      0.134362
  274 Atom       -0.305802      0.148046      0.157756
  275 Atom       -0.294966      0.142406      0.152559
  276 Atom       -0.303716      0.144371      0.159346
  277 Atom       -0.299188      0.148533      0.150655
  278 Atom       -0.304415      0.150547      0.153868
  279 Atom       -0.014943      0.005563      0.009380
  280 Atom       -0.305380      0.150875      0.154505
  281 Atom       -0.072571      0.010197      0.062374
  282 Atom       -0.294811      0.145172      0.149639
  283 Atom       -0.300649      0.146566      0.154083
  284 Atom       -0.307730      0.150327      0.157403
  285 Atom       -0.305762      0.150596      0.155166
  286 Atom       -0.304289      0.149187      0.155102
  287 Atom       -0.037636      0.013164      0.024473
  288 Atom       -0.304957      0.150049      0.154908
  289 Atom       -0.034103     -0.002707      0.036810
  290 Atom       -0.291471      0.144490      0.146981
  291 Atom       -0.292788      0.143503      0.149285
  292 Atom       -0.087788      0.019692      0.068096
  293 Atom       -0.120093     -0.091096      0.211189
  294 Atom       -0.324500      0.149073      0.175427
  295 Atom       -0.411953     -0.139393      0.551346
  296 Atom       -0.296705      0.122494      0.174211
  297 Atom       -0.147082     -0.080524      0.227606
  298 Atom       -0.202561      0.069962      0.132598
  299 Atom       -0.313963      0.148308      0.165655
  300 Atom       -0.226086      0.093590      0.132496
  301 Atom       -0.314711      0.146743      0.167968
  302 Atom       -0.205801      0.075127      0.130674
  303 Atom       -0.315239      0.146629      0.168609
  304 Atom       -0.232012      0.081731      0.150281
  305 Atom       -0.315960      0.149168      0.166792
  306 Atom       -0.193985      0.077706      0.116279
  307 Atom       -0.305544      0.148785      0.156758
  308 Atom       -0.305604      0.150564      0.155040
  309 Atom       -0.025837      0.009926      0.015912
  310 Atom       -0.306540      0.150758      0.155782
  311 Atom       -0.026717     -0.004752      0.031469
  312 Atom       -0.292188      0.142259      0.149930
  313 Atom       -0.293107      0.143552      0.149555
  314 Atom       -0.014882     -0.004305      0.019186
  315 Atom       -0.284404      0.141382      0.143021
  316 Atom       -0.025325      0.008337      0.016988
  317 Atom       -0.302778      0.147928      0.154850
  318 Atom       -0.305487      0.149887      0.155600
  319 Atom       -0.307251      0.150918      0.156332
  320 Atom       -0.021132      0.006698      0.014434
  321 Atom       -0.304139      0.148695      0.155444
  322 Atom       -0.305197      0.149851      0.155347
  323 Atom       -0.304882      0.149435      0.155447
  324 Atom       -0.305070      0.149806      0.155264
  325 Atom       -0.575793      0.164600      0.411192
  326 Atom       -0.917395     -0.533266      1.450661
  327 Atom       -0.123280      0.017031      0.106249
  328 Atom       -0.580306      0.258843      0.321463
  329 Atom       -0.062773      0.009627      0.053145
  330 Atom       -0.051719      0.000995      0.050724
  331 Atom       -0.049288      0.004229      0.045059
  332 Atom       -0.096647      0.008195      0.088452
  333 Atom       -0.047003     -0.009933      0.056936
  334 Atom       -0.041646     -0.018286      0.059932
  335 Atom       -0.050165      0.006698      0.043467
  336 Atom       -0.023334     -0.005871      0.029205
  337 Atom       -0.014004     -0.007470      0.021473
  338 Atom       -0.032430     -0.008936      0.041367
  339 Atom       -0.034830     -0.010448      0.045278
  340 Atom       -0.059334      0.015841      0.043493
  341 Atom       -0.049868      0.005365      0.044503
  342 Atom       -0.318126      0.156246      0.161881
  343 Atom       -0.055164     -0.007819      0.062984
  344 Atom       -1.532587     -0.107132      1.639719
  345 Atom       -0.300121      0.137161      0.162960
  346 Atom       -0.267689      0.131644      0.136045
  347 Atom       -0.289010      0.141343      0.147667
  348 Atom       -0.295781      0.144984      0.150797
  349 Atom       -0.287673      0.139320      0.148354
  350 Atom       -0.288657      0.139793      0.148864
  351 Atom       -0.294396      0.140175      0.154221
  352 Atom       -0.256969      0.127329      0.129640
  353 Atom       -0.291726      0.143813      0.147913
  354 Atom       -0.293795      0.145416      0.148379
  355 Atom       -0.277695      0.134610      0.143086
  356 Atom       -0.280021      0.139135      0.140886
  357 Atom       -0.277992      0.136813      0.141179
  358 Atom       -0.290925      0.143056      0.147868
  359 Atom       -0.287298      0.141679      0.145619
  360 Atom       -0.290724      0.142537      0.148187
  361 Atom       -0.296492      0.144759      0.151733
  362 Atom       -0.299322      0.147117      0.152205
  363 Atom       -0.301898      0.149071      0.152827
  364 Atom       -0.300756      0.148307      0.152450
  365 Atom       -0.298740      0.147518      0.151222
  366 Atom       -0.272220      0.128542      0.143679
  367 Atom       -0.308567      0.148916      0.159651
  368 Atom       -0.309371      0.149577      0.159794
  369 Atom       -0.301100      0.146491      0.154609
  370 Atom       -0.394477      0.172170      0.222307
  371 Atom       -1.206975     -0.178606      1.385581
  372 Atom       -0.382993      0.166549      0.216443
  373 Atom       -0.345358      0.144674      0.200684
  374 Atom       -1.270750     -0.062610      1.333361
  375 Atom       -0.411955      0.182119      0.229836
  376 Atom       -0.366299      0.161152      0.205147
  377 Atom       -1.254053     -0.174453      1.428507
  378 Atom       -0.369159      0.154993      0.214166
  379 Atom       -0.382806      0.161586      0.221220
  380 Atom       -1.314582     -0.153267      1.467849
  381 Atom       -0.393118      0.167945      0.225173
  382 Atom       -0.396922      0.170110      0.226812
  383 Atom       -1.328710     -0.058338      1.387048
  384 Atom       -0.298837      0.125043      0.173794
  385 Atom       -0.478922      0.215892      0.263031
  386 Atom       -1.132654     -0.063290      1.195944
  387 Atom       -0.391325      0.174369      0.216956
  388 Atom       -0.305516      0.128799      0.176716
  389 Atom       -1.249570     -0.051174      1.300744
  390 Atom       -0.366833      0.159173      0.207660
  391 Atom       -0.400597      0.179315      0.221281
  392 Atom       -1.493355     -0.104364      1.597719
  393 Atom       -0.438109      0.192358      0.245751
  394 Atom       -0.444594      0.196985      0.247609
  395 Atom       -1.333680     -0.061635      1.395315
  396 Atom       -0.466595      0.208133      0.258462
  397 Atom       -0.356118      0.151592      0.204526
  398 Atom       -1.348238     -0.085551      1.433789
  399 Atom       -0.357641      0.152715      0.204926
  400 Atom       -0.469094      0.211227      0.257867
 -----------------------------------------------------
 Unable to Open any file for archive entry.
 1\1\GINC-EXP-7-24\SP\RwB97XD\6-31G(d)\C123H245N6O23S3(1-)\HKLEM\11-Jul
 -2024\0\\# wb97xd/6-31G(d) prop=efg\\19nt_mm_min_distance_cutoff5_xtb_
 conf_1\\-1,1\H,0,46.9606,33.6997,30.8019\C,0,46.354,34.588,30.601\H,0,
 45.7966,34.4247,29.6786\C,0,45.378,34.8189,31.7611\H,0,44.7947,33.9059
 ,31.9038\H,0,45.9318,35.0075,32.6851\C,0,44.4545,35.97,31.4719\C,0,43.
 1843,35.7667,30.9505\H,0,42.8363,34.7598,30.7665\C,0,42.354,36.8323,30
 .6606\H,0,41.3701,36.6675,30.2492\C,0,42.789,38.1327,30.8914\O,0,41.96
 64,39.1743,30.5866\H,0,42.4093,40.0065,30.8837\C,0,44.0587,38.3453,31.
 4109\H,0,44.4001,39.3517,31.5937\C,0,44.877,37.2726,31.6921\H,0,45.864
 1,37.4547,32.0819\C,0,47.32,35.7517,30.318\O,0,47.4468,36.1962,29.194\
 N,0,48.0482,36.227,31.3578\H,0,47.991,35.7802,32.2591\C,0,49.06,37.273
 ,31.205\H,0,48.6913,37.9611,30.4426\C,0,49.373,38.001,32.5124\H,0,49.6
 87,37.2501,33.2499\C,0,50.5476,38.9504,32.2754\H,0,50.7565,39.5231,33.
 1757\H,0,50.3226,39.6423,31.469\H,0,51.4424,38.3933,32.0047\C,0,48.170
 5,38.7427,33.1123\H,0,47.4123,38.0119,33.3995\H,0,48.4973,39.2293,34.0
 34\C,0,47.5433,39.7909,32.2025\H,0,46.6964,40.2487,32.7076\H,0,47.1909
 ,39.3507,31.274\H,0,48.2538,40.5798,31.9702\H,0,49.9836,36.8193,30.820
 6\H,0,48.177,38.1701,26.6187\C,0,48.063,39.251,26.62\H,0,47.356,39.524
 3,25.8404\C,0,47.5523,39.7119,27.9844\H,0,48.2771,39.3894,28.7408\C,0,
 47.4335,41.2317,28.0506\H,0,48.3694,41.7118,27.7736\H,0,46.6557,41.571
 7,27.3728\H,0,47.1713,41.549,29.0581\C,0,46.206,39.0616,28.2916\H,0,45
 .8086,39.4251,29.2372\H,0,46.3161,37.9831,28.3607\H,0,45.485,39.2887,2
 7.5082\H,0,49.0262,39.705,26.3929\H,0,36.0808,46.5658,32.4261\C,0,37.1
 64,46.712,32.465\H,0,37.4934,46.662,33.5005\C,0,37.8761,45.6442,31.635
 1\H,0,37.4326,45.5732,30.6403\H,0,37.8141,44.663,32.1088\C,0,39.3709,4
 6.0217,31.4461\O,0,39.7575,47.0582,32.023\O,0,40.061,45.2822,30.7239\C
 ,0,37.4806,48.0633,31.8546\O,0,37.4047,48.2439,30.6389\N,0,37.7217,49.
 1037,32.6683\C,0,37.9735,50.4215,32.1074\H,0,38.9607,50.4438,31.6357\H
 ,0,37.2223,50.6456,31.3468\C,0,37.923,51.3486,33.3139\H,0,38.4986,52.2
 582,33.1572\H,0,36.8899,51.6172,33.5421\C,0,38.5027,50.4717,34.4214\H,
 0,38.2179,50.8033,35.4186\H,0,39.5898,50.4667,34.3524\C,0,37.95,49.082
 ,34.098\H,0,38.6632,48.2978,34.3627\H,0,37.005,48.8996,34.6268\H,0,40.
 9717,41.8901,22.7168\C,0,40.763,42.802,23.272\H,0,39.7536,42.7325,23.6
 702\C,0,41.7642,42.9907,24.409\H,0,42.7657,43.0853,23.9817\H,0,41.5318
 ,43.9085,24.951\C,0,41.7355,41.8168,25.3486\C,0,42.1525,40.563,24.9153
 \H,0,42.5084,40.4374,23.9019\C,0,42.1264,39.4687,25.7536\H,0,42.4573,3
 8.498,25.4186\C,0,41.6735,39.6054,27.0634\O,0,41.6626,38.51,27.8585\H,
 0,41.5328,38.7748,28.7871\C,0,41.2385,40.8515,27.5011\H,0,40.8688,40.9
 57,28.5122\C,0,41.2723,41.9421,26.65\H,0,40.9326,42.9049,27.0037\H,0,4
 0.8,43.6419,22.5787\H,0,40.4655,46.287,20.438\C,0,40.928,47.267,20.313
 \H,0,41.3039,47.3672,19.2956\C,0,39.9114,48.3771,20.6013\H,0,39.1655,4
 8.3972,19.8052\H,0,40.4239,49.3412,20.5961\C,0,39.19,48.1861,21.9316\H
 ,0,38.7069,47.205,21.9517\H,0,39.8782,48.2514,22.7705\C,0,38.0853,49.2
 251,22.11\O,0,37.3909,49.6155,21.1913\N,0,37.95,49.6461,23.3759\H,0,38
 .5723,49.329,24.1212\H,0,37.2281,50.3124,23.594\C,0,42.135,47.4121,21.
 255\O,0,43.1289,48.0517,20.9265\N,0,42.077,46.8184,22.4697\H,0,41.2258
 ,46.3601,22.758\C,0,43.019,47.115,23.555\H,0,42.6163,46.657,24.4684\H,
 0,43.0728,48.1976,23.7092\C,0,44.4456,46.6298,23.3327\O,0,45.391,47.29
 16,23.7671\N,0,44.6545,45.4852,22.6785\H,0,43.862,44.9647,22.3339\C,0,
 45.983,44.912,22.455\H,0,46.6871,45.5069,23.0352\C,0,46.0188,43.4456,2
 2.8678\H,0,45.3104,42.8898,22.2469\H,0,47.0164,43.0551,22.6588\C,0,45.
 6794,43.2098,24.3449\H,0,44.7273,43.7019,24.5694\C,0,45.5239,41.7129,2
 4.5974\H,0,45.1561,41.5286,25.6033\H,0,44.8147,41.2721,23.9015\H,0,46.
 4806,41.2099,24.4754\C,0,46.7413,43.7989,25.266\H,0,47.7167,43.3688,25
 .0501\H,0,46.7979,44.8773,25.1529\H,0,46.5003,43.5827,26.3031\H,0,46.2
 341,45.0093,21.3935\H,0,51.4636,46.1436,23.6623\C,0,51.26,46.169,24.73
 1\H,0,51.6344,47.1084,25.1295\C,0,49.7615,46.0295,24.9966\H,0,49.4359,
 45.059,24.6059\C,0,49.4841,46.0645,26.497\H,0,50.016,45.2597,26.9998\H
 ,0,49.8113,47.0111,26.9206\H,0,48.422,45.9475,26.6967\C,0,48.9721,47.1
 227,24.2796\H,0,49.2801,48.1051,24.6291\H,0,49.1347,47.0761,23.2047\H,
 0,47.9069,47.0214,24.4742\H,0,51.8065,45.3554,25.2033\H,0,52.937,42.63
 82,29.5571\C,0,52.152,42.334,30.246\H,0,52.0984,43.0694,31.046\C,0,50.
 8171,42.2271,29.5248\H,0,50.0286,41.931,30.2132\H,0,50.8704,41.4854,28
 .7309\H,0,50.5409,43.1832,29.0862\H,0,52.4302,41.3769,30.6824\H,0,45.5
 131,38.1048,40.5412\C,0,46.435,38.561,40.187\H,0,47.1993,38.432,40.949
 2\C,0,46.8808,37.9194,38.876\H,0,47.0609,36.8532,39.0303\H,0,47.8206,3
 8.3666,38.5452\C,0,45.8378,38.0896,37.7827\H,0,45.6931,39.1427,37.5378
 \H,0,44.8841,37.6539,38.0874\S,0,46.3642,37.2304,36.2545\C,0,44.8966,3
 7.544,35.2348\H,0,44.0085,37.2416,35.7828\H,0,44.8458,38.5937,34.9613\
 H,0,44.9857,36.9424,34.3369\H,0,46.2592,39.6259,40.0502\H,0,49.4668,42
 .5182,37.9358\C,0,50.213,42.685,37.162\H,0,51.2012,42.539,37.5935\C,0,
 49.9878,41.7255,35.9905\H,0,50.7538,41.8993,35.2312\H,0,50.0865,40.696
 4,36.3454\C,0,48.6224,41.9306,35.3955\C,0,48.4383,42.7641,34.3006\H,0,
 49.295,43.2437,33.8469\C,0,47.1727,42.9878,33.7872\H,0,47.0429,43.6374
 ,32.9347\C,0,46.0722,42.3835,34.3686\H,0,45.0826,42.5682,33.9829\C,0,4
 6.246,41.55,35.4597\H,0,45.3841,41.0861,35.9176\C,0,47.5116,41.3232,35
 .9677\H,0,47.6466,40.6682,36.8177\H,0,50.1283,43.7158,36.825\H,0,50.54
 38,46.7927,32.3315\C,0,50.84,46.417,31.354\H,0,51.3024,45.4411,31.4855
 \C,0,49.6247,46.317,30.4346\H,0,49.9558,45.9259,29.4661\C,0,48.5895,45
 .3574,31.0159\H,0,48.2257,45.7306,31.9715\H,0,49.0233,44.3718,31.17\H,
 0,47.742,45.2551,30.3408\C,0,49.0051,47.6937,30.2127\H,0,48.633,48.096
 ,31.1533\H,0,48.1722,47.6266,29.5147\H,0,49.7425,48.3861,29.8128\H,0,5
 1.5806,47.0958,30.9368\H,0,52.7844,51.0055,27.0842\C,0,52.401,50.618,2
 6.143\H,0,53.1838,50.0379,25.6601\C,0,51.1763,49.7504,26.3947\H,0,51.4
 586,48.8955,27.0131\H,0,50.8035,49.3752,25.4383\C,0,50.045,50.4995,27.
 0798\H,0,49.7973,51.4152,26.5401\H,0,49.1568,49.8692,27.1491\S,0,50.48
 74,50.9689,28.7943\C,0,48.843,51.4935,29.3494\H,0,48.4738,52.281,28.69
 78\H,0,48.167,50.6425,29.3419\H,0,48.9541,51.8692,30.361\H,0,52.1474,5
 1.4593,25.5012\H,0,50.4948,51.3265,33.6176\C,0,49.755,50.767,34.187\H,
 0,49.633,51.2559,35.1501\C,0,48.4386,50.7068,33.4225\H,0,48.6389,50.33
 67,32.414\H,0,48.0282,51.7148,33.3274\C,0,47.3914,49.7965,34.0723\H,0,
 47.8254,48.7944,34.176\C,0,46.9869,50.2886,35.458\H,0,47.8334,50.3056,
 36.14\H,0,46.5679,51.2906,35.3935\H,0,46.2308,49.6285,35.8754\C,0,46.1
 566,49.7038,33.1791\H,0,46.4193,49.322,32.195\H,0,45.7013,50.6847,33.0
 562\H,0,45.4126,49.0436,33.6168\H,0,50.1433,49.7645,34.3562\H,0,47.183
 3,46.8468,36.8633\C,0,46.253,46.438,37.253\H,0,45.5584,47.2592,37.4138
 \C,0,45.6586,45.4259,36.275\H,0,46.3766,44.6078,36.143\C,0,44.359,44.8
 448,36.8252\H,0,43.9459,44.1057,36.1435\H,0,44.5294,44.3667,37.7884\H,
 0,43.6234,45.6352,36.9612\C,0,45.4113,46.0763,34.9172\H,0,45.0273,45.3
 415,34.2151\H,0,46.3344,46.4871,34.5131\H,0,44.6852,46.8822,35.0075\H,
 0,46.4601,45.9697,38.2135\H,0,43.2959,41.6114,37.7623\C,0,42.317,41.20
 1,37.522\H,0,41.6455,42.0339,37.3333\C,0,42.3924,40.313,36.2908\H,0,43
 .1071,39.5005,36.4253\H,0,41.4186,39.8605,36.0881\C,0,42.7595,41.0746,
 35.0361\O,0,42.7831,42.277,34.9383\O,0,43.0486,40.2595,34.0356\H,0,43.
 1515,40.7557,33.1765\H,0,41.9524,40.6373,38.3772\H,0,35.4705,39.4014,3
 4.99\C,0,36.5,39.053,34.953\H,0,36.5568,38.0829,35.4427\C,0,36.9822,38
 .9513,33.5112\H,0,36.3802,38.2176,32.9676\H,0,36.856,39.9164,33.0157\C
 ,0,38.4437,38.5322,33.4379\H,0,38.6137,37.6323,34.0289\H,0,38.7609,38.
 3487,32.4115\S,0,39.571,39.7923,34.1251\C,0,39.7824,40.8511,32.6719\H,
 0,38.8268,41.2781,32.3814\H,0,40.2063,40.2599,31.8654\H,0,40.4649,41.6
 456,32.953\H,0,37.1262,39.752,35.5024\H,0,39.125,45.339,36.105\C,0,39.
 963,44.652,35.992\H,0,39.7426,43.7497,36.5599\C,0,40.199,44.3125,34.52
 91\H,0,41.0774,43.6806,34.4352\H,0,40.3518,45.2088,33.9338\H,0,39.3441
 ,43.7791,34.1194\H,0,40.8474,45.1134,36.4267\H,0,41.472,49.8365,37.883
 8\C,0,42.518,50.112,37.763\H,0,42.9928,50.1106,38.7428\C,0,43.2181,49.
 1292,36.8242\H,0,44.273,49.41,36.7505\H,0,43.1626,48.1234,37.2482\C,0,
 42.6057,49.1203,35.4614\C,0,41.8855,48.1104,34.8825\H,0,41.6471,47.142
 8,35.2819\N,0,41.4664,48.4659,33.6364\H,0,40.8921,47.9013,33.0042\C,0,
 41.903,49.7263,33.3802\C,0,41.7281,50.5229,32.2543\H,0,41.1803,50.1476
 ,31.4034\C,0,42.2833,51.7828,32.2653\H,0,42.1667,52.4288,31.4072\C,0,4
 3.0102,52.243,33.3685\H,0,43.4356,53.2364,33.3349\C,0,43.1956,51.4596,
 34.4845\H,0,43.7662,51.8265,35.3256\C,0,42.6345,50.1823,34.5093\H,0,42
 .5585,51.1196,37.3573\H,0,50.1606,54.8865,35.6235\C,0,49.23,55.22,35.1
 69\H,0,49.2855,55.0172,34.1026\C,0,48.045,54.5012,35.8049\H,0,48.075,5
 4.6705,36.8846\H,0,48.1396,53.4265,35.6374\C,0,46.6861,54.9735,35.2735
 \H,0,46.6759,56.0702,35.2821\C,0,46.4407,54.4961,33.8444\H,0,46.392,53
 .4097,33.8113\H,0,45.497,54.8879,33.4714\H,0,47.2307,54.8285,33.1759\C
 ,0,45.5652,54.4737,36.1836\H,0,45.581,53.3873,36.2397\H,0,45.6782,54.8
 683,37.1915\H,0,44.5942,54.7813,35.8017\H,0,49.1448,56.2957,35.3105\C,
 0,43.3644,42.4527,31.0083\O,0,43.1976,41.3677,31.5924\C,0,43.3346,43.7
 081,31.6795\C,0,43.4018,44.8969,31.0309\C,0,43.6946,44.9792,29.5642\C,
 0,44.3515,43.6847,29.0799\C,0,43.5241,42.4869,29.5165\C,0,43.0536,46.1
 463,31.7441\C,0,43.8855,47.3487,31.3122\C,0,43.8531,47.4767,29.7941\C,
 0,44.5107,46.2319,29.1795\C,0,44.5854,48.7158,29.299\C,0,44.5139,48.85
 18,27.7689\C,0,45.2666,47.6609,27.179\C,0,44.6406,46.3437,27.6524\C,0,
 44.1263,50.0806,29.8014\C,0,44.7719,51.0592,28.8097\C,0,45.1817,50.238
 8,27.5645\C,0,43.088,48.9081,27.2214\O,0,44.7805,50.9516,26.4179\H,0,4
 3.124,43.6832,32.7407\H,0,42.7154,45.0793,29.0755\H,0,45.3614,43.6089,
 29.4944\H,0,44.4265,43.6796,27.9928\H,0,42.5202,42.5781,29.0916\H,0,43
 .9516,41.5461,29.1611\H,0,43.1042,46.0013,32.8238\H,0,41.9995,46.3336,
 31.4919\H,0,44.9165,47.2227,31.6541\H,0,43.4872,48.25,31.775\H,0,42.80
 9,47.5189,29.4825\H,0,45.5189,46.1366,29.6051\H,0,45.6464,48.6071,29.5
 658\H,0,46.3122,47.6999,27.5016\H,0,45.2574,47.6858,26.088\H,0,43.6528
 ,46.2311,27.2072\H,0,45.2632,45.5283,27.2812\H,0,44.4395,50.2777,30.82
 4\H,0,43.0414,50.1449,29.767\H,0,45.643,51.546,29.2473\H,0,44.0791,51.
 8395,28.4987\H,0,46.2758,50.106,27.5413\H,0,42.5569,49.7576,27.635\H,0
 ,43.122,49.0168,26.1399\H,0,42.5324,48.0096,27.4545\H,0,45.1052,50.52,
 25.6111\O,0,40.905,46.4104,28.4393\H,0,40.4415,47.2565,28.5634\H,0,40.
 6306,45.8897,29.2258\O,0,43.5984,50.5759,22.0781\H,0,43.5398,49.7623,2
 1.556\H,0,44.3428,50.4572,22.6988\O,0,41.0519,46.3099,25.6759\H,0,41.0
 196,46.2003,26.6444\H,0,40.5969,47.1553,25.5225\O,0,42.0878,51.8097,26
 .1283\H,0,43.0095,51.5883,26.3377\H,0,41.9347,51.4361,25.2469\O,0,41.4
 996,50.5671,23.6481\H,0,42.2886,50.6243,23.0496\H,0,40.8292,51.1353,23
 .2657\O,0,39.963,48.8605,25.1596\H,0,40.6485,49.3258,24.6546\H,0,39.78
 85,49.4823,25.9116\O,0,39.6892,50.7413,26.9945\H,0,40.546,51.1916,26.8
 74\H,0,39.727,50.2304,27.8179\O,0,46.1522,48.4803,21.2277\H,0,46.16,47
 .9779,22.0498\H,0,45.2546,48.4102,20.8839\O,0,45.6086,49.967,23.8672\H
 ,0,46.3689,50.1095,23.2976\H,0,45.5133,48.9958,23.9389\O,0,39.2578,48.
 652,28.741\H,0,38.7166,48.5442,29.5502\H,0,38.6778,48.3548,28.0347\\Ve
 rsion=ES64L-G16RevC.01\State=1-A\HF=-8086.4166586\RMSD=3.200e-09\Dipol
 e=3.749568,-3.406118,2.7065623\Quadrupole=16.4331865,-22.2286863,5.795
 4997,19.1018502,-29.1722302,34.6428022\PG=C01 [X(C123H245N6O23S3)]\\@
 The archive entry for this job was punched.


 THE MOST INCOMPREHENSIBLE THING ABOUT THE WORLD
 IS THAT IT IS COMPREHENSIBLE. -- A. EINSTEIN
 Job cpu time:       0 days  7 hours 21 minutes 47.2 seconds.
 Elapsed time:       0 days  0 hours 14 minutes 15.9 seconds.
 File lengths (MBytes):  RWF=   4286 Int=      0 D2E=      0 Chk=    460 Scr=      1
 Normal termination of Gaussian 16 at Thu Jul 11 12:05:39 2024.
