 Entering Gaussian System, Link 0=g16
 Initial command:
 /cm/shared/apps/spack/cpu/opt/spack/linux-centos8-zen/gcc-8.3.1/gaussian-16.C.01-po5bqktfeugvmjyga3v7eigbecnokxng/g16/l1.exe "/scratch/hklem/job_32857447/Gau-2549221.inp" -scrdir="/scratch/hklem/job_32857447/"
 Entering Link 1 = /cm/shared/apps/spack/cpu/opt/spack/linux-centos8-zen/gcc-8.3.1/gaussian-16.C.01-po5bqktfeugvmjyga3v7eigbecnokxng/g16/l1.exe PID=   2549222.
  
 Copyright (c) 1988-2019, Gaussian, Inc.  All Rights Reserved.
  
 This is part of the Gaussian(R) 16 program.  It is based on
 the Gaussian(R) 09 system (copyright 2009, Gaussian, Inc.),
 the Gaussian(R) 03 system (copyright 2003, Gaussian, Inc.),
 the Gaussian(R) 98 system (copyright 1998, Gaussian, Inc.),
 the Gaussian(R) 94 system (copyright 1995, Gaussian, Inc.),
 the Gaussian 92(TM) system (copyright 1992, Gaussian, Inc.),
 the Gaussian 90(TM) system (copyright 1990, Gaussian, Inc.),
 the Gaussian 88(TM) system (copyright 1988, Gaussian, Inc.),
 the Gaussian 86(TM) system (copyright 1986, Carnegie Mellon
 University), and the Gaussian 82(TM) system (copyright 1983,
 Carnegie Mellon University). Gaussian is a federally registered
 trademark of Gaussian, Inc.
  
 This software contains proprietary and confidential information,
 including trade secrets, belonging to Gaussian, Inc.
  
 This software is provided under written license and may be
 used, copied, transmitted, or stored only in accord with that
 written license.
  
 The following legend is applicable only to US Government
 contracts under FAR:
  
                    RESTRICTED RIGHTS LEGEND
  
 Use, reproduction and disclosure by the US Government is
 subject to restrictions as set forth in subparagraphs (a)
 and (c) of the Commercial Computer Software - Restricted
 Rights clause in FAR 52.227-19.
  
 Gaussian, Inc.
 340 Quinnipiac St., Bldg. 40, Wallingford CT 06492
  
  
 ---------------------------------------------------------------
 Warning -- This program may not be used in any manner that
 competes with the business of Gaussian, Inc. or will provide
 assistance to any competitor of Gaussian, Inc.  The licensee
 of this program is prohibited from giving any competitor of
 Gaussian, Inc. access to this program.  By using this program,
 the user acknowledges that Gaussian, Inc. is engaged in the
 business of creating and licensing software in the field of
 computational chemistry and represents and warrants to the
 licensee that it is not a competitor of Gaussian, Inc. and that
 it will not use this program in any manner prohibited above.
 ---------------------------------------------------------------
  

 Cite this work as:
 Gaussian 16, Revision C.01,
 M. J. Frisch, G. W. Trucks, H. B. Schlegel, G. E. Scuseria, 
 M. A. Robb, J. R. Cheeseman, G. Scalmani, V. Barone, 
 G. A. Petersson, H. Nakatsuji, X. Li, M. Caricato, A. V. Marenich, 
 J. Bloino, B. G. Janesko, R. Gomperts, B. Mennucci, H. P. Hratchian, 
 J. V. Ortiz, A. F. Izmaylov, J. L. Sonnenberg, D. Williams-Young, 
 F. Ding, F. Lipparini, F. Egidi, J. Goings, B. Peng, A. Petrone, 
 T. Henderson, D. Ranasinghe, V. G. Zakrzewski, J. Gao, N. Rega, 
 G. Zheng, W. Liang, M. Hada, M. Ehara, K. Toyota, R. Fukuda, 
 J. Hasegawa, M. Ishida, T. Nakajima, Y. Honda, O. Kitao, H. Nakai, 
 T. Vreven, K. Throssell, J. A. Montgomery, Jr., J. E. Peralta, 
 F. Ogliaro, M. J. Bearpark, J. J. Heyd, E. N. Brothers, K. N. Kudin, 
 V. N. Staroverov, T. A. Keith, R. Kobayashi, J. Normand, 
 K. Raghavachari, A. P. Rendell, J. C. Burant, S. S. Iyengar, 
 J. Tomasi, M. Cossi, J. M. Millam, M. Klene, C. Adamo, R. Cammi, 
 J. W. Ochterski, R. L. Martin, K. Morokuma, O. Farkas, 
 J. B. Foresman, and D. J. Fox, Gaussian, Inc., Wallingford CT, 2019.
 
 ******************************************
 Gaussian 16:  ES64L-G16RevC.01  3-Jul-2019
                 8-Aug-2024 
 ******************************************
 %nprocshared=24
 Will use up to   24 processors via shared memory.
 %mem=48GB
 --------------------------
 # wb97xd 6-31G(d) prop=efg
 --------------------------
 1/38=1,172=1/1;
 2/12=2,17=6,18=5,40=1/2;
 3/5=1,6=6,7=1,11=2,25=1,30=1,74=-58/1,2,3;
 4//1;
 5/5=2,38=5/2;
 6/7=2,8=2,9=2,10=2,14=1,28=1/1,2;
 99/5=1,9=1/99;
 ------------------------------------------------
 19nt_mm_min_distance_cutoff3_nowat_ligand_conf_1
 ------------------------------------------------
 Symbolic Z-matrix:
 Charge =  0 Multiplicity = 1
 C                    -3.4809    0.942     1.1969 
 O                    -4.7201    1.0482    1.1096 
 C                    -2.8058   -0.3206    1.0602 
 C                    -1.4848   -0.465     1.3414 
 C                    -0.5836    0.7253    1.5992 
 C                    -1.2191    2.0275    1.1069 
 C                    -2.666     2.1591    1.5522 
 C                    -0.8939   -1.8206    1.5318 
 C                     0.5366   -1.9726    1.0131 
 C                     1.4276   -0.8256    1.4922 
 C                     0.8237    0.5082    0.9982 
 C                     2.8681   -0.9435    1.0048 
 C                     3.7562    0.2518    1.4093 
 C                     3.1759    1.5237    0.7971 
 C                     1.7231    1.7347    1.2332 
 C                     3.7085   -2.1607    1.4121 
 C                     5.1656   -1.7152    1.1182 
 C                     5.0924   -0.2076    0.797 
 C                     3.9077    0.4134    2.9321 
 O                     6.2535    0.4554    1.27 
 H                    -3.4228   -1.1914    0.8558 
 H                    -0.4653    0.7747    2.6957 
 H                    -1.1691    2.0522    0.0089 
 H                    -0.6543    2.8916    1.4691 
 H                    -2.7187    2.2609    2.6461 
 H                    -3.1478    3.0481    1.135 
 H                    -1.5498   -2.5827    1.103 
 H                    -0.9078   -1.9835    2.6301 
 H                     0.5325   -1.9954   -0.0861 
 H                     0.9318   -2.9353    1.3507 
 H                     1.416    -0.8384    2.5922 
 H                     0.6974    0.4063   -0.0934 
 H                     2.8273   -0.9332   -0.0994 
 H                     3.2173    1.4466   -0.2993 
 H                     3.7642    2.4063    1.08 
 H                     1.6967    2.0197    2.2939 
 H                     1.3227    2.5895    0.678 
 H                     3.4308   -3.0667    0.8724 
 H                     3.5639   -2.3829    2.474 
 H                     5.6017   -2.276     0.2852 
 H                     5.8227   -1.86      1.9813 
 H                     5.0203   -0.0692   -0.2957 
 H                     4.465    -0.4146    3.3786 
 H                     4.4404    1.3411    3.1655 
 H                     2.9374    0.4648    3.4332 
 H                     6.0798    1.4045    1.2205 
 
                          Input orientation:                          
 ---------------------------------------------------------------------
 Center     Atomic      Atomic             Coordinates (Angstroms)
 Number     Number       Type             X           Y           Z
 ---------------------------------------------------------------------
      1          6           0       -3.480900    0.942000    1.196900
      2          8           0       -4.720100    1.048200    1.109600
      3          6           0       -2.805800   -0.320600    1.060200
      4          6           0       -1.484800   -0.465000    1.341400
      5          6           0       -0.583600    0.725300    1.599200
      6          6           0       -1.219100    2.027500    1.106900
      7          6           0       -2.666000    2.159100    1.552200
      8          6           0       -0.893900   -1.820600    1.531800
      9          6           0        0.536600   -1.972600    1.013100
     10          6           0        1.427600   -0.825600    1.492200
     11          6           0        0.823700    0.508200    0.998200
     12          6           0        2.868100   -0.943500    1.004800
     13          6           0        3.756200    0.251800    1.409300
     14          6           0        3.175900    1.523700    0.797100
     15          6           0        1.723100    1.734700    1.233200
     16          6           0        3.708500   -2.160700    1.412100
     17          6           0        5.165600   -1.715200    1.118200
     18          6           0        5.092400   -0.207600    0.797000
     19          6           0        3.907700    0.413400    2.932100
     20          8           0        6.253500    0.455400    1.270000
     21          1           0       -3.422800   -1.191400    0.855800
     22          1           0       -0.465300    0.774700    2.695700
     23          1           0       -1.169100    2.052200    0.008900
     24          1           0       -0.654300    2.891600    1.469100
     25          1           0       -2.718700    2.260900    2.646100
     26          1           0       -3.147800    3.048100    1.135000
     27          1           0       -1.549800   -2.582700    1.103000
     28          1           0       -0.907800   -1.983500    2.630100
     29          1           0        0.532500   -1.995400   -0.086100
     30          1           0        0.931800   -2.935300    1.350700
     31          1           0        1.416000   -0.838400    2.592200
     32          1           0        0.697400    0.406300   -0.093400
     33          1           0        2.827300   -0.933200   -0.099400
     34          1           0        3.217300    1.446600   -0.299300
     35          1           0        3.764200    2.406300    1.080000
     36          1           0        1.696700    2.019700    2.293900
     37          1           0        1.322700    2.589500    0.678000
     38          1           0        3.430800   -3.066700    0.872400
     39          1           0        3.563900   -2.382900    2.474000
     40          1           0        5.601700   -2.276000    0.285200
     41          1           0        5.822700   -1.860000    1.981300
     42          1           0        5.020300   -0.069200   -0.295700
     43          1           0        4.465000   -0.414600    3.378600
     44          1           0        4.440400    1.341100    3.165500
     45          1           0        2.937400    0.464800    3.433200
     46          1           0        6.079800    1.404500    1.220500
 ---------------------------------------------------------------------
                    Distance matrix (angstroms):
                    1          2          3          4          5
     1  C    0.000000
     2  O    1.246802   0.000000
     3  C    1.438265   2.353848   0.000000
     4  C    2.446415   3.579200   1.358295   0.000000
     5  C    2.933113   4.177871   2.514478   1.515070   0.000000
     6  C    2.510408   3.635387   2.834320   2.517567   1.530341
     7  C    1.507194   2.376830   2.531900   2.885407   2.528711
     8  C    3.799564   4.800841   2.475433   1.490995   2.565626
     9  C    4.966788   6.063616   3.728667   2.542970   2.979434
    10  C    5.225417   6.438301   4.285245   2.938511   2.541981
    11  C    4.330964   5.571151   3.723442   2.528651   1.545583
    12  C    6.625844   7.845931   5.708258   4.392038   3.879747
    13  C    7.273040   8.518905   6.596162   5.290226   4.369683
    14  C    6.694117   7.916475   6.265094   5.096402   3.926149
    15  C    5.264153   6.480848   4.976457   3.891145   2.544348
    16  C    7.833296   9.023849   6.778341   5.463585   5.175531
    17  C    9.045931  10.264673   8.092681   6.770572   6.264240
    18  C    8.659271   9.897470   7.903392   6.604709   5.807823
    19  C    7.608005   8.841007   7.008127   5.690428   4.695283
    20  O    9.746829  10.990771   9.094895   7.793171   6.850340
    21  H    2.161277   2.600617   1.086628   2.125866   3.505344
    22  H    3.371681   4.549048   3.058183   2.100087   1.103969
    23  H    2.826359   3.850865   3.068257   2.865575   2.152331
    24  H    3.444517   4.478626   3.887722   3.460174   2.171354
    25  H    2.102529   2.799478   3.030975   3.264243   2.830675
    26  H    2.133177   2.544086   3.386842   3.892305   3.490846
    27  H    4.020134   4.820195   2.587753   2.132068   3.481755
    28  H    4.151320   5.102623   2.971906   2.073528   2.916412
    29  H    5.136320   6.187326   3.906815   2.906782   3.389413
    30  H    5.876141   6.918842   4.570635   3.455781   3.969658
    31  H    5.394100   6.588557   4.520922   3.180970   2.725731
    32  H    4.405683   5.586461   3.759200   2.753146   2.146536
    33  H    6.707470   7.896257   5.783750   4.570484   4.155731
    34  H    6.881796   8.071310   6.422536   5.334403   4.309457
    35  H    7.392517   8.592360   7.113457   5.988714   4.690277
    36  H    5.401147   6.597098   5.222215   4.147642   2.712535
    37  H    5.104712   6.251185   5.065498   4.201443   2.820963
    38  H    7.996660   9.133775   6.817002   5.581391   5.569821
    39  H    7.893995   9.069658   6.842879   5.518197   5.256229
    40  H    9.678861  10.875178   8.666618   7.390112   6.999452
    41  H    9.747998  10.971241   8.813013   7.466931   6.918848
    42  H    8.690269   9.904486   7.946666   6.719604   5.968716
    43  H    8.350898   9.573620   7.632060   6.289105   5.473025
    44  H    8.172005   9.392938   7.726639   6.457347   5.298404
    45  H    6.813467   8.023514   6.263572   4.979559   3.978550
    46  H    9.571909  10.806345   9.052931   7.793126   6.708623
                    6          7          8          9         10
     6  C    0.000000
     7  C    1.519582   0.000000
     8  C    3.885121   4.356463   0.000000
     9  C    4.369449   5.255304   1.529210   0.000000
    10  C    3.910710   5.066517   2.526055   1.529388   0.000000
    11  C    2.548160   3.900050   2.942480   2.497402   1.545236
    12  C    5.053956   6.368048   3.898676   2.548531   1.525287
    13  C    5.291329   6.700960   5.092473   3.933288   2.567108
    14  C    4.434616   5.924669   5.318590   4.385963   3.009805
    15  C    2.959430   4.421094   4.424704   3.898756   2.590277
    16  C    6.474211   7.701594   4.616501   3.202426   2.644128
    17  C    7.400833   8.748286   6.074514   4.637342   3.860558
    18  C    6.702741   8.146433   6.243195   4.890525   3.781003
    19  C    5.676333   6.940110   5.477861   4.554105   3.123992
    20  O    7.637922   9.085137   7.505601   6.216440   4.997964
    21  H    3.909049   3.504792   2.692249   4.038795   4.905629
    22  H    2.159168   2.840288   2.876446   3.373811   2.755439
    23  H    1.099415   2.152652   4.170556   4.485181   4.150273
    24  H    1.094009   2.142522   4.718704   5.028580   4.260565
    25  H    2.161576   1.099890   4.607624   5.584460   5.296203
    26  H    2.182269   1.093850   5.379754   6.228731   6.005616
    27  H    4.622047   4.892070   1.093101   2.175631   3.479050
    28  H    4.301763   4.627556   1.110402   2.168202   2.844230
    29  H    4.546985   5.493114   2.163971   1.099444   2.158858
    30  H    5.414351   6.240006   2.146750   1.094051   2.171791
    31  H    4.166923   5.170042   2.724849   2.133849   1.100136
    32  H    2.782442   4.134340   3.183174   2.628567   2.136562
    33  H    5.156962   6.516628   4.158801   2.750512   2.122246
    34  H    4.690041   6.208778   5.561429   4.538664   3.402263
    35  H    4.997749   6.452252   6.306243   5.440280   4.009337
    36  H    3.148161   4.427494   4.694668   4.350257   2.968311
    37  H    2.638285   4.105995   5.009119   4.641444   3.512383
    38  H    6.901263   8.058665   4.548693   3.097296   3.069119
    39  H    6.648134   7.764737   4.590850   3.386314   2.820087
    40  H    8.106702   9.467326   6.629798   5.126122   4.580788
    41  H    8.090994   9.401878   6.731740   5.375216   4.541597
    42  H    6.730048   8.213359   6.433111   5.043754   4.083653
    43  H    6.590407   7.798130   5.839976   4.843065   3.599059
    44  H    6.061264   7.332993   6.412494   5.554556   4.070809
    45  H    5.013003   6.148732   4.849457   4.190661   2.777068
    46  H    7.326321   8.784558   7.689647   6.494219   5.166249
                   11         12         13         14         15
    11  C    0.000000
    12  C    2.507399   0.000000
    13  C    2.972255   1.543076   0.000000
    14  C    2.569927   2.494986   1.526193   0.000000
    15  C    1.538976   2.921634   2.522598   1.531448   0.000000
    16  C    3.951761   1.534191   2.412973   3.773154   4.375838
    17  C    4.879549   2.426291   2.437260   3.814772   4.875022
    18  C    4.332973   2.352071   1.539932   2.582706   3.913436
    19  C    3.641430   2.576127   1.538826   2.515258   3.066687
    20  O    5.436855   3.672627   2.509455   3.291887   4.707705
    21  H    4.576208   6.297545   7.343516   7.135689   5.931676
    22  H    2.148034   4.113746   4.444020   4.174209   2.801714
    23  H    2.708118   5.124941   5.427812   4.447426   3.156666
    24  H    2.843735   5.227893   5.140489   4.122277   2.654449
    25  H    4.282071   6.646381   6.891334   6.221621   4.690710
    26  H    4.716208   7.220864   7.453841   6.513613   5.045823
    27  H    3.898480   4.713222   6.023441   6.268041   5.419296
    28  H    3.445252   4.240356   5.314115   5.686558   4.764239
    29  H    2.743814   2.784167   4.204565   4.489061   4.131795
    30  H    3.463183   2.799316   4.258905   5.022463   4.738023
    31  H    2.169098   2.153945   2.839775   3.449514   2.926096
    32  H    1.103597   2.782075   3.411486   2.860863   2.139293
    33  H    2.701254   1.105002   2.131491   2.638483   3.180058
    34  H    2.879830   2.745031   2.153433   1.099887   2.159674
    35  H    3.500859   3.468402   2.179535   1.097776   2.154207
    36  H    2.173844   3.437224   2.854738   2.162050   1.098638
    37  H    2.164102   3.870032   3.452762   2.141136   1.095103
    38  H    4.426365   2.200486   3.377364   4.598088   5.108802
    39  H    4.247957   2.171303   2.848194   4.268965   4.677901
    40  H    5.575789   3.125052   3.325544   4.536989   5.659325
    41  H    5.618261   3.243946   3.009536   4.456154   5.503475
    42  H    4.429336   2.662267   2.146629   2.670834   4.057477
    43  H    4.447126   2.909425   2.196504   3.476051   4.091485
    44  H    4.297840   3.515700   2.176911   2.691026   3.357443
    45  H    3.224723   2.808067   2.193621   2.850820   2.815523
    46  H    5.336605   3.984300   2.600669   2.937024   4.369214
                   16         17         18         19         20
    16  C    0.000000
    17  C    1.551769   0.000000
    18  C    2.471462   1.543174   0.000000
    19  C    2.996009   3.066510   2.519485   0.000000
    20  O    3.652560   2.432709   1.418256   2.875260   0.000000
    21  H    7.218341   8.608358   8.572045   7.786054   9.824169
    22  H    5.261636   6.355717   5.954662   4.394263   6.875816
    23  H    6.596096   7.453340   6.703296   6.083146   7.696436
    24  H    6.675553   7.430812   6.563636   5.393857   7.327511
    25  H    7.898240   8.961364   8.397973   6.885073   9.254937
    26  H    8.614942   9.581332   8.866494   7.742822   9.753192
    27  H    5.284255   6.771217   7.060705   6.488954   8.375526
    28  H    4.777567   6.264504   6.520466   5.387520   7.686503
    29  H    3.515523   4.795255   4.976825   5.128725   6.369872
    30  H    2.883373   4.412229   5.005749   4.750852   6.310614
    31  H    2.897701   4.123221   4.139634   2.809111   5.179144
    32  H    4.233526   5.092499   4.526114   4.411318   5.721147
    33  H    2.137265   2.749858   2.541792   3.488637   3.942374
    34  H    4.022783   3.975193   2.730247   3.462095   3.558608
    35  H    4.579398   4.353406   2.945620   2.724430   3.168395
    36  H    4.722357   5.231158   4.328089   2.806425   4.925427
    37  H    5.366129   5.787236   4.695590   4.061847   5.405334
    38  H    1.090518   2.212804   3.307726   4.071964   4.531105
    39  H    1.094492   2.202149   3.143338   2.854356   4.091395
    40  H    2.206219   1.094792   2.190800   4.136253   2.975772
    41  H    2.210034   1.094390   2.160169   3.120832   2.460206
    42  H    3.001961   2.174751   1.103787   3.448112   2.060923
    43  H    2.736472   2.700335   2.664796   1.093403   2.898590
    44  H    3.984055   3.749443   2.904026   1.094930   2.768522
    45  H    3.401866   3.882847   3.470691   1.093264   3.959298
    46  H    4.286073   3.252500   1.937312   2.937664   0.966133
                   21         22         23         24         25
    21  H    0.000000
    22  H    3.999698   0.000000
    23  H    4.039473   3.057161   0.000000
    24  H    4.971078   2.453881   1.761191   0.000000
    25  H    3.952127   2.699826   3.065883   2.458629   0.000000
    26  H    4.257574   3.847069   2.484989   2.520646   1.757053
    27  H    2.346264   3.871042   4.777477   5.559129   5.216124
    28  H    3.178174   2.794240   4.819320   5.017846   4.614601
    29  H    4.144634   4.050614   4.391757   5.264020   6.012596
    30  H    4.716848   4.186289   5.575784   6.040074   6.481104
    31  H    5.153026   2.480341   4.659587   4.411394   5.167621
    32  H    4.519920   3.044120   2.490637   3.231906   4.755433
    33  H    6.327940   4.644429   4.989545   5.404704   6.964062
    34  H    7.237695   4.794061   4.438721   4.494947   6.676418
    35  H    8.040316   4.812616   5.060641   4.462069   6.670967
    36  H    6.211970   2.526997   3.665391   2.639641   4.435987
    37  H    6.070139   3.249855   2.635423   2.150728   4.507140
    38  H    7.105551   5.767181   6.935982   7.248823   8.327406
    39  H    7.269953   5.123870   6.938885   6.828132   7.814446
    40  H    9.107335   7.205954   8.040733   8.200198   9.766594
    41  H    9.337722   6.854995   8.251117   8.049322   9.506802
    42  H    8.594837   6.304954   6.549946   6.639423   8.600911
    43  H    8.317772   5.117484   7.013064   6.386265   7.700675
    44  H    8.577773   4.960586   6.475822   5.589078   7.236610
    45  H    7.059613   3.495470   5.577545   4.758924   5.986399
    46  H    9.857541   6.738783   7.377943   6.900824   8.954293
                   26         27         28         29         30
    26  H    0.000000
    27  H    5.853250   0.000000
    28  H    5.707006   1.761601   0.000000
    29  H    6.361807   2.468776   3.074467   0.000000
    30  H    7.245049   2.518734   2.434526   1.762738   0.000000
    31  H    6.169002   3.749169   2.590895   3.048362   2.484504
    32  H    4.824276   3.926245   3.962987   2.407365   3.647829
    33  H    7.285349   4.829660   4.743867   2.528745   3.115143
    34  H    6.718372   6.397417   6.112563   4.370466   5.210284
    35  H    6.941950   7.288981   6.595509   5.583783   6.052145
    36  H    5.086240   5.756743   4.787699   4.810487   5.101639
    37  H    4.517138   5.931571   5.449601   4.714825   5.579314
    38  H    8.985417   5.009372   4.804819   3.235205   2.547752
    39  H    8.737025   5.298065   4.492214   3.986685   2.914601
    40  H   10.277254   7.204638   6.925150   5.090519   4.835073
    41  H   10.260387   7.459723   6.762827   5.681434   5.047260
    42  H    8.859025   7.172186   6.882385   4.888203   5.257470
    43  H    8.659027   6.786518   5.647006   5.474270   4.790596
    44  H    8.038505   7.452020   6.320037   6.080857   5.821629
    45  H    6.998916   5.903563   4.628683   4.921545   4.463173
    46  H    9.373224   8.609435   7.892533   6.636193   6.734443
                   31         32         33         34         35
    31  H    0.000000
    32  H    3.045999   0.000000
    33  H    3.040636   2.516102   0.000000
    34  H    4.102034   2.733956   2.419816   0.000000
    35  H    4.281223   3.844754   3.663472   1.767086   0.000000
    36  H    2.887302   3.049731   3.965572   3.060287   2.428491
    37  H    3.927259   2.398420   3.908655   2.418852   2.481147
    38  H    3.461568   4.523933   2.420832   4.667798   5.487074
    39  H    2.648193   4.752684   3.044109   4.740928   4.991973
    40  H    4.990894   5.602698   3.106175   4.459232   5.092352
    41  H    4.564633   5.975717   3.763069   4.787781   4.821937
    42  H    4.682159   4.353675   2.365223   2.355519   3.098135
    43  H    3.177174   5.188783   3.879110   4.306712   3.705693
    44  H    3.771722   5.050181   4.293496   3.675859   2.437459
    45  H    2.172618   4.178269   3.800762   3.869604   3.160786
    46  H    5.353802   5.629651   4.217314   3.241214   2.526924
                   36         37         38         39         40
    36  H    0.000000
    37  H    1.753762   0.000000
    38  H    5.558708   6.039410   0.000000
    39  H    4.785578   5.742243   1.746545   0.000000
    40  H    6.143040   6.491319   2.383866   2.992474   0.000000
    41  H    5.672184   6.461164   2.899477   2.370307   1.760299
    42  H    4.702749   4.657148   3.588311   3.891728   2.354875
    43  H    3.842639   5.117803   3.792656   2.346164   3.784973
    44  H    2.957714   4.179260   5.070138   3.887750   4.767406
    45  H    2.292391   3.835718   4.390061   3.069521   4.951806
    46  H    4.554363   4.932396   5.208647   4.716504   3.827459
                   41         42         43         44         45
    41  H    0.000000
    42  H    3.005917   0.000000
    43  H    2.425897   3.732042   0.000000
    44  H    3.682407   3.782213   1.768756   0.000000
    45  H    3.979656   4.304454   1.763487   1.760277   0.000000
    46  H    3.361826   2.364994   3.251784   2.544539   3.956483
                   46
    46  H    0.000000
 Stoichiometry    C18H26O2
 Framework group  C1[X(C18H26O2)]
 Deg. of freedom   132
 Full point group                 C1      NOp   1
 Largest Abelian subgroup         C1      NOp   1
 Largest concise Abelian subgroup C1      NOp   1
                         Standard orientation:                         
 ---------------------------------------------------------------------
 Center     Atomic      Atomic             Coordinates (Angstroms)
 Number     Number       Type             X           Y           Z
 ---------------------------------------------------------------------
      1          6           0        4.694343   -0.167303   -0.070951
      2          8           0        5.936435   -0.086694   -0.143257
      3          6           0        3.840775    0.984078   -0.190733
      4          6           0        2.510064    0.924733    0.075072
      5          6           0        1.792870   -0.391492    0.295573
      6          6           0        2.619840   -1.573677   -0.214820
      7          6           0        4.065431   -1.499440    0.247659
      8          6           0        1.722476    2.173148    0.285387
      9          6           0        0.290854    2.123170   -0.249818
     10          6           0       -0.425033    0.846265    0.192955
     11          6           0        0.375399   -0.371807   -0.320232
     12          6           0       -1.861814    0.760383   -0.311807
     13          6           0       -2.566870   -0.562160    0.055427
     14          6           0       -1.797709   -1.719858   -0.574965
     15          6           0       -0.334399   -1.723041   -0.123251
     16          6           0       -2.877881    1.830086    0.109007
     17          6           0       -4.249492    1.180337   -0.214250
     18          6           0       -3.949884   -0.292122   -0.565656
     19          6           0       -2.708869   -0.778802    1.572295
     20          8           0       -5.004650   -1.130383   -0.122669
     21          1           0        4.323798    1.941091   -0.368428
     22          1           0        1.671572   -0.482646    1.389066
     23          1           0        2.585728   -1.580691   -1.313683
     24          1           0        2.185764   -2.519897    0.121488
     25          1           0        4.121036   -1.617004    1.339833
     26          1           0        4.678274   -2.297568   -0.181203
     27          1           0        2.262487    3.033525   -0.118357
     28          1           0        1.700370    2.311444    1.386921
     29          1           0        0.303200    2.171163   -1.348145
     30          1           0       -0.246450    3.008798    0.102200
     31          1           0       -0.427148    0.835778    1.293039
     32          1           0        0.496761   -0.227671   -1.407624
     33          1           0       -1.808209    0.781202   -1.415311
     34          1           0       -1.838447   -1.624984   -1.669995
     35          1           0       -2.251435   -2.686058   -0.318642
     36          1           0       -0.277251   -2.024882    0.931564
     37          1           0        0.194339   -2.496300   -0.690487
     38          1           0       -2.732042    2.779199   -0.407853
     39          1           0       -2.779159    2.047203    1.177196
     40          1           0       -4.755140    1.689002   -1.041383
     41          1           0       -4.929939    1.206618    0.642483
     42          1           0       -3.846432   -0.393577   -1.659891
     43          1           0       -3.387627   -0.052835    2.028134
     44          1           0       -3.100393   -1.780235    1.778966
     45          1           0       -1.747069   -0.697159    2.085618
     46          1           0       -4.691459   -2.041900   -0.189464
 ---------------------------------------------------------------------
 Rotational constants (GHZ):           0.9216339           0.1746901           0.1543403
 Standard basis: 6-31G(d) (6D, 7F)
 There are   352 symmetry adapted cartesian basis functions of A   symmetry.
 There are   352 symmetry adapted basis functions of A   symmetry.
   352 basis functions,   664 primitive gaussians,   352 cartesian basis functions
    75 alpha electrons       75 beta electrons
       nuclear repulsion energy      1663.0367126889 Hartrees.
 NAtoms=   46 NActive=   46 NUniq=   46 SFac= 1.00D+00 NAtFMM=   60 NAOKFM=F Big=F
 Integral buffers will be    131072 words long.
 Raffenetti 2 integral format.
 Two-electron integral symmetry is turned on.
 Nuclear repulsion after empirical dispersion term =     1662.9878678097 Hartrees.
 One-electron integrals computed using PRISM.
 NBasis=   352 RedAO= T EigKep=  1.24D-03  NBF=   352
 NBsUse=   352 1.00D-06 EigRej= -1.00D+00 NBFU=   352
 ExpMin= 1.61D-01 ExpMax= 5.48D+03 ExpMxC= 8.25D+02 IAcc=3 IRadAn=         5 AccDes= 0.00D+00
 Harris functional with IExCor= 4639 and IRadAn=       5 diagonalized for initial guess.
 HarFok:  IExCor= 4639 AccDes= 0.00D+00 IRadAn=         5 IDoV= 1 UseB2=F ITyADJ=14
 ICtDFT=  3500011 ScaDFX=  1.000000  1.000000  1.000000  1.000000
 FoFCou: FMM=F IPFlag=           0 FMFlag=      100000 FMFlg1=           0
         NFxFlg=           0 DoJE=T BraDBF=F KetDBF=T FulRan=T
         wScrn=  0.000000 ICntrl=       500 IOpCl=  0 I1Cent=   200000004 NGrid=           0
         NMat0=    1 NMatS0=      1 NMatT0=    0 NMatD0=    1 NMtDS0=    0 NMtDT0=    0
 Petite list used in FoFCou.
 Requested convergence on RMS density matrix=1.00D-08 within 128 cycles.
 Requested convergence on MAX density matrix=1.00D-06.
 Requested convergence on             energy=1.00D-06.
 No special actions if energy rises.
 Integral accuracy reduced to 1.0D-05 until final iterations.
 Initial convergence to 1.0D-05 achieved.  Increase integral accuracy.
 SCF Done:  E(RwB97XD) =  -851.793506316     A.U. after   15 cycles
            NFock= 15  Conv=0.68D-08     -V/T= 2.0093

 **********************************************************************

            Population analysis using the SCF Density.

 **********************************************************************

 Orbital symmetries:
       Occupied  (A) (A) (A) (A) (A) (A) (A) (A) (A) (A) (A) (A)
                 (A) (A) (A) (A) (A) (A) (A) (A) (A) (A) (A) (A)
                 (A) (A) (A) (A) (A) (A) (A) (A) (A) (A) (A) (A)
                 (A) (A) (A) (A) (A) (A) (A) (A) (A) (A) (A) (A)
                 (A) (A) (A) (A) (A) (A) (A) (A) (A) (A) (A) (A)
                 (A) (A) (A) (A) (A) (A) (A) (A) (A) (A) (A) (A)
                 (A) (A) (A)
       Virtual   (A) (A) (A) (A) (A) (A) (A) (A) (A) (A) (A) (A)
                 (A) (A) (A) (A) (A) (A) (A) (A) (A) (A) (A) (A)
                 (A) (A) (A) (A) (A) (A) (A) (A) (A) (A) (A) (A)
                 (A) (A) (A) (A) (A) (A) (A) (A) (A) (A) (A) (A)
                 (A) (A) (A) (A) (A) (A) (A) (A) (A) (A) (A) (A)
                 (A) (A) (A) (A) (A) (A) (A) (A) (A) (A) (A) (A)
                 (A) (A) (A) (A) (A) (A) (A) (A) (A) (A) (A) (A)
                 (A) (A) (A) (A) (A) (A) (A) (A) (A) (A) (A) (A)
                 (A) (A) (A) (A) (A) (A) (A) (A) (A) (A) (A) (A)
                 (A) (A) (A) (A) (A) (A) (A) (A) (A) (A) (A) (A)
                 (A) (A) (A) (A) (A) (A) (A) (A) (A) (A) (A) (A)
                 (A) (A) (A) (A) (A) (A) (A) (A) (A) (A) (A) (A)
                 (A) (A) (A) (A) (A) (A) (A) (A) (A) (A) (A) (A)
                 (A) (A) (A) (A) (A) (A) (A) (A) (A) (A) (A) (A)
                 (A) (A) (A) (A) (A) (A) (A) (A) (A) (A) (A) (A)
                 (A) (A) (A) (A) (A) (A) (A) (A) (A) (A) (A) (A)
                 (A) (A) (A) (A) (A) (A) (A) (A) (A) (A) (A) (A)
                 (A) (A) (A) (A) (A) (A) (A) (A) (A) (A) (A) (A)
                 (A) (A) (A) (A) (A) (A) (A) (A) (A) (A) (A) (A)
                 (A) (A) (A) (A) (A) (A) (A) (A) (A) (A) (A) (A)
                 (A) (A) (A) (A) (A) (A) (A) (A) (A) (A) (A) (A)
                 (A) (A) (A) (A) (A) (A) (A) (A) (A) (A) (A) (A)
                 (A) (A) (A) (A) (A) (A) (A) (A) (A) (A) (A) (A)
                 (A)
 The electronic state is 1-A.
 Alpha  occ. eigenvalues --  -19.26739 -19.23482 -10.36922 -10.34191 -10.33245
 Alpha  occ. eigenvalues --  -10.31805 -10.31157 -10.31059 -10.30662 -10.30448
 Alpha  occ. eigenvalues --  -10.30374 -10.30298 -10.30156 -10.30118 -10.30031
 Alpha  occ. eigenvalues --  -10.29584 -10.29516 -10.29512 -10.29060 -10.28834
 Alpha  occ. eigenvalues --   -1.12101  -1.10313  -0.98185  -0.95688  -0.90818
 Alpha  occ. eigenvalues --   -0.90305  -0.87332  -0.84425  -0.82597  -0.81545
 Alpha  occ. eigenvalues --   -0.77902  -0.77484  -0.73787  -0.72166  -0.69679
 Alpha  occ. eigenvalues --   -0.67766  -0.65485  -0.65289  -0.63049  -0.60828
 Alpha  occ. eigenvalues --   -0.59954  -0.58133  -0.57023  -0.55608  -0.55430
 Alpha  occ. eigenvalues --   -0.54258  -0.53492  -0.52826  -0.51996  -0.50682
 Alpha  occ. eigenvalues --   -0.50156  -0.49743  -0.48807  -0.47914  -0.47679
 Alpha  occ. eigenvalues --   -0.46811  -0.46643  -0.46472  -0.45267  -0.44628
 Alpha  occ. eigenvalues --   -0.44143  -0.43612  -0.43027  -0.42444  -0.41988
 Alpha  occ. eigenvalues --   -0.41301  -0.40864  -0.40207  -0.39404  -0.38706
 Alpha  occ. eigenvalues --   -0.37358  -0.36533  -0.34161  -0.32636  -0.30914
 Alpha virt. eigenvalues --    0.02271   0.13250   0.14094   0.14945   0.16420
 Alpha virt. eigenvalues --    0.16888   0.17454   0.18524   0.19179   0.20166
 Alpha virt. eigenvalues --    0.20390   0.20752   0.22082   0.22782   0.23313
 Alpha virt. eigenvalues --    0.23622   0.23807   0.24558   0.24988   0.25225
 Alpha virt. eigenvalues --    0.25249   0.25970   0.26412   0.26816   0.26855
 Alpha virt. eigenvalues --    0.27537   0.28330   0.28925   0.29320   0.30203
 Alpha virt. eigenvalues --    0.30610   0.31087   0.31540   0.32133   0.33192
 Alpha virt. eigenvalues --    0.33467   0.34130   0.35043   0.35679   0.36079
 Alpha virt. eigenvalues --    0.36604   0.37276   0.38652   0.38841   0.40608
 Alpha virt. eigenvalues --    0.41715   0.41896   0.44766   0.45577   0.49507
 Alpha virt. eigenvalues --    0.52056   0.57745   0.58443   0.59362   0.60177
 Alpha virt. eigenvalues --    0.61130   0.61461   0.62127   0.62533   0.65089
 Alpha virt. eigenvalues --    0.65511   0.66080   0.66555   0.68002   0.69250
 Alpha virt. eigenvalues --    0.70313   0.70677   0.72269   0.72813   0.73054
 Alpha virt. eigenvalues --    0.73540   0.74332   0.74980   0.75532   0.76399
 Alpha virt. eigenvalues --    0.77513   0.77768   0.78509   0.79649   0.81111
 Alpha virt. eigenvalues --    0.82707   0.82738   0.84221   0.84589   0.85691
 Alpha virt. eigenvalues --    0.86145   0.87005   0.88734   0.89722   0.90233
 Alpha virt. eigenvalues --    0.91132   0.92838   0.93221   0.93800   0.94733
 Alpha virt. eigenvalues --    0.94835   0.95559   0.95873   0.96547   0.96859
 Alpha virt. eigenvalues --    0.97216   0.97442   0.97746   0.98591   0.98796
 Alpha virt. eigenvalues --    0.99209   1.00322   1.00488   1.00833   1.02045
 Alpha virt. eigenvalues --    1.02712   1.03410   1.04057   1.04213   1.04638
 Alpha virt. eigenvalues --    1.05292   1.05876   1.06414   1.07004   1.07777
 Alpha virt. eigenvalues --    1.08585   1.10040   1.10548   1.11628   1.13009
 Alpha virt. eigenvalues --    1.13934   1.14860   1.16683   1.19532   1.20170
 Alpha virt. eigenvalues --    1.21533   1.22770   1.25562   1.26650   1.27646
 Alpha virt. eigenvalues --    1.29418   1.30537   1.34390   1.35546   1.37786
 Alpha virt. eigenvalues --    1.39346   1.42139   1.43867   1.47215   1.47934
 Alpha virt. eigenvalues --    1.49793   1.52704   1.53683   1.55414   1.58804
 Alpha virt. eigenvalues --    1.59614   1.62150   1.65102   1.66078   1.66506
 Alpha virt. eigenvalues --    1.70245   1.70708   1.72778   1.74504   1.75902
 Alpha virt. eigenvalues --    1.77629   1.78612   1.79626   1.81355   1.83161
 Alpha virt. eigenvalues --    1.83864   1.85569   1.86883   1.87795   1.88423
 Alpha virt. eigenvalues --    1.89485   1.91821   1.93539   1.94153   1.94979
 Alpha virt. eigenvalues --    1.95889   1.96363   1.97436   1.98786   1.99098
 Alpha virt. eigenvalues --    1.99934   2.00985   2.01451   2.02239   2.03391
 Alpha virt. eigenvalues --    2.04113   2.04831   2.05611   2.06897   2.07734
 Alpha virt. eigenvalues --    2.08742   2.09702   2.09989   2.10483   2.11812
 Alpha virt. eigenvalues --    2.12572   2.14391   2.14802   2.15858   2.18519
 Alpha virt. eigenvalues --    2.18731   2.19751   2.20662   2.22299   2.25210
 Alpha virt. eigenvalues --    2.25881   2.28134   2.29294   2.30314   2.33303
 Alpha virt. eigenvalues --    2.34120   2.35595   2.36439   2.38274   2.39769
 Alpha virt. eigenvalues --    2.40438   2.41749   2.42307   2.44800   2.45728
 Alpha virt. eigenvalues --    2.47703   2.48851   2.50214   2.51137   2.52603
 Alpha virt. eigenvalues --    2.54405   2.57292   2.57929   2.61198   2.61858
 Alpha virt. eigenvalues --    2.62757   2.63054   2.64964   2.65569   2.67062
 Alpha virt. eigenvalues --    2.68218   2.70947   2.71626   2.74867   2.75955
 Alpha virt. eigenvalues --    2.78411   2.79249   2.80956   2.82909   2.83530
 Alpha virt. eigenvalues --    2.86591   2.89705   2.93680   2.97758   2.98279
 Alpha virt. eigenvalues --    3.00318   3.01509   3.07153   3.07947   3.09845
 Alpha virt. eigenvalues --    3.20426   3.26274   4.00664   4.07509   4.23925
 Alpha virt. eigenvalues --    4.26687   4.30632   4.33491   4.35514   4.38228
 Alpha virt. eigenvalues --    4.41881   4.42339   4.47872   4.53749   4.55563
 Alpha virt. eigenvalues --    4.64653   4.66570   4.73834   4.77128   4.80946
 Alpha virt. eigenvalues --    4.85530   4.90338
          Condensed to atoms (all electrons):
               1          2          3          4          5          6
     1  C    4.433743   0.521278   0.377187  -0.004489  -0.020690  -0.025753
     2  O    0.521278   8.117431  -0.059570   0.004929   0.000258   0.003126
     3  C    0.377187  -0.059570   5.273344   0.525673  -0.044585   0.007106
     4  C   -0.004489   0.004929   0.525673   4.867365   0.377555  -0.046322
     5  C   -0.020690   0.000258  -0.044585   0.377555   5.088043   0.351485
     6  C   -0.025753   0.003126   0.007106  -0.046322   0.351485   5.149642
     7  C    0.341004  -0.078486  -0.130674   0.002981  -0.035584   0.281208
     8  C    0.003720  -0.000092  -0.035477   0.360039  -0.066482   0.004891
     9  C   -0.000134   0.000000   0.002490  -0.034855  -0.010839  -0.000257
    10  C   -0.000013   0.000000   0.000465  -0.014165  -0.037544   0.003955
    11  C   -0.000128   0.000000   0.002751  -0.032472   0.366053  -0.047666
    12  C   -0.000000   0.000000   0.000003   0.000218   0.003664  -0.000125
    13  C   -0.000000   0.000000   0.000000   0.000002   0.000073  -0.000003
    14  C    0.000000  -0.000000   0.000001  -0.000087   0.003683   0.000240
    15  C   -0.000004  -0.000000  -0.000100   0.004296  -0.042698  -0.004795
    16  C   -0.000000  -0.000000  -0.000000  -0.000001  -0.000098   0.000001
    17  C   -0.000000  -0.000000  -0.000000   0.000000   0.000001  -0.000000
    18  C    0.000000  -0.000000  -0.000000  -0.000000   0.000004   0.000000
    19  C   -0.000000   0.000000   0.000000   0.000000   0.000036  -0.000000
    20  O   -0.000000   0.000000   0.000000   0.000000  -0.000000   0.000000
    21  H   -0.029327   0.000871   0.360062  -0.045072   0.004663  -0.000443
    22  H    0.000829   0.000011  -0.003343  -0.043206   0.365071  -0.034088
    23  H   -0.002966   0.000041   0.003579  -0.004225  -0.044076   0.385206
    24  H    0.003396  -0.000070  -0.000308   0.004473  -0.029698   0.375810
    25  H   -0.027382  -0.000846   0.001869  -0.001161  -0.003316  -0.037111
    26  H   -0.024888   0.002553   0.004893  -0.000177   0.003975  -0.029788
    27  H    0.000243  -0.000001  -0.002484  -0.039788   0.004168  -0.000141
    28  H   -0.000108   0.000005  -0.007518  -0.040174   0.000160   0.000123
    29  H   -0.000001  -0.000000  -0.000136  -0.002992   0.000405   0.000008
    30  H    0.000001  -0.000000  -0.000080   0.004224  -0.000016   0.000010
    31  H    0.000003   0.000000  -0.000175  -0.003534  -0.002003   0.000133
    32  H    0.000041  -0.000000   0.000088  -0.003294  -0.043552  -0.004940
    33  H    0.000000   0.000000  -0.000002  -0.000068   0.000156   0.000000
    34  H    0.000000   0.000000  -0.000000   0.000003   0.000047  -0.000030
    35  H   -0.000000  -0.000000  -0.000000   0.000001  -0.000106   0.000003
    36  H    0.000001  -0.000000  -0.000007   0.000164  -0.003004  -0.001914
    37  H   -0.000012  -0.000000   0.000018  -0.000146  -0.006864   0.003070
    38  H    0.000000  -0.000000   0.000000  -0.000001   0.000001  -0.000000
    39  H    0.000000  -0.000000  -0.000000  -0.000001   0.000001   0.000000
    40  H    0.000000  -0.000000   0.000000   0.000000  -0.000000   0.000000
    41  H    0.000000  -0.000000   0.000000  -0.000000  -0.000000   0.000000
    42  H    0.000000  -0.000000  -0.000000   0.000000  -0.000000  -0.000000
    43  H   -0.000000  -0.000000   0.000000   0.000000  -0.000001  -0.000000
    44  H    0.000000   0.000000  -0.000000  -0.000000  -0.000003   0.000000
    45  H    0.000000  -0.000000  -0.000000   0.000000   0.000041   0.000003
    46  H   -0.000000   0.000000  -0.000000   0.000000  -0.000000   0.000000
               7          8          9         10         11         12
     1  C    0.341004   0.003720  -0.000134  -0.000013  -0.000128  -0.000000
     2  O   -0.078486  -0.000092   0.000000   0.000000   0.000000   0.000000
     3  C   -0.130674  -0.035477   0.002490   0.000465   0.002751   0.000003
     4  C    0.002981   0.360039  -0.034855  -0.014165  -0.032472   0.000218
     5  C   -0.035584  -0.066482  -0.010839  -0.037544   0.366053   0.003664
     6  C    0.281208   0.004891  -0.000257   0.003955  -0.047666  -0.000125
     7  C    5.350843  -0.000114   0.000038  -0.000090   0.004321   0.000001
     8  C   -0.000114   5.152305   0.335668  -0.042086  -0.014712   0.003776
     9  C    0.000038   0.335668   5.100313   0.368651  -0.043468  -0.041277
    10  C   -0.000090  -0.042086   0.368651   5.014245   0.371446   0.364551
    11  C    0.004321  -0.014712  -0.043468   0.371446   5.041813  -0.037750
    12  C    0.000001   0.003776  -0.041277   0.364551  -0.037750   5.105420
    13  C    0.000000  -0.000123   0.004149  -0.025609  -0.011776   0.346112
    14  C   -0.000003  -0.000010  -0.000053  -0.011246  -0.038723  -0.048620
    15  C    0.000272   0.000310   0.004229  -0.038479   0.366046  -0.017217
    16  C   -0.000000   0.000053  -0.003109  -0.032983   0.004113   0.361227
    17  C    0.000000  -0.000000   0.000078   0.004062  -0.000159  -0.060415
    18  C   -0.000000   0.000001  -0.000105   0.003944   0.000133  -0.062356
    19  C    0.000000  -0.000000   0.000161  -0.005912  -0.002223  -0.056681
    20  O    0.000000  -0.000000   0.000000  -0.000064  -0.000003   0.003739
    21  H    0.006165  -0.007455   0.000232  -0.000001  -0.000076   0.000000
    22  H   -0.004397   0.000632  -0.000621  -0.005382  -0.043521   0.000019
    23  H   -0.039933  -0.000014  -0.000038   0.000153  -0.003360  -0.000002
    24  H   -0.030151  -0.000108  -0.000007  -0.000081  -0.008088  -0.000002
    25  H    0.367217  -0.000023  -0.000002   0.000002   0.000007   0.000000
    26  H    0.369745   0.000007   0.000000   0.000001  -0.000061  -0.000000
    27  H    0.000009   0.379153  -0.030798   0.003981  -0.000125  -0.000100
    28  H   -0.000081   0.377573  -0.039898  -0.004165  -0.000880  -0.000025
    29  H   -0.000003  -0.036082   0.379184  -0.038911  -0.007838  -0.004503
    30  H   -0.000000  -0.032359   0.378793  -0.031993   0.004846  -0.006132
    31  H   -0.000008   0.000048  -0.048889   0.379156  -0.049073  -0.042437
    32  H   -0.000118  -0.000140  -0.006453  -0.047729   0.375666  -0.004277
    33  H   -0.000000   0.000081  -0.006109  -0.045799  -0.006184   0.380988
    34  H   -0.000000   0.000000  -0.000032  -0.000357  -0.003698  -0.006243
    35  H   -0.000000  -0.000000   0.000010  -0.000121   0.004177   0.006416
    36  H   -0.000075  -0.000012  -0.000018  -0.003207  -0.042889  -0.000350
    37  H    0.000118  -0.000010  -0.000118   0.004056  -0.029994   0.000114
    38  H   -0.000000  -0.000010   0.001361  -0.001385  -0.000074  -0.026489
    39  H   -0.000000  -0.000027  -0.000548  -0.004153   0.000068  -0.038893
    40  H   -0.000000  -0.000000  -0.000004  -0.000060   0.000003   0.001479
    41  H   -0.000000  -0.000000   0.000002  -0.000127   0.000002   0.003307
    42  H   -0.000000  -0.000000   0.000007  -0.000255  -0.000009  -0.002586
    43  H    0.000000  -0.000000  -0.000018  -0.000040   0.000023  -0.003605
    44  H    0.000000  -0.000000   0.000000  -0.000018   0.000085   0.005466
    45  H   -0.000000   0.000010  -0.000040   0.001876  -0.000406  -0.006344
    46  H    0.000000   0.000000   0.000000  -0.000004   0.000001   0.000381
              13         14         15         16         17         18
     1  C   -0.000000   0.000000  -0.000004  -0.000000  -0.000000   0.000000
     2  O    0.000000  -0.000000  -0.000000  -0.000000  -0.000000  -0.000000
     3  C    0.000000   0.000001  -0.000100  -0.000000  -0.000000  -0.000000
     4  C    0.000002  -0.000087   0.004296  -0.000001   0.000000  -0.000000
     5  C    0.000073   0.003683  -0.042698  -0.000098   0.000001   0.000004
     6  C   -0.000003   0.000240  -0.004795   0.000001  -0.000000   0.000000
     7  C    0.000000  -0.000003   0.000272  -0.000000   0.000000  -0.000000
     8  C   -0.000123  -0.000010   0.000310   0.000053  -0.000000   0.000001
     9  C    0.004149  -0.000053   0.004229  -0.003109   0.000078  -0.000105
    10  C   -0.025609  -0.011246  -0.038479  -0.032983   0.004062   0.003944
    11  C   -0.011776  -0.038723   0.366046   0.004113  -0.000159   0.000133
    12  C    0.346112  -0.048620  -0.017217   0.361227  -0.060415  -0.062356
    13  C    5.117431   0.374302  -0.038031  -0.060457  -0.060261   0.369555
    14  C    0.374302   5.125263   0.352827   0.005865   0.006741  -0.045193
    15  C   -0.038031   0.352827   5.095346   0.000231  -0.000232   0.004346
    16  C   -0.060457   0.005865   0.000231   5.109251   0.339819  -0.061563
    17  C   -0.060261   0.006741  -0.000232   0.339819   5.168711   0.357916
    18  C    0.369555  -0.045193   0.004346  -0.061563   0.357916   4.803740
    19  C    0.337404  -0.069396  -0.003046  -0.003009  -0.011044  -0.055061
    20  O   -0.049525  -0.000343   0.000023   0.002212  -0.046199   0.250648
    21  H   -0.000000  -0.000000   0.000002  -0.000000  -0.000000  -0.000000
    22  H   -0.000032   0.000020  -0.006462  -0.000001   0.000000  -0.000000
    23  H   -0.000001  -0.000067  -0.002154   0.000000   0.000000  -0.000000
    24  H   -0.000004   0.000089   0.003518  -0.000000   0.000000   0.000000
    25  H   -0.000000  -0.000000  -0.000029   0.000000  -0.000000  -0.000000
    26  H   -0.000000  -0.000000   0.000000   0.000000  -0.000000   0.000000
    27  H    0.000001  -0.000000   0.000008  -0.000001  -0.000000  -0.000000
    28  H    0.000003   0.000000  -0.000011  -0.000008  -0.000000  -0.000000
    29  H    0.000004  -0.000006   0.000058  -0.000444  -0.000018  -0.000004
    30  H    0.000009  -0.000004  -0.000122   0.003430  -0.000006  -0.000006
    31  H   -0.008211   0.000372  -0.002605  -0.004039  -0.000009   0.000037
    32  H   -0.001245  -0.000560  -0.046317  -0.000052   0.000004  -0.000067
    33  H   -0.054737  -0.006194  -0.000930  -0.044534  -0.002221  -0.002411
    34  H   -0.038761   0.377432  -0.036940   0.000024   0.000087  -0.005881
    35  H   -0.035851   0.369522  -0.033562  -0.000220  -0.000026  -0.003308
    36  H   -0.007566  -0.034976   0.380319  -0.000015   0.000002  -0.000043
    37  H    0.004752  -0.034170   0.381006   0.000008   0.000003  -0.000079
    38  H    0.005454  -0.000138  -0.000004   0.378452  -0.027698   0.002520
    39  H   -0.005774   0.000011  -0.000019   0.384404  -0.032506   0.001890
    40  H    0.003952  -0.000140   0.000003  -0.030950   0.378598  -0.026697
    41  H   -0.003313  -0.000124   0.000004  -0.025852   0.371579  -0.031731
    42  H   -0.069392  -0.010442   0.000110   0.003470  -0.051309   0.388228
    43  H   -0.029420   0.004663   0.000037   0.001552   0.003539  -0.006075
    44  H   -0.029669  -0.005527  -0.000532  -0.000173   0.000004  -0.005397
    45  H   -0.032842  -0.004516   0.001762  -0.000132  -0.000281   0.005054
    46  H   -0.005856   0.002663  -0.000086  -0.000339   0.007105  -0.029175
              19         20         21         22         23         24
     1  C   -0.000000  -0.000000  -0.029327   0.000829  -0.002966   0.003396
     2  O    0.000000   0.000000   0.000871   0.000011   0.000041  -0.000070
     3  C    0.000000   0.000000   0.360062  -0.003343   0.003579  -0.000308
     4  C    0.000000   0.000000  -0.045072  -0.043206  -0.004225   0.004473
     5  C    0.000036  -0.000000   0.004663   0.365071  -0.044076  -0.029698
     6  C   -0.000000   0.000000  -0.000443  -0.034088   0.385206   0.375810
     7  C    0.000000   0.000000   0.006165  -0.004397  -0.039933  -0.030151
     8  C   -0.000000  -0.000000  -0.007455   0.000632  -0.000014  -0.000108
     9  C    0.000161   0.000000   0.000232  -0.000621  -0.000038  -0.000007
    10  C   -0.005912  -0.000064  -0.000001  -0.005382   0.000153  -0.000081
    11  C   -0.002223  -0.000003  -0.000076  -0.043521  -0.003360  -0.008088
    12  C   -0.056681   0.003739   0.000000   0.000019  -0.000002  -0.000002
    13  C    0.337404  -0.049525  -0.000000  -0.000032  -0.000001  -0.000004
    14  C   -0.069396  -0.000343  -0.000000   0.000020  -0.000067   0.000089
    15  C   -0.003046   0.000023   0.000002  -0.006462  -0.002154   0.003518
    16  C   -0.003009   0.002212  -0.000000  -0.000001   0.000000  -0.000000
    17  C   -0.011044  -0.046199  -0.000000   0.000000   0.000000   0.000000
    18  C   -0.055061   0.250648  -0.000000  -0.000000  -0.000000   0.000000
    19  C    5.213531   0.005684   0.000000  -0.000049  -0.000000  -0.000001
    20  O    0.005684   8.277328   0.000000  -0.000000  -0.000000   0.000000
    21  H    0.000000   0.000000   0.532669  -0.000206  -0.000077   0.000012
    22  H   -0.000049  -0.000000  -0.000206   0.590145   0.005478  -0.003678
    23  H   -0.000000  -0.000000  -0.000077   0.005478   0.560212  -0.031401
    24  H   -0.000001   0.000000   0.000012  -0.003678  -0.031401   0.553851
    25  H   -0.000000   0.000000  -0.000163   0.004230   0.004909  -0.004903
    26  H    0.000000  -0.000000  -0.000097  -0.000163  -0.003559  -0.002161
    27  H    0.000000   0.000000   0.005346  -0.000102   0.000001   0.000002
    28  H   -0.000003   0.000000   0.000140   0.001826   0.000002   0.000008
    29  H   -0.000002   0.000000  -0.000007   0.000090  -0.000005   0.000001
    30  H   -0.000004  -0.000000  -0.000008  -0.000011   0.000000   0.000000
    31  H    0.001944  -0.000001  -0.000002   0.005529   0.000007   0.000001
    32  H    0.000060   0.000000  -0.000020   0.006134   0.005591   0.000093
    33  H    0.006487   0.000050  -0.000000   0.000003  -0.000002  -0.000000
    34  H    0.006159  -0.000081  -0.000000   0.000004   0.000005   0.000010
    35  H   -0.006745   0.001247   0.000000  -0.000001   0.000001   0.000004
    36  H    0.003267  -0.000002  -0.000000   0.005109   0.000210   0.001283
    37  H    0.000003   0.000000   0.000000   0.000022   0.001188   0.000122
    38  H    0.000078  -0.000034  -0.000000   0.000000   0.000000  -0.000000
    39  H    0.002519  -0.000012   0.000000  -0.000001  -0.000000  -0.000000
    40  H    0.000165   0.001780   0.000000  -0.000000  -0.000000  -0.000000
    41  H    0.001535   0.003059  -0.000000  -0.000000   0.000000   0.000000
    42  H    0.007912  -0.041792   0.000000  -0.000000   0.000000   0.000000
    43  H    0.380762   0.000193  -0.000000   0.000001   0.000000   0.000000
    44  H    0.374935   0.004632   0.000000   0.000001   0.000000  -0.000000
    45  H    0.374367   0.000351  -0.000000   0.000069   0.000000  -0.000001
    46  H   -0.001251   0.242762   0.000000  -0.000000   0.000000   0.000000
              25         26         27         28         29         30
     1  C   -0.027382  -0.024888   0.000243  -0.000108  -0.000001   0.000001
     2  O   -0.000846   0.002553  -0.000001   0.000005  -0.000000  -0.000000
     3  C    0.001869   0.004893  -0.002484  -0.007518  -0.000136  -0.000080
     4  C   -0.001161  -0.000177  -0.039788  -0.040174  -0.002992   0.004224
     5  C   -0.003316   0.003975   0.004168   0.000160   0.000405  -0.000016
     6  C   -0.037111  -0.029788  -0.000141   0.000123   0.000008   0.000010
     7  C    0.367217   0.369745   0.000009  -0.000081  -0.000003  -0.000000
     8  C   -0.000023   0.000007   0.379153   0.377573  -0.036082  -0.032359
     9  C   -0.000002   0.000000  -0.030798  -0.039898   0.379184   0.378793
    10  C    0.000002   0.000001   0.003981  -0.004165  -0.038911  -0.031993
    11  C    0.000007  -0.000061  -0.000125  -0.000880  -0.007838   0.004846
    12  C    0.000000  -0.000000  -0.000100  -0.000025  -0.004503  -0.006132
    13  C   -0.000000  -0.000000   0.000001   0.000003   0.000004   0.000009
    14  C   -0.000000  -0.000000  -0.000000   0.000000  -0.000006  -0.000004
    15  C   -0.000029   0.000000   0.000008  -0.000011   0.000058  -0.000122
    16  C    0.000000   0.000000  -0.000001  -0.000008  -0.000444   0.003430
    17  C   -0.000000  -0.000000  -0.000000  -0.000000  -0.000018  -0.000006
    18  C   -0.000000   0.000000  -0.000000  -0.000000  -0.000004  -0.000006
    19  C   -0.000000   0.000000   0.000000  -0.000003  -0.000002  -0.000004
    20  O    0.000000  -0.000000   0.000000   0.000000   0.000000  -0.000000
    21  H   -0.000163  -0.000097   0.005346   0.000140  -0.000007  -0.000008
    22  H    0.004230  -0.000163  -0.000102   0.001826   0.000090  -0.000011
    23  H    0.004909  -0.003559   0.000001   0.000002  -0.000005   0.000000
    24  H   -0.004903  -0.002161   0.000002   0.000008   0.000001   0.000000
    25  H    0.532771  -0.021889  -0.000000   0.000009   0.000000   0.000000
    26  H   -0.021889   0.504830  -0.000000  -0.000001  -0.000000   0.000000
    27  H   -0.000000  -0.000000   0.529725  -0.025700  -0.003265  -0.001663
    28  H    0.000009  -0.000001  -0.025700   0.554252   0.004828  -0.005096
    29  H    0.000000  -0.000000  -0.003265   0.004828   0.565774  -0.030924
    30  H    0.000000   0.000000  -0.001663  -0.005096  -0.030924   0.552227
    31  H   -0.000001  -0.000000   0.000013   0.004407   0.005638  -0.003141
    32  H    0.000009  -0.000003  -0.000055   0.000133   0.006019   0.000066
    33  H   -0.000000   0.000000   0.000003   0.000003   0.004793  -0.000064
    34  H    0.000000   0.000000  -0.000000  -0.000000  -0.000007   0.000001
    35  H    0.000000   0.000000   0.000000  -0.000000   0.000000  -0.000000
    36  H    0.000005   0.000000  -0.000000  -0.000001  -0.000000   0.000003
    37  H    0.000010   0.000001  -0.000000   0.000000  -0.000004   0.000002
    38  H    0.000000  -0.000000   0.000001   0.000003   0.000232   0.000617
    39  H   -0.000000   0.000000   0.000001  -0.000001   0.000062   0.000492
    40  H    0.000000   0.000000   0.000000   0.000000  -0.000000   0.000002
    41  H   -0.000000   0.000000   0.000000   0.000000  -0.000000   0.000001
    42  H   -0.000000   0.000000   0.000000  -0.000000  -0.000002  -0.000000
    43  H    0.000000   0.000000  -0.000000   0.000000   0.000000   0.000000
    44  H    0.000000  -0.000000   0.000000   0.000000   0.000000  -0.000000
    45  H    0.000000   0.000000  -0.000000  -0.000004  -0.000001   0.000003
    46  H   -0.000000   0.000000   0.000000   0.000000   0.000000   0.000000
              31         32         33         34         35         36
     1  C    0.000003   0.000041   0.000000   0.000000  -0.000000   0.000001
     2  O    0.000000  -0.000000   0.000000   0.000000  -0.000000  -0.000000
     3  C   -0.000175   0.000088  -0.000002  -0.000000  -0.000000  -0.000007
     4  C   -0.003534  -0.003294  -0.000068   0.000003   0.000001   0.000164
     5  C   -0.002003  -0.043552   0.000156   0.000047  -0.000106  -0.003004
     6  C    0.000133  -0.004940   0.000000  -0.000030   0.000003  -0.001914
     7  C   -0.000008  -0.000118  -0.000000  -0.000000  -0.000000  -0.000075
     8  C    0.000048  -0.000140   0.000081   0.000000  -0.000000  -0.000012
     9  C   -0.048889  -0.006453  -0.006109  -0.000032   0.000010  -0.000018
    10  C    0.379156  -0.047729  -0.045799  -0.000357  -0.000121  -0.003207
    11  C   -0.049073   0.375666  -0.006184  -0.003698   0.004177  -0.042889
    12  C   -0.042437  -0.004277   0.380988  -0.006243   0.006416  -0.000350
    13  C   -0.008211  -0.001245  -0.054737  -0.038761  -0.035851  -0.007566
    14  C    0.000372  -0.000560  -0.006194   0.377432   0.369522  -0.034976
    15  C   -0.002605  -0.046317  -0.000930  -0.036940  -0.033562   0.380319
    16  C   -0.004039  -0.000052  -0.044534   0.000024  -0.000220  -0.000015
    17  C   -0.000009   0.000004  -0.002221   0.000087  -0.000026   0.000002
    18  C    0.000037  -0.000067  -0.002411  -0.005881  -0.003308  -0.000043
    19  C    0.001944   0.000060   0.006487   0.006159  -0.006745   0.003267
    20  O   -0.000001   0.000000   0.000050  -0.000081   0.001247  -0.000002
    21  H   -0.000002  -0.000020  -0.000000  -0.000000   0.000000  -0.000000
    22  H    0.005529   0.006134   0.000003   0.000004  -0.000001   0.005109
    23  H    0.000007   0.005591  -0.000002   0.000005   0.000001   0.000210
    24  H    0.000001   0.000093  -0.000000   0.000010   0.000004   0.001283
    25  H   -0.000001   0.000009  -0.000000   0.000000   0.000000   0.000005
    26  H   -0.000000  -0.000003   0.000000   0.000000   0.000000   0.000000
    27  H    0.000013  -0.000055   0.000003  -0.000000   0.000000  -0.000000
    28  H    0.004407   0.000133   0.000003  -0.000000  -0.000000  -0.000001
    29  H    0.005638   0.006019   0.004793  -0.000007   0.000000  -0.000000
    30  H   -0.003141   0.000066  -0.000064   0.000001  -0.000000   0.000003
    31  H    0.610242   0.006083   0.006161   0.000041  -0.000007   0.001567
    32  H    0.006083   0.610944   0.004982   0.003190  -0.000072   0.005540
    33  H    0.006161   0.004982   0.622886   0.005132   0.000020   0.000075
    34  H    0.000041   0.003190   0.005132   0.576463  -0.032273   0.004965
    35  H   -0.000007  -0.000072   0.000020  -0.032273   0.589172  -0.004519
    36  H    0.001567   0.005540   0.000075   0.004965  -0.004519   0.574965
    37  H   -0.000078  -0.005685  -0.000088  -0.005031  -0.001841  -0.033440
    38  H   -0.000145  -0.000001  -0.006255  -0.000002   0.000003   0.000000
    39  H    0.004157   0.000004   0.005300  -0.000006   0.000004  -0.000003
    40  H    0.000001  -0.000000   0.000501  -0.000015   0.000001  -0.000000
    41  H   -0.000010  -0.000000  -0.000036   0.000000   0.000000  -0.000000
    42  H   -0.000012  -0.000009   0.005277   0.006715   0.000052  -0.000003
    43  H    0.000086   0.000001  -0.000066  -0.000132  -0.000009  -0.000020
    44  H   -0.000039   0.000002  -0.000109   0.000069   0.005104   0.000446
    45  H    0.003665  -0.000015   0.000023  -0.000089  -0.000141   0.001080
    46  H    0.000000   0.000000  -0.000004  -0.000034   0.002981  -0.000001
              37         38         39         40         41         42
     1  C   -0.000012   0.000000   0.000000   0.000000   0.000000   0.000000
     2  O   -0.000000  -0.000000  -0.000000  -0.000000  -0.000000  -0.000000
     3  C    0.000018   0.000000  -0.000000   0.000000   0.000000  -0.000000
     4  C   -0.000146  -0.000001  -0.000001   0.000000  -0.000000   0.000000
     5  C   -0.006864   0.000001   0.000001  -0.000000  -0.000000  -0.000000
     6  C    0.003070  -0.000000   0.000000   0.000000   0.000000  -0.000000
     7  C    0.000118  -0.000000  -0.000000  -0.000000  -0.000000  -0.000000
     8  C   -0.000010  -0.000010  -0.000027  -0.000000  -0.000000  -0.000000
     9  C   -0.000118   0.001361  -0.000548  -0.000004   0.000002   0.000007
    10  C    0.004056  -0.001385  -0.004153  -0.000060  -0.000127  -0.000255
    11  C   -0.029994  -0.000074   0.000068   0.000003   0.000002  -0.000009
    12  C    0.000114  -0.026489  -0.038893   0.001479   0.003307  -0.002586
    13  C    0.004752   0.005454  -0.005774   0.003952  -0.003313  -0.069392
    14  C   -0.034170  -0.000138   0.000011  -0.000140  -0.000124  -0.010442
    15  C    0.381006  -0.000004  -0.000019   0.000003   0.000004   0.000110
    16  C    0.000008   0.378452   0.384404  -0.030950  -0.025852   0.003470
    17  C    0.000003  -0.027698  -0.032506   0.378598   0.371579  -0.051309
    18  C   -0.000079   0.002520   0.001890  -0.026697  -0.031731   0.388228
    19  C    0.000003   0.000078   0.002519   0.000165   0.001535   0.007912
    20  O    0.000000  -0.000034  -0.000012   0.001780   0.003059  -0.041792
    21  H    0.000000  -0.000000   0.000000   0.000000  -0.000000   0.000000
    22  H    0.000022   0.000000  -0.000001  -0.000000  -0.000000  -0.000000
    23  H    0.001188   0.000000  -0.000000  -0.000000   0.000000   0.000000
    24  H    0.000122  -0.000000  -0.000000  -0.000000   0.000000   0.000000
    25  H    0.000010   0.000000  -0.000000   0.000000  -0.000000  -0.000000
    26  H    0.000001  -0.000000   0.000000   0.000000   0.000000   0.000000
    27  H   -0.000000   0.000001   0.000001   0.000000   0.000000   0.000000
    28  H    0.000000   0.000003  -0.000001   0.000000   0.000000  -0.000000
    29  H   -0.000004   0.000232   0.000062  -0.000000  -0.000000  -0.000002
    30  H    0.000002   0.000617   0.000492   0.000002   0.000001  -0.000000
    31  H   -0.000078  -0.000145   0.004157   0.000001  -0.000010  -0.000012
    32  H   -0.005685  -0.000001   0.000004  -0.000000  -0.000000  -0.000009
    33  H   -0.000088  -0.006255   0.005300   0.000501  -0.000036   0.005277
    34  H   -0.005031  -0.000002  -0.000006  -0.000015   0.000000   0.006715
    35  H   -0.001841   0.000003   0.000004   0.000001   0.000000   0.000052
    36  H   -0.033440   0.000000  -0.000003  -0.000000  -0.000000  -0.000003
    37  H    0.556318  -0.000000  -0.000000  -0.000000  -0.000000  -0.000005
    38  H   -0.000000   0.549770  -0.034638  -0.006315   0.002373  -0.000135
    39  H   -0.000000  -0.034638   0.564810   0.003514  -0.008747  -0.000172
    40  H   -0.000000  -0.006315   0.003514   0.539580  -0.027795  -0.006887
    41  H   -0.000000   0.002373  -0.008747  -0.027795   0.528872   0.005081
    42  H   -0.000005  -0.000135  -0.000172  -0.006887   0.005081   0.639949
    43  H   -0.000000   0.000031   0.000568  -0.000037   0.001009   0.000088
    44  H   -0.000036  -0.000001   0.000012  -0.000003   0.000056   0.000057
    45  H    0.000040  -0.000020   0.000160   0.000000   0.000033  -0.000074
    46  H    0.000003   0.000004   0.000004  -0.000210  -0.000057  -0.001740
              43         44         45         46
     1  C   -0.000000   0.000000   0.000000  -0.000000
     2  O   -0.000000   0.000000  -0.000000   0.000000
     3  C    0.000000  -0.000000  -0.000000  -0.000000
     4  C    0.000000  -0.000000   0.000000   0.000000
     5  C   -0.000001  -0.000003   0.000041  -0.000000
     6  C   -0.000000   0.000000   0.000003   0.000000
     7  C    0.000000   0.000000  -0.000000   0.000000
     8  C   -0.000000  -0.000000   0.000010   0.000000
     9  C   -0.000018   0.000000  -0.000040   0.000000
    10  C   -0.000040  -0.000018   0.001876  -0.000004
    11  C    0.000023   0.000085  -0.000406   0.000001
    12  C   -0.003605   0.005466  -0.006344   0.000381
    13  C   -0.029420  -0.029669  -0.032842  -0.005856
    14  C    0.004663  -0.005527  -0.004516   0.002663
    15  C    0.000037  -0.000532   0.001762  -0.000086
    16  C    0.001552  -0.000173  -0.000132  -0.000339
    17  C    0.003539   0.000004  -0.000281   0.007105
    18  C   -0.006075  -0.005397   0.005054  -0.029175
    19  C    0.380762   0.374935   0.374367  -0.001251
    20  O    0.000193   0.004632   0.000351   0.242762
    21  H   -0.000000   0.000000  -0.000000   0.000000
    22  H    0.000001   0.000001   0.000069  -0.000000
    23  H    0.000000   0.000000   0.000000   0.000000
    24  H    0.000000  -0.000000  -0.000001   0.000000
    25  H    0.000000   0.000000   0.000000  -0.000000
    26  H    0.000000  -0.000000   0.000000   0.000000
    27  H   -0.000000   0.000000  -0.000000   0.000000
    28  H    0.000000   0.000000  -0.000004   0.000000
    29  H    0.000000   0.000000  -0.000001   0.000000
    30  H    0.000000  -0.000000   0.000003   0.000000
    31  H    0.000086  -0.000039   0.003665   0.000000
    32  H    0.000001   0.000002  -0.000015   0.000000
    33  H   -0.000066  -0.000109   0.000023  -0.000004
    34  H   -0.000132   0.000069  -0.000089  -0.000034
    35  H   -0.000009   0.005104  -0.000141   0.002981
    36  H   -0.000020   0.000446   0.001080  -0.000001
    37  H   -0.000000  -0.000036   0.000040   0.000003
    38  H    0.000031  -0.000001  -0.000020   0.000004
    39  H    0.000568   0.000012   0.000160   0.000004
    40  H   -0.000037  -0.000003   0.000000  -0.000210
    41  H    0.001009   0.000056   0.000033  -0.000057
    42  H    0.000088   0.000057  -0.000074  -0.001740
    43  H    0.523947  -0.024667  -0.028415   0.000091
    44  H   -0.024667   0.545802  -0.029744   0.001466
    45  H   -0.028415  -0.029744   0.555214  -0.000097
    46  H    0.000091   0.001466  -0.000097   0.375096
 Mulliken charges:
               1
     1  C    0.454445
     2  O   -0.511439
     3  C   -0.275071
     4  C    0.164305
     5  C   -0.178383
     6  C   -0.332643
     7  C   -0.404205
     8  C   -0.382931
     9  C   -0.307679
    10  C   -0.128565
    11  C   -0.116200
    12  C   -0.120456
    13  C    0.005252
    14  C   -0.313155
    15  C   -0.320376
    16  C   -0.326133
    17  C   -0.345864
    18  C    0.147135
    19  C   -0.502582
    20  O   -0.655656
    21  H    0.172793
    22  H    0.160042
    23  H    0.165296
    24  H    0.167988
    25  H    0.185786
    26  H    0.196779
    27  H    0.181570
    28  H    0.180199
    29  H    0.158060
    30  H    0.166904
    31  H    0.135125
    32  H    0.139954
    33  H    0.132892
    34  H    0.149265
    35  H    0.140085
    36  H    0.153058
    37  H    0.166747
    38  H    0.162447
    39  H    0.157522
    40  H    0.169533
    41  H    0.180882
    42  H    0.127877
    43  H    0.175914
    44  H    0.157779
    45  H    0.159410
    46  H    0.406296
 Sum of Mulliken charges =  -0.00000
 Mulliken charges with hydrogens summed into heavy atoms:
               1
     1  C    0.454445
     2  O   -0.511439
     3  C   -0.102277
     4  C    0.164305
     5  C   -0.018341
     6  C    0.000641
     7  C   -0.021640
     8  C   -0.021163
     9  C    0.017285
    10  C    0.006561
    11  C    0.023754
    12  C    0.012436
    13  C    0.005252
    14  C   -0.023805
    15  C   -0.000571
    16  C   -0.006165
    17  C    0.004551
    18  C    0.275011
    19  C   -0.009479
    20  O   -0.249360
 Electronic spatial extent (au):  <R**2>=           6912.5542
 Charge=             -0.0000 electrons
 Dipole moment (field-independent basis, Debye):
    X=             -3.3812    Y=             -0.3813    Z=              0.2315  Tot=              3.4105
 Quadrupole moment (field-independent basis, Debye-Ang):
   XX=           -173.5256   YY=           -111.6187   ZZ=           -119.0699
   XY=              0.1029   XZ=              3.4717   YZ=              0.3625
 Traceless Quadrupole moment (field-independent basis, Debye-Ang):
   XX=            -38.7875   YY=             23.1194   ZZ=             15.6682
   XY=              0.1029   XZ=              3.4717   YZ=              0.3625
 Octapole moment (field-independent basis, Debye-Ang**2):
  XXX=           -188.3012  YYY=            -13.3617  ZZZ=             -0.5179  XYY=             -5.5321
  XXY=             -3.8351  XXZ=              5.5798  XZZ=             -0.5028  YZZ=             -1.6356
  YYZ=             -1.7196  XYZ=             -1.9220
 Hexadecapole moment (field-independent basis, Debye-Ang**3):
 XXXX=          -9647.2424 YYYY=          -1398.7643 ZZZZ=           -401.9517 XXXY=            -31.0752
 XXXZ=             67.0575 YYYX=             84.0536 YYYZ=             -1.9677 ZZZX=             10.2205
 ZZZY=              3.7522 XXYY=          -1295.5076 XXZZ=          -1238.4252 YYZZ=           -308.7309
 XXYZ=              0.9542 YYXZ=              0.2407 ZZXY=             -5.2883
 N-N= 1.662987867810D+03 E-N=-5.302769786101D+03  KE= 8.439120487896D+02

 **********************************************************************

            Electrostatic Properties Using The SCF Density.

 **********************************************************************

       Atomic Center    1 is at   4.694343 -0.167303 -0.070951
       Atomic Center    2 is at   5.936435 -0.086694 -0.143257
       Atomic Center    3 is at   3.840775  0.984078 -0.190733
       Atomic Center    4 is at   2.510064  0.924733  0.075072
       Atomic Center    5 is at   1.792870 -0.391492  0.295573
       Atomic Center    6 is at   2.619840 -1.573677 -0.214820
       Atomic Center    7 is at   4.065431 -1.499440  0.247659
       Atomic Center    8 is at   1.722476  2.173148  0.285387
       Atomic Center    9 is at   0.290854  2.123170 -0.249818
       Atomic Center   10 is at  -0.425033  0.846265  0.192955
       Atomic Center   11 is at   0.375399 -0.371807 -0.320232
       Atomic Center   12 is at  -1.861814  0.760383 -0.311807
       Atomic Center   13 is at  -2.566870 -0.562160  0.055427
       Atomic Center   14 is at  -1.797709 -1.719858 -0.574965
       Atomic Center   15 is at  -0.334399 -1.723041 -0.123251
       Atomic Center   16 is at  -2.877881  1.830086  0.109007
       Atomic Center   17 is at  -4.249492  1.180337 -0.214250
       Atomic Center   18 is at  -3.949884 -0.292122 -0.565656
       Atomic Center   19 is at  -2.708869 -0.778802  1.572295
       Atomic Center   20 is at  -5.004650 -1.130383 -0.122669
       Atomic Center   21 is at   4.323798  1.941091 -0.368428
       Atomic Center   22 is at   1.671572 -0.482646  1.389066
       Atomic Center   23 is at   2.585728 -1.580691 -1.313683
       Atomic Center   24 is at   2.185764 -2.519897  0.121488
       Atomic Center   25 is at   4.121036 -1.617004  1.339833
       Atomic Center   26 is at   4.678274 -2.297568 -0.181203
       Atomic Center   27 is at   2.262487  3.033525 -0.118357
       Atomic Center   28 is at   1.700370  2.311444  1.386921
       Atomic Center   29 is at   0.303200  2.171163 -1.348145
       Atomic Center   30 is at  -0.246450  3.008798  0.102200
       Atomic Center   31 is at  -0.427148  0.835778  1.293039
       Atomic Center   32 is at   0.496761 -0.227671 -1.407624
       Atomic Center   33 is at  -1.808209  0.781202 -1.415311
       Atomic Center   34 is at  -1.838447 -1.624984 -1.669995
       Atomic Center   35 is at  -2.251435 -2.686058 -0.318642
       Atomic Center   36 is at  -0.277251 -2.024882  0.931564
       Atomic Center   37 is at   0.194339 -2.496300 -0.690487
       Atomic Center   38 is at  -2.732042  2.779199 -0.407853
       Atomic Center   39 is at  -2.779159  2.047203  1.177196
       Atomic Center   40 is at  -4.755140  1.689002 -1.041383
       Atomic Center   41 is at  -4.929939  1.206618  0.642483
       Atomic Center   42 is at  -3.846432 -0.393577 -1.659891
       Atomic Center   43 is at  -3.387627 -0.052835  2.028134
       Atomic Center   44 is at  -3.100393 -1.780235  1.778966
       Atomic Center   45 is at  -1.747069 -0.697159  2.085618
       Atomic Center   46 is at  -4.691459 -2.041900 -0.189464
 -----------------------------------------------------------------

              Electrostatic Properties (Atomic Units)

 -----------------------------------------------------------------
    Center     Electric         -------- Electric Field --------
               Potential          X             Y             Z
 -----------------------------------------------------------------
    1 Atom    -14.671267      0.004348     -0.002466     -0.000330
    2 Atom    -22.353535      0.103992      0.006639     -0.006309
    3 Atom    -14.745414     -0.009375      0.000131      0.002061
    4 Atom    -14.708335      0.012005     -0.000168     -0.003005
    5 Atom    -14.716729     -0.002159     -0.003234     -0.001645
    6 Atom    -14.731291     -0.000225     -0.001109     -0.000278
    7 Atom    -14.739871      0.000925     -0.000359     -0.001979
    8 Atom    -14.723864     -0.001453      0.002266     -0.000581
    9 Atom    -14.730691     -0.002612     -0.001592     -0.000365
   10 Atom    -14.728102     -0.000920     -0.000153     -0.001196
   11 Atom    -14.723220     -0.001705      0.001004      0.000237
   12 Atom    -14.734758     -0.000373     -0.001286      0.002614
   13 Atom    -14.731179     -0.001380      0.001888     -0.002277
   14 Atom    -14.734594     -0.001245      0.003926      0.000896
   15 Atom    -14.732649      0.000008     -0.000103     -0.000124
   16 Atom    -14.738945      0.001371     -0.000126      0.000166
   17 Atom    -14.743838     -0.002656     -0.001083      0.000912
   18 Atom    -14.692134      0.018697      0.012909     -0.005731
   19 Atom    -14.746013     -0.000480      0.000713     -0.001192
   20 Atom    -22.313595     -0.102187      0.039911      0.036218
   21 Atom     -1.105302      0.016910      0.028368     -0.004859
   22 Atom     -1.103029     -0.004559     -0.005990      0.030999
   23 Atom     -1.116698     -0.000915     -0.001286     -0.029660
   24 Atom     -1.116588     -0.012780     -0.025766      0.008168
   25 Atom     -1.105847      0.002601     -0.005334      0.029589
   26 Atom     -1.115030      0.019466     -0.018938     -0.011829
   27 Atom     -1.108156      0.015338      0.024961     -0.010939
   28 Atom     -1.099624     -0.002727      0.007808      0.024297
   29 Atom     -1.116056     -0.000343      0.002946     -0.029430
   30 Atom     -1.116443     -0.016806      0.024903      0.008497
   31 Atom     -1.117834     -0.002110     -0.000966      0.031565
   32 Atom     -1.117950      0.003386      0.003253     -0.030358
   33 Atom     -1.122295      0.001265      0.001136     -0.029796
   34 Atom     -1.118208     -0.001997      0.001151     -0.029558
   35 Atom     -1.115498     -0.011300     -0.027749      0.005753
   36 Atom     -1.117666      0.001941     -0.009048      0.028522
   37 Atom     -1.118552      0.014765     -0.021054     -0.014103
   38 Atom     -1.124661      0.003737      0.027543     -0.016096
   39 Atom     -1.124658      0.001494      0.005995      0.030528
   40 Atom     -1.127451     -0.014721      0.012895     -0.020970
   41 Atom     -1.127023     -0.019892     -0.000951      0.022135
   42 Atom     -1.131638      0.000982     -0.002831     -0.030564
   43 Atom     -1.120545     -0.020147      0.016738      0.013366
   44 Atom     -1.119020     -0.012946     -0.024808      0.008201
   45 Atom     -1.118460      0.025255      0.001557      0.015675
   46 Atom     -0.997935      0.008921     -0.043380     -0.002500
 -----------------------------------------------------------------
 -----------------------------------------------------
    Center         ---- Electric Field Gradient ----
                     XX            YY            ZZ
 -----------------------------------------------------
    1 Atom     -493.256574   -493.201996   -493.922872
    2 Atom    -1217.198613  -1214.654167  -1217.584946
    3 Atom     -493.098972   -493.162863   -493.393615
    4 Atom     -493.184926   -493.267146   -493.812518
    5 Atom     -492.741479   -492.780049   -492.756362
    6 Atom     -492.612855   -492.591083   -492.583143
    7 Atom     -492.702885   -492.711938   -492.709889
    8 Atom     -492.577879   -492.611145   -492.597453
    9 Atom     -492.665568   -492.613474   -492.622326
   10 Atom     -492.750000   -492.770627   -492.752166
   11 Atom     -492.815854   -492.783281   -492.782797
   12 Atom     -492.897122   -492.910466   -492.894536
   13 Atom     -492.922837   -492.936244   -492.973234
   14 Atom     -492.719118   -492.696335   -492.698690
   15 Atom     -492.630666   -492.625454   -492.596432
   16 Atom     -492.652098   -492.592594   -492.570849
   17 Atom     -492.638322   -492.661103   -492.585798
   18 Atom     -492.858580   -492.795397   -492.661746
   19 Atom     -492.533244   -492.546513   -492.586230
   20 Atom    -1214.511178  -1215.958986  -1212.930325
   21 Atom       -1.693447     -1.955937     -1.603085
   22 Atom       -1.621658     -1.621675     -2.016695
   23 Atom       -1.621511     -1.616797     -2.037978
   24 Atom       -1.701003     -1.952208     -1.667730
   25 Atom       -1.599323     -1.603539     -2.015304
   26 Atom       -1.736332     -1.834678     -1.669044
   27 Atom       -1.729980     -1.890181     -1.675554
   28 Atom       -1.596129     -1.603581     -1.985194
   29 Atom       -1.621538     -1.620721     -2.039969
   30 Atom       -1.733290     -1.910691     -1.669593
   31 Atom       -1.637612     -1.636537     -2.051908
   32 Atom       -1.640002     -1.643299     -2.027700
   33 Atom       -1.644917     -1.638279     -2.039382
   34 Atom       -1.625683     -1.626657     -2.039508
   35 Atom       -1.708386     -1.959539     -1.650198
   36 Atom       -1.626563     -1.654379     -2.014477
   37 Atom       -1.734013     -1.844262     -1.743300
   38 Atom       -1.638284     -1.965966     -1.731138
   39 Atom       -1.630779     -1.642320     -2.042215
   40 Atom       -1.714027     -1.719106     -1.873173
   41 Atom       -1.775093     -1.609667     -1.879527
   42 Atom       -1.678364     -1.677388     -2.066355
   43 Atom       -1.768360     -1.798304     -1.683521
   44 Atom       -1.657793     -1.974555     -1.626482
   45 Atom       -1.956527     -1.611813     -1.710113
   46 Atom       -1.530657     -2.053464     -1.425275
 -----------------------------------------------------
 -----------------------------------------------------
    Center         ---- Electric Field Gradient ----
                     XY            XZ            YZ
 -----------------------------------------------------
    1 Atom       -0.016492     -0.028550     -0.135524
    2 Atom       -0.170108      0.019447     -0.535802
    3 Atom       -0.009428     -0.056057     -0.029412
    4 Atom       -0.005627     -0.121481     -0.011657
    5 Atom       -0.023756     -0.011471      0.000055
    6 Atom        0.025410     -0.001237     -0.026297
    7 Atom       -0.009622     -0.030373      0.005585
    8 Atom        0.025144     -0.021467     -0.012630
    9 Atom       -0.008923     -0.019900      0.020358
   10 Atom        0.000673      0.007421     -0.003562
   11 Atom       -0.007483     -0.018022     -0.008621
   12 Atom        0.009851     -0.008934      0.004869
   13 Atom        0.000586      0.009271      0.005030
   14 Atom       -0.015017     -0.007835     -0.011145
   15 Atom       -0.020336     -0.010211      0.015436
   16 Atom       -0.003302     -0.003379     -0.018410
   17 Atom       -0.017599     -0.020077     -0.036386
   18 Atom       -0.195476      0.102841      0.105418
   19 Atom       -0.006790      0.000282      0.014038
   20 Atom       -0.344656      0.731780      0.332096
   21 Atom       -0.170683      0.034596      0.066043
   22 Atom       -0.003506      0.046264      0.035359
   23 Atom        0.002576     -0.013759     -0.003241
   24 Atom       -0.148177      0.053028      0.115383
   25 Atom       -0.000225     -0.019055      0.045600
   26 Atom        0.175617      0.094858     -0.126381
   27 Atom       -0.166656      0.080126      0.128366
   28 Atom        0.004148      0.010469     -0.050521
   29 Atom       -0.002566      0.004169      0.017665
   30 Atom        0.171912      0.068264     -0.114228
   31 Atom       -0.001604      0.000879      0.005679
   32 Atom       -0.005863      0.043369      0.052363
   33 Atom       -0.001074      0.019286      0.006930
   34 Atom        0.003182     -0.015777      0.036677
   35 Atom       -0.156407      0.042664      0.088223
   36 Atom        0.003421     -0.022349      0.111116
   37 Atom        0.145683      0.107549     -0.157987
   38 Atom       -0.052308      0.027773      0.185770
   39 Atom       -0.007804     -0.036925     -0.082837
   40 Atom        0.091888     -0.151947      0.152411
   41 Atom        0.008111      0.209936     -0.010775
   42 Atom       -0.001997      0.040091     -0.036625
   43 Atom        0.184237      0.113937     -0.119269
   44 Atom       -0.145866      0.029276      0.072510
   45 Atom       -0.029929     -0.180678     -0.014490
   46 Atom        0.196034      0.032680     -0.039244
 -----------------------------------------------------
 -----------------------------------------------------
    Center         ---- Electric Field Gradient ----
                   ----       Eigenvalues       ----
 -----------------------------------------------------
    1 Atom     -493.948901   -493.256737   -493.175805
    2 Atom    -1217.680063  -1217.209398  -1214.548265
    3 Atom     -493.407752   -493.159249   -493.088448
    4 Atom     -493.835487   -493.266981   -493.162122
    5 Atom     -492.792065   -492.759315   -492.726511
    6 Atom     -492.633900   -492.598512   -492.554669
    7 Atom     -492.737174   -492.714763   -492.672774
    8 Atom     -492.624714   -492.610743   -492.551021
    9 Atom     -492.673348   -492.636222   -492.591797
   10 Atom     -492.771506   -492.757828   -492.743458
   11 Atom     -492.826283   -492.783425   -492.772224
   12 Atom     -492.918810   -492.896938   -492.886376
   13 Atom     -492.975485   -492.935788   -492.921041
   14 Atom     -492.731135   -492.698180   -492.684829
   15 Atom     -492.648707   -492.621072   -492.582773
   16 Atom     -492.652533   -492.602685   -492.560322
   17 Atom     -492.687635   -492.628749   -492.568839
   18 Atom     -493.076856   -492.635391   -492.603476
   19 Atom     -492.590786   -492.545380   -492.529821
   20 Atom    -1216.116839  -1214.650462  -1212.633187
   21 Atom       -2.052365     -1.609561     -1.590543
   22 Atom       -2.025169     -1.618686     -1.616173
   23 Atom       -2.038456     -1.622347     -1.615484
   24 Atom       -2.061776     -1.632381     -1.626783
   25 Atom       -2.021142     -1.600806     -1.596218
   26 Atom       -2.035934     -1.603358     -1.600762
   27 Atom       -2.055287     -1.625196     -1.615232
   28 Atom       -1.992070     -1.599240     -1.593593
   29 Atom       -2.040755     -1.623243     -1.618230
   30 Atom       -2.060710     -1.628804     -1.624060
   31 Atom       -2.051987     -1.638728     -1.635342
   32 Atom       -2.039499     -1.636297     -1.635205
   33 Atom       -2.040444     -1.644067     -1.638067
   34 Atom       -2.043354     -1.626211     -1.622283
   35 Atom       -2.058087     -1.633396     -1.626639
   36 Atom       -2.047200     -1.627183     -1.621035
   37 Atom       -2.060170     -1.633598     -1.627806
   38 Atom       -2.076322     -1.630708     -1.628357
   39 Atom       -2.061998     -1.627590     -1.625725
   40 Atom       -2.058454     -1.625791     -1.622060
   41 Atom       -2.044062     -1.611012     -1.609214
   42 Atom       -2.073767     -1.679859     -1.668481
   43 Atom       -2.043695     -1.608695     -1.597795
   44 Atom       -2.046062     -1.611982     -1.600786
   45 Atom       -2.054503     -1.614878     -1.609073
   46 Atom       -2.122053     -1.472177     -1.415166
 -----------------------------------------------------
 -----------------------------------------------------
    Center         ---- Electric Field Gradient ----
                       ( tensor representation )
                   3XX-RR        3YY-RR        3ZZ-RR
 -----------------------------------------------------
    1 Atom        0.203907      0.258485     -0.462391
    2 Atom       -0.719371      1.825075     -1.105704
    3 Atom        0.119512      0.055620     -0.175132
    4 Atom        0.236604      0.154384     -0.390988
    5 Atom        0.017818     -0.020753      0.002935
    6 Atom       -0.017161      0.004611      0.012551
    7 Atom        0.005353     -0.003701     -0.001652
    8 Atom        0.017613     -0.015653     -0.001961
    9 Atom       -0.031779      0.020316      0.011463
   10 Atom        0.007598     -0.013029      0.005432
   11 Atom       -0.021877      0.010696      0.011181
   12 Atom        0.003587     -0.009758      0.006172
   13 Atom        0.021268      0.007861     -0.029129
   14 Atom       -0.014404      0.008379      0.006024
   15 Atom       -0.013148     -0.007936      0.021085
   16 Atom       -0.046917      0.012586      0.034331
   17 Atom       -0.009914     -0.032695      0.042609
   18 Atom       -0.086672     -0.023489      0.110162
   19 Atom        0.022085      0.008816     -0.030901
   20 Atom       -0.044348     -1.492156      1.536505
   21 Atom        0.057376     -0.205114      0.147738
   22 Atom        0.131685      0.131668     -0.263352
   23 Atom        0.137251      0.141965     -0.279216
   24 Atom        0.072644     -0.178561      0.105917
   25 Atom        0.140065      0.135850     -0.275915
   26 Atom        0.010353     -0.087994      0.077641
   27 Atom        0.035259     -0.124943      0.089684
   28 Atom        0.132172      0.124720     -0.256893
   29 Atom        0.139204      0.140022     -0.279226
   30 Atom        0.037901     -0.139500      0.101598
   31 Atom        0.137740      0.138815     -0.276555
   32 Atom        0.130331      0.127035     -0.257366
   33 Atom        0.129276      0.135914     -0.265190
   34 Atom        0.138267      0.137292     -0.275559
   35 Atom        0.064322     -0.186831      0.122510
   36 Atom        0.138577      0.110761     -0.249337
   37 Atom        0.039845     -0.070404      0.030559
   38 Atom        0.140178     -0.187503      0.047325
   39 Atom        0.140992      0.129452     -0.270444
   40 Atom        0.054742      0.049663     -0.104404
   41 Atom       -0.020330      0.145095     -0.124765
   42 Atom        0.129005      0.129981     -0.258986
   43 Atom       -0.018298     -0.048242      0.066540
   44 Atom        0.095150     -0.221612      0.126461
   45 Atom       -0.197043      0.147671      0.049372
   46 Atom        0.139142     -0.383665      0.244524
 -----------------------------------------------------
 -----------------------------------------------------
    Center         ---- Electric Field Gradient ----
                       ( tensor representation )
                   ----       Eigenvalues       ----
 -----------------------------------------------------
    1 Atom       -0.488420      0.203744      0.284676
    2 Atom       -1.200821     -0.730156      1.930977
    3 Atom       -0.189269      0.059234      0.130035
    4 Atom       -0.413957      0.154549      0.259408
    5 Atom       -0.032768     -0.000018      0.032786
    6 Atom       -0.038206     -0.002819      0.041025
    7 Atom       -0.028937     -0.006526      0.035463
    8 Atom       -0.029221     -0.015250      0.044472
    9 Atom       -0.039559     -0.002433      0.041992
   10 Atom       -0.013908     -0.000231      0.014139
   11 Atom       -0.032306      0.010552      0.021754
   12 Atom       -0.018102      0.003770      0.014332
   13 Atom       -0.031381      0.008317      0.023064
   14 Atom       -0.026420      0.006535      0.019886
   15 Atom       -0.031190     -0.003554      0.034744
   16 Atom       -0.047353      0.002495      0.044858
   17 Atom       -0.059227     -0.000341      0.059569
   18 Atom       -0.304948      0.136517      0.168431
   19 Atom       -0.035457      0.009949      0.025508
   20 Atom       -1.650010     -0.183633      1.833643
   21 Atom       -0.301542      0.141262      0.160280
   22 Atom       -0.271826      0.134657      0.137169
   23 Atom       -0.279694      0.136416      0.143278
   24 Atom       -0.288129      0.141266      0.146863
   25 Atom       -0.281753      0.138582      0.143171
   26 Atom       -0.289249      0.143327      0.145923
   27 Atom       -0.290049      0.140043      0.150006
   28 Atom       -0.263769      0.129061      0.134708
   29 Atom       -0.280013      0.137500      0.142513
   30 Atom       -0.289518      0.142388      0.147131
   31 Atom       -0.276635      0.136624      0.140010
   32 Atom       -0.269165      0.134037      0.135129
   33 Atom       -0.266251      0.130125      0.136126
   34 Atom       -0.279404      0.137738      0.141666
   35 Atom       -0.285380      0.139311      0.146069
   36 Atom       -0.282061      0.137956      0.144105
   37 Atom       -0.286312      0.140260      0.146052
   38 Atom       -0.297860      0.147755      0.150105
   39 Atom       -0.290227      0.144181      0.146046
   40 Atom       -0.289686      0.142977      0.146709
   41 Atom       -0.289299      0.143751      0.145548
   42 Atom       -0.266398      0.127510      0.138888
   43 Atom       -0.293633      0.141367      0.152266
   44 Atom       -0.293119      0.140961      0.152158
   45 Atom       -0.295019      0.144607      0.150412
   46 Atom       -0.452254      0.197621      0.254633
 -----------------------------------------------------
 Unable to Open any file for archive entry.
 1\1\GINC-EXP-2-53\SP\RwB97XD\6-31G(d)\C18H26O2\HKLEM\08-Aug-2024\0\\# 
 wb97xd 6-31G(d) prop=efg\\19nt_mm_min_distance_cutoff3_nowat_ligand_co
 nf_1\\0,1\C,0,-3.4809,0.942,1.1969\O,0,-4.7201,1.0482,1.1096\C,0,-2.80
 58,-0.3206,1.0602\C,0,-1.4848,-0.465,1.3414\C,0,-0.5836,0.7253,1.5992\
 C,0,-1.2191,2.0275,1.1069\C,0,-2.666,2.1591,1.5522\C,0,-0.8939,-1.8206
 ,1.5318\C,0,0.5366,-1.9726,1.0131\C,0,1.4276,-0.8256,1.4922\C,0,0.8237
 ,0.5082,0.9982\C,0,2.8681,-0.9435,1.0048\C,0,3.7562,0.2518,1.4093\C,0,
 3.1759,1.5237,0.7971\C,0,1.7231,1.7347,1.2332\C,0,3.7085,-2.1607,1.412
 1\C,0,5.1656,-1.7152,1.1182\C,0,5.0924,-0.2076,0.797\C,0,3.9077,0.4134
 ,2.9321\O,0,6.2535,0.4554,1.27\H,0,-3.4228,-1.1914,0.8558\H,0,-0.4653,
 0.7747,2.6957\H,0,-1.1691,2.0522,0.0089\H,0,-0.6543,2.8916,1.4691\H,0,
 -2.7187,2.2609,2.6461\H,0,-3.1478,3.0481,1.135\H,0,-1.5498,-2.5827,1.1
 03\H,0,-0.9078,-1.9835,2.6301\H,0,0.5325,-1.9954,-0.0861\H,0,0.9318,-2
 .9353,1.3507\H,0,1.416,-0.8384,2.5922\H,0,0.6974,0.4063,-0.0934\H,0,2.
 8273,-0.9332,-0.0994\H,0,3.2173,1.4466,-0.2993\H,0,3.7642,2.4063,1.08\
 H,0,1.6967,2.0197,2.2939\H,0,1.3227,2.5895,0.678\H,0,3.4308,-3.0667,0.
 8724\H,0,3.5639,-2.3829,2.474\H,0,5.6017,-2.276,0.2852\H,0,5.8227,-1.8
 6,1.9813\H,0,5.0203,-0.0692,-0.2957\H,0,4.465,-0.4146,3.3786\H,0,4.440
 4,1.3411,3.1655\H,0,2.9374,0.4648,3.4332\H,0,6.0798,1.4045,1.2205\\Ver
 sion=ES64L-G16RevC.01\State=1-A\HF=-851.7935063\RMSD=6.776e-09\Dipole=
 1.3364199,-0.0510582,0.1085647\Quadrupole=-27.7247922,16.1446036,11.58
 01886,6.8805022,-2.9959917,0.3055905\PG=C01 [X(C18H26O2)]\\@
 The archive entry for this job was punched.


 SIGN SEEN IN A RESTAURANT-
 WE RESERVE THE RIGHT TO SERVE REFUSE TO ANYONE.
 Job cpu time:       0 days  0 hours 10 minutes 16.9 seconds.
 Elapsed time:       0 days  0 hours  0 minutes 27.5 seconds.
 File lengths (MBytes):  RWF=     71 Int=      0 D2E=      0 Chk=      8 Scr=      1
 Normal termination of Gaussian 16 at Thu Aug  8 09:10:20 2024.
