 Entering Gaussian System, Link 0=g16
 Input=19nt_md_min_distance_cutoff8_nowat_optimized.gjf
 Output=19nt_md_min_distance_cutoff8_nowat_optimized.log
 Initial command:
 /usr/local/packages/license/gaussian/g16-c01/g16/l1.exe "/work/arkanil/gauss_scratch/Gau-1171471.inp" -scrdir="/work/arkanil/gauss_scratch/"
 Entering Link 1 = /usr/local/packages/license/gaussian/g16-c01/g16/l1.exe PID=   1171472.
  
 Copyright (c) 1988-2019, Gaussian, Inc.  All Rights Reserved.
  
 This is part of the Gaussian(R) 16 program.  It is based on
 the Gaussian(R) 09 system (copyright 2009, Gaussian, Inc.),
 the Gaussian(R) 03 system (copyright 2003, Gaussian, Inc.),
 the Gaussian(R) 98 system (copyright 1998, Gaussian, Inc.),
 the Gaussian(R) 94 system (copyright 1995, Gaussian, Inc.),
 the Gaussian 92(TM) system (copyright 1992, Gaussian, Inc.),
 the Gaussian 90(TM) system (copyright 1990, Gaussian, Inc.),
 the Gaussian 88(TM) system (copyright 1988, Gaussian, Inc.),
 the Gaussian 86(TM) system (copyright 1986, Carnegie Mellon
 University), and the Gaussian 82(TM) system (copyright 1983,
 Carnegie Mellon University). Gaussian is a federally registered
 trademark of Gaussian, Inc.
  
 This software contains proprietary and confidential information,
 including trade secrets, belonging to Gaussian, Inc.
  
 This software is provided under written license and may be
 used, copied, transmitted, or stored only in accord with that
 written license.
  
 The following legend is applicable only to US Government
 contracts under FAR:
  
                    RESTRICTED RIGHTS LEGEND
  
 Use, reproduction and disclosure by the US Government is
 subject to restrictions as set forth in subparagraphs (a)
 and (c) of the Commercial Computer Software - Restricted
 Rights clause in FAR 52.227-19.
  
 Gaussian, Inc.
 340 Quinnipiac St., Bldg. 40, Wallingford CT 06492
  
  
 ---------------------------------------------------------------
 Warning -- This program may not be used in any manner that
 competes with the business of Gaussian, Inc. or will provide
 assistance to any competitor of Gaussian, Inc.  The licensee
 of this program is prohibited from giving any competitor of
 Gaussian, Inc. access to this program.  By using this program,
 the user acknowledges that Gaussian, Inc. is engaged in the
 business of creating and licensing software in the field of
 computational chemistry and represents and warrants to the
 licensee that it is not a competitor of Gaussian, Inc. and that
 it will not use this program in any manner prohibited above.
 ---------------------------------------------------------------
  

 Cite this work as:
 Gaussian 16, Revision C.01,
 M. J. Frisch, G. W. Trucks, H. B. Schlegel, G. E. Scuseria, 
 M. A. Robb, J. R. Cheeseman, G. Scalmani, V. Barone, 
 G. A. Petersson, H. Nakatsuji, X. Li, M. Caricato, A. V. Marenich, 
 J. Bloino, B. G. Janesko, R. Gomperts, B. Mennucci, H. P. Hratchian, 
 J. V. Ortiz, A. F. Izmaylov, J. L. Sonnenberg, D. Williams-Young, 
 F. Ding, F. Lipparini, F. Egidi, J. Goings, B. Peng, A. Petrone, 
 T. Henderson, D. Ranasinghe, V. G. Zakrzewski, J. Gao, N. Rega, 
 G. Zheng, W. Liang, M. Hada, M. Ehara, K. Toyota, R. Fukuda, 
 J. Hasegawa, M. Ishida, T. Nakajima, Y. Honda, O. Kitao, H. Nakai, 
 T. Vreven, K. Throssell, J. A. Montgomery, Jr., J. E. Peralta, 
 F. Ogliaro, M. J. Bearpark, J. J. Heyd, E. N. Brothers, K. N. Kudin, 
 V. N. Staroverov, T. A. Keith, R. Kobayashi, J. Normand, 
 K. Raghavachari, A. P. Rendell, J. C. Burant, S. S. Iyengar, 
 J. Tomasi, M. Cossi, J. M. Millam, M. Klene, C. Adamo, R. Cammi, 
 J. W. Ochterski, R. L. Martin, K. Morokuma, O. Farkas, 
 J. B. Foresman, and D. J. Fox, Gaussian, Inc., Wallingford CT, 2019.
 
 ******************************************
 Gaussian 16:  ES64L-G16RevC.01  3-Jul-2019
                24-May-2026 
 ******************************************
 %chk=19NT_md_min_distance_cutoff8_nowat_current.chk
 %nprocshared=64
 Will use up to   64 processors via shared memory.
 %mem=200GB
 --------------------------
 # wb97xd/6-31g(d) prop=efg
 --------------------------
 1/38=1,172=1/1;
 2/12=2,17=6,18=5,40=1/2;
 3/5=1,6=6,7=1,11=2,25=1,30=1,74=-58/1,2,3;
 4//1;
 5/5=2,38=5/2;
 6/7=2,8=2,9=2,10=2,14=1,28=1/1,2;
 99/5=1,9=1/99;
 ----------------------------------
 19NT_md_min_distance_cutoff8_nowat
 ----------------------------------
 Symbolic Z-matrix:
 Charge = -2 Multiplicity = 1
 H                    0     2.69445  -8.33088  -7.77207 
 C                    -1    2.63749  -7.96151  -6.7396 
 H                    0     2.54208  -8.83393  -6.08847 
 C                    0     3.91175  -7.17784  -6.38866 
 H                    0     4.7617   -7.86687  -6.45874 
 H                    0     4.10145  -6.39108  -7.12908 
 C                    0     3.82227  -6.56831  -5.01304 
 C                    0     3.7694   -7.37164  -3.87016 
 H                    0     3.87834  -8.45037  -3.9618 
 C                    0     3.57153  -6.81513  -2.61431 
 H                    0     3.52534  -7.43639  -1.72428 
 C                    0     3.42055  -5.43389  -2.49012 
 O                    0     3.16506  -4.92773  -1.25363 
 H                    0     3.06133  -3.92284  -1.26437 
 C                    0     3.50993  -4.61174  -3.60966 
 H                    0     3.43265  -3.53466  -3.51328 
 C                    0     3.70658  -5.18955  -4.85645 
 H                    0     3.77415  -4.54391  -5.72752 
 C                    0     1.31272  -7.19608  -6.58241 
 O                    0     0.37062  -7.68859  -5.95387 
 N                    0     1.21397  -5.99961  -7.20049 
 H                    0     2.0176   -5.64695  -7.70033 
 C                    -1   -0.01745  -5.21084  -7.27016 
 H                    0    -0.55444  -5.34769  -6.32734 
 C                    0     0.25704  -3.72515  -7.52311 
 H                    0     0.84936  -3.64529  -8.4476 
 C                    0    -1.07744  -3.0162   -7.77262 
 H                    0    -0.92992  -1.93839  -7.89552 
 H                    0    -1.76425  -3.16253  -6.93573 
 H                    0    -1.57894  -3.39836  -8.66861 
 C                    0     1.0728   -3.05701  -6.39916 
 H                    0     2.11373  -3.39393  -6.45666 
 H                    0     1.10118  -1.978    -6.5895 
 C                    0     0.55171  -3.30389  -4.98477 
 H                    0     1.0958   -2.68107  -4.26919 
 H                    0     0.68854  -4.34962  -4.68788 
 H                    0    -0.51172  -3.05151  -4.89142 
 H                    0    -0.65922  -5.61292  -8.06562 
 H                    0    -1.82823  -9.40142  -6.29596 
 C                    -1   -1.98869  -10.01194  -5.39948 
 H                    0    -2.72766  -10.78529  -5.61785 
 C                    0    -0.64542  -10.61128  -4.95355 
 H                    0    -0.83513  -11.38335  -4.19335 
 H                    0    -0.05681  -9.81797  -4.47897 
 C                    0     0.20444  -11.19785  -6.08369 
 H                    0     0.41906  -10.37343  -6.7776 
 C                    0     1.53465  -11.7042  -5.52065 
 H                    0     2.20432  -12.04498  -6.31811 
 H                    0     1.37086  -12.54993  -4.83948 
 H                    0     2.05072  -10.91856  -4.95571 
 C                    0    -0.52104  -12.30597  -6.84898 
 H                    0     0.11769  -12.72469  -7.6348 
 H                    0    -0.80051  -13.12457  -6.17275 
 H                    0    -1.4358   -11.93812  -7.32561 
 C                    0    -2.56212  -9.14154  -4.26779 
 O                    0    -3.39254  -9.56938  -3.47571 
 N                    0    -2.06379  -7.86954  -4.17746 
 H                    0    -1.2973   -7.60998  -4.79743 
 C                    -1   -2.52624  -6.89932  -3.1733 
 H                    0    -2.61782  -7.39096  -2.20156 
 C                    0    -1.50761  -5.73579  -3.11728 
 H                    0    -1.38305  -5.3842   -4.15154 
 C                    0    -1.98319  -4.53927  -2.29065 
 H                    0    -2.94711  -4.15351  -2.62951 
 H                    0    -2.08713  -4.80409  -1.23391 
 H                    0    -1.24652  -3.73214  -2.36673 
 C                    0    -0.14518  -6.2252   -2.61203 
 H                    0     0.56718  -5.3951   -2.57502 
 H                    0     0.28941  -6.9987   -3.25308 
 H                    0    -0.23407  -6.62822  -1.59401 
 C                    0    -3.95541  -6.3997   -3.50861 
 O                    0    -4.70921  -6.04638  -2.60792 
 N                    0    -4.29425  -6.31277  -4.82739 
 H                    0    -3.69883  -6.79098  -5.48838 
 C                    -1   -5.67105  -5.99203  -5.2119 
 H                    0    -5.94986  -5.11276  -4.62037 
 C                    0    -5.9264   -5.69842  -6.68537 
 H                    0    -5.31068  -4.87124  -7.05151 
 H                    0    -5.75555  -6.59184  -7.29482 
 C                    0    -7.40991  -5.30349  -6.75397 
 O                    0    -7.70999  -4.08735  -6.70421 
 O                    0    -8.26558  -6.24782  -6.75497 
 H                    0    -6.33076  -6.80951  -4.89327 
 H                    0    -5.16785  -9.95668  -1.78306 
 C                    -1   -5.94546  -9.59571  -1.10665 
 H                    0    -6.03871  -8.51489  -1.24155 
 H                    0    -6.89819  -10.07988  -1.33754 
 H                    0    -5.67428  -9.81025  -0.06788 
 H                    0     1.92127  -12.39152  -2.20507 
 C                    -1    2.39925  -11.87683  -1.36488 
 H                    0     3.1414   -11.18169  -1.77626 
 C                    0     1.36726  -11.11735  -0.52145 
 H                    0     0.64146  -11.8652  -0.14987 
 C                    0     2.03057  -10.4411   0.68384 
 H                    0     2.73788  -9.66939   0.3573 
 H                    0     2.58909  -11.16395   1.28955 
 H                    0     1.31054  -9.93919   1.3421 
 C                    0     0.58821  -10.11889  -1.38972 
 H                    0     1.26439  -9.31746  -1.71729 
 H                    0     0.25356  -10.62948  -2.29844 
 C                    0    -0.63255  -9.49835  -0.71299 
 H                    0    -1.20157  -8.88592  -1.41673 
 H                    0    -1.32145  -10.28778  -0.37058 
 H                    0    -0.3408   -8.85552   0.12964 
 H                    0     2.93606  -12.62006  -0.7654 
 H                    0     8.36504  -11.83296  -1.13269 
 C                    -1    9.14652  -11.94377  -0.37304 
 H                    0     10.01274  -11.36395  -0.70731 
 C                    0     8.65056  -11.44562   0.98873 
 H                    0     7.82627  -12.0822   1.33406 
 H                    0     9.45444  -11.54184   1.7288 
 C                    0     8.1913   -10.01295   0.8972 
 C                    0     6.85675  -9.69929   0.65044 
 H                    0     6.11729  -10.49744   0.6072 
 C                    0     6.4514   -8.38852   0.42171 
 H                    0     5.41389  -8.16218   0.19936 
 C                    0     7.39129  -7.3561    0.44857 
 O                    0     7.0605   -6.06539   0.20275 
 H                    0     6.112    -5.95151   0.38182 
 C                    0     8.72889  -7.65038   0.7154 
 H                    0     9.44783  -6.83912   0.7508 
 C                    0     9.11419  -8.96369   0.93457 
 H                    0     10.16187  -9.18101   1.13167 
 H                    0     9.44095  -12.99904  -0.33172 
 H                    0     10.38265  -4.65034   5.00741 
 C                    -1    9.77178  -3.89782   4.49702 
 H                    0     10.19624  -3.70571   3.50467 
 C                    0     8.31651  -4.39027   4.37239 
 H                    0     7.97765  -4.65018   5.38329 
 C                    0     7.41275  -3.27458   3.8409 
 H                    0     6.40498  -3.64641   3.62355 
 H                    0     7.30999  -2.47197   4.57581 
 H                    0     7.82468  -2.83255   2.92439 
 C                    0     8.22952  -5.63277   3.4881 
 H                    0     8.90702  -6.42645   3.82617 
 H                    0     7.20937  -6.04024   3.47758 
 H                    0     8.48655  -5.38806   2.45184 
 C                    0     9.77585  -2.61719   5.35124 
 O                    0     9.46196  -2.66048   6.53914 
 N                    0     10.05904  -1.46833   4.69016 
 H                    0     10.26675  -1.50624   3.69404 
 C                    -1    9.90081  -0.13771   5.26625 
 H                    0     9.88076  -0.2585    6.3525 
 C                    0     11.01285   0.82073   4.8165 
 H                    0     10.88516   1.01587   3.74937 
 H                    0     10.84899   1.77772   5.3304 
 C                    0     12.45427   0.36119   5.01692 
 H                    0     12.56298  -0.6547    4.61499 
 H                    0     12.7359   0.33736   6.07433 
 C                    0     13.43686   1.28188   4.24384 
 O                    0     13.0782   1.54901   3.04928 
 O                    0     14.46078   1.67938   4.81784 
 C                    0     8.5648    0.42856   4.74704 
 O                    0     8.44636   0.71919   3.55308 
 N                    0     7.54617   0.56765   5.61632 
 H                    0     7.64044   0.25224   6.57138 
 C                    -1    6.23098   1.00539   5.16017 
 H                    0     6.41174   1.68702   4.32963 
 C                    0     5.4319   -0.20347   4.63924 
 H                    0     5.26482  -0.9011    5.46836 
 H                    0     6.05753  -0.72103   3.90373 
 C                    0     4.08333   0.09565   3.95903 
 O                    0     3.72801   1.3031    3.89427 
 O                    0     3.44367  -0.88695   3.50564 
 C                    0     5.49411   1.70437   6.30626 
 O                    0     5.18258   1.04716   7.29935 
 N                    0     5.18958   3.0169    6.18073 
 C                    0     4.55986   3.71631   7.30122 
 H                    0     3.47911   3.52474   7.29386 
 H                    0     4.964     3.3375    8.24273 
 C                    0     4.8756    5.19288   7.05107 
 H                    0     4.09112   5.85475   7.42705 
 H                    0     5.81991   5.4528    7.53798 
 C                    0     5.02947   5.27722   5.52967 
 H                    0     5.61734   6.13391   5.19303 
 H                    0     4.05358   5.34013   5.04638 
 C                    -1    5.70138   3.94146   5.17109 
 H                    0     5.43872   3.62001   4.16026 
 C                    0     7.23921   4.08363   5.32556 
 O                    0     7.78762   3.88986   6.40496 
 N                    0     7.90456   4.50079   4.22423 
 H                    0     7.43262   4.4739    3.3257 
 C                    -1    9.34387   4.71122   4.26258 
 H                    0     9.8492    3.76998   4.5139 
 C                    0     9.9038    5.24939   2.94531 
 H                    0     9.36656   6.15951   2.65165 
 H                    0     9.7591    4.51432   2.14282 
 C                    0     11.37426   5.54663   3.1314 
 C                    0     12.28895   4.50146   3.27201 
 H                    0     11.97824   3.46331   3.18126 
 C                    0     13.6327   4.75017   3.54416 
 H                    0     14.29496   3.90313   3.7138 
 C                    0     14.08639   6.06441   3.63983 
 H                    0     15.13354   6.26741   3.849 
 C                    0     13.18581   7.12076   3.4872 
 H                    0     13.52856   8.14933   3.57295 
 C                    0     11.83635   6.85889   3.25531 
 H                    0     11.13344   7.68315   3.15846 
 H                    0     9.57292   5.41067   5.07417 
 H                    0     1.49278  -7.75319   9.14905 
 C                    -1    1.64473  -6.81023   8.61226 
 H                    0     1.4016   -5.99977   9.30228 
 C                    0     3.08607  -6.67773   8.08394 
 H                    0     3.4139   -7.63228   7.65018 
 H                    0     3.74255  -6.51025   8.94619 
 C                    0     3.26256  -5.57289   7.05817 
 C                    0     2.81475  -4.27041   7.30661 
 H                    0     2.34975  -4.02697   8.2601 
 C                    0     2.9814   -3.26968   6.35354 
 H                    0     2.6535   -2.25541   6.5608 
 C                    0     3.58913  -3.54534   5.12808 
 H                    0     3.70848  -2.73607   4.40193 
 C                    0     4.0338   -4.83957   4.87672 
 H                    0     4.51866  -5.072     3.93298 
 C                    0     3.87461  -5.84103   5.833 
 H                    0     4.25394  -6.84148   5.62914 
 C                    0     0.57158  -6.74441   7.52933 
 O                    0    -0.48843  -6.14183   7.70345 
 N                    0     0.75721  -7.4839    6.39241 
 H                    0     1.71985  -7.67483   6.13913 
 C                    -1   -0.18167  -7.4575    5.27081 
 H                    0    -0.33776  -6.43838   4.90077 
 C                    0     0.35504  -8.36241   4.1376 
 H                    0     0.68788  -9.30757   4.58843 
 H                    0    -0.4974   -8.58805   3.49918 
 C                    0     1.42611  -7.76661   3.2649 
 C                    0     2.78155  -8.05027   3.43183 
 H                    0     3.10029  -8.72967   4.22068 
 C                    0     3.74449  -7.48722   2.60301 
 H                    0     4.8006   -7.69714   2.74038 
 C                    0     3.35142  -6.62586   1.57633 
 O                    0     4.29991  -6.05765   0.80764 
 H                    0     3.8872   -5.55288   0.05933 
 C                    0     1.99037  -6.37469   1.36157 
 H                    0     1.68779  -5.74326   0.53455 
 C                    0     1.04871  -6.93195   2.2096 
 H                    0    -0.0058   -6.7107    2.0457 
 C                    0    -1.56891  -8.00365   5.63558 
 O                    0    -2.51808  -7.80652   4.85931 
 N                    0    -1.69814  -8.81196   6.70724 
 H                    0    -0.90254  -8.90426   7.32891 
 C                    -1   -2.99631  -9.30387   7.17218 
 H                    0    -3.68306  -9.22019   6.32474 
 C                    0    -2.91912  -10.76059   7.61934 
 H                    0    -1.9995   -10.91632   8.19707 
 H                    0    -3.7564   -10.93657   8.30096 
 C                    0    -3.02442  -11.78927   6.48123 
 H                    0    -2.9066   -12.78423   6.92271 
 H                    0    -4.03559  -11.76291   6.0565 
 C                    0    -2.02036  -11.69713   5.32016 
 H                    0    -1.01049  -11.47814   5.69073 
 H                    0    -2.0024   -12.67093   4.81863 
 N                    0    -2.41938  -10.69237   4.33491 
 H                    0    -2.92848  -9.8789    4.66483 
 C                    0    -1.95847  -10.57155   3.09087 
 N                    0    -1.14629  -11.48524   2.5487 
 H                    0    -0.81698  -12.27697   3.07527 
 H                    0    -0.73756  -11.33335   1.63614 
 N                    0    -2.34705  -9.52127   2.36314 
 H                    0    -2.72521  -8.70614   2.83767 
 H                    0    -1.9723   -9.37137   1.43562 
 C                    0    -3.6994   -8.35131   8.18719 
 O                    0    -4.85977  -8.59337   8.48732 
 N                    0    -2.99337  -7.27558   8.57766 
 H                    0    -2.01667  -7.20926   8.32184 
 C                    -1   -3.54806  -6.07683   9.2051 
 H                    0    -4.47523  -6.35747   9.70882 
 C                    0    -2.54611  -5.49105   10.19667 
 H                    0    -3.00898  -4.6174    10.66483 
 H                    0    -1.6553   -5.13706   9.66745 
 C                    0    -2.15449  -6.51962   11.28568 
 H                    0    -2.09078  -6.01717   12.25571 
 H                    0    -2.93245  -7.28475   11.37123 
 C                    0    -0.84396  -7.24557   10.99844 
 O                    0    -0.72626  -8.1394    10.16576 
 N                    0     0.21083  -6.82226   11.7397 
 H                    0     0.13912  -6.07585   12.41175 
 H                    0     1.11489  -7.24469   11.59223 
 C                    0    -3.98252  -5.1246    8.04671 
 O                    0    -5.14167  -4.74866   7.94478 
 N                    0    -3.03053  -4.80673   7.12221 
 H                    0    -2.07897  -5.12801   7.26211 
 C                    -1   -3.25974  -3.77325   6.12015 
 H                    0    -2.29993  -3.54785   5.64605 
 H                    0    -3.62653  -2.85499   6.58534 
 C                    0    -4.27185  -4.08464   5.00795 
 O                    0    -4.91099  -3.1721    4.51296 
 N                    0    -4.38203  -5.37879   4.57419 
 H                    0    -3.75466  -6.08884   4.93529 
 C                    -1   -5.30697  -5.72933   3.5066 
 H                    0    -5.67564  -4.77962   3.11041 
 C                    0    -4.68969  -6.55252   2.3701 
 H                    0    -4.53614  -7.58395   2.72133 
 H                    0    -5.44669  -6.6235    1.58182 
 C                    0    -3.37924  -6.01048   1.78477 
 H                    0    -2.58886  -6.16155   2.53671 
 C                    0    -3.03594  -6.80024   0.5134 
 H                    0    -1.98819  -6.65591   0.2224 
 H                    0    -3.22331  -7.87599   0.62147 
 H                    0    -3.66193  -6.47185  -0.32541 
 C                    0    -3.447    -4.51765   1.454 
 H                    0    -4.24238  -4.33346   0.72213 
 H                    0    -3.63701  -3.89355   2.33218 
 H                    0    -2.50677  -4.17868   1.00574 
 C                    0    -6.55453  -6.49565   4.03939 
 O                    0    -7.37209  -6.97865   3.26077 
 N                    0    -6.69057  -6.63083   5.38999 
 H                    0    -6.03926  -6.14949   5.99902 
 C                    -1   -7.63714  -7.57093   5.98002 
 H                    0    -7.59928  -8.51971   5.4377 
 H                    0    -7.33426  -7.75664   7.01283 
 C                    0    -9.12693  -7.16881   5.98685 
 O                    0    -9.96157  -7.97882   6.3528 
 N                    0    -9.46439  -5.91708   5.5538 
 H                    0    -8.72426  -5.28372   5.28817 
 C                    -1   -10.84791  -5.46698   5.51098 
 H                    0    -10.88052  -4.37676   5.54442 
 H                    0    -11.38645  -5.85692   6.37892 
 C                    0    -11.64194  -5.90962   4.26862 
 O                    0    -12.78059  -5.47365   4.10829 
 N                    0    -11.05534  -6.72601   3.35397 
 H                    0    -10.07613  -6.96494   3.46447 
 C                    -1   -11.75747  -7.16303   2.14583 
 H                    0    -11.21309  -7.98948   1.69114 
 H                    0    -12.76505  -7.49798   2.41115 
 C                    0    -11.89592  -6.06612   1.0726 
 O                    0    -12.02617  -6.43714  -0.09966 
 N                    0    -11.86083  -4.76718   1.46336 
 H                    0    -12.04031  -4.59932   2.44843 
 C                    -1   -12.0542  -3.65211   0.54048 
 H                    0    -11.98899  -4.14909  -0.42291 
 C                    0    -13.42976  -2.99536   0.58113 
 H                    0    -13.91824  -3.19027   1.54092 
 H                    0    -13.31053  -1.91426   0.47251 
 C                    0    -14.27411  -3.55862  -0.57507 
 H                    0    -15.28398  -3.14063  -0.52775 
 H                    0    -14.38456  -4.64295  -0.43805 
 C                    0    -13.65531  -3.25516  -1.96785 
 H                    0    -12.79616  -2.57992  -1.8602 
 H                    0    -14.38257  -2.69534  -2.56499 
 C                    0    -13.26064  -4.4532   -2.83979 
 H                    0    -13.1433  -4.14172  -3.8794 
 H                    0    -14.02543  -5.23361  -2.80763 
 N                    0    -11.96868  -5.11893  -2.46295 
 H                    0    -11.63549  -5.71641  -3.22854 
 H                    0    -12.05181  -5.6905   -1.58538 
 H                    0    -11.17585  -4.46889  -2.28948 
 C                    0    -10.83742  -2.67644   0.33316 
 O                    0    -11.08012  -1.56364  -0.10624 
 N                    0    -9.571    -3.18009   0.42959 
 H                    0    -9.48686  -4.16373   0.65014 
 C                    -1   -8.45031  -2.58876  -0.34889 
 H                    0    -8.57075  -1.50093  -0.28328 
 C                    0    -7.0686   -2.97479   0.20709 
 H                    0    -6.91749  -4.0564    0.07265 
 C                    0    -5.96283  -2.22051  -0.54331 
 H                    0    -5.85233  -2.54707  -1.5793 
 H                    0    -6.16364  -1.14201  -0.54817 
 H                    0    -5.0028   -2.36966  -0.0408 
 C                    0    -7.01243  -2.6367    1.70104 
 H                    0    -7.23616  -1.57603   1.8641 
 H                    0    -7.72723  -3.2233    2.28717 
 H                    0    -6.0118   -2.81697   2.10401 
 C                    0    -8.71506  -2.96043  -1.84285 
 O                    0    -9.36733  -3.99025  -2.15722 
 N                    0    -8.23312  -2.11296  -2.73981 
 H                    0    -7.83971  -1.23693  -2.39234 
 C                    -1   -8.06051  -2.30634  -4.17903 
 H                    0    -8.18192  -3.34993  -4.45463 
 C                    0    -8.93334  -1.34856  -5.03009 
 H                    0    -8.93293  -1.74637  -6.05046 
 H                    0    -8.43227  -0.37549  -5.0763 
 C                    0    -10.34442  -1.08555  -4.52579 
 H                    0    -10.82743  -0.36763  -5.19948 
 H                    0    -10.30479  -0.60675  -3.53993 
 C                    0    -11.19895  -2.33882  -4.39514 
 H                    0    -10.8115  -2.94976  -3.5813 
 H                    0    -12.22854  -2.06253  -4.14802 
 N                    0    -11.22847  -3.15291  -5.61321 
 H                    0    -11.52404  -2.65818  -6.44433 
 C                    0    -10.58562  -4.30941  -5.83491 
 N                    0    -10.05784  -5.04523  -4.82559 
 H                    0    -9.7075   -4.55837  -3.99398 
 H                    0    -9.38326  -5.72873  -5.19894 
 N                    0    -10.56227  -4.85521  -7.05085 
 H                    0    -10.75607  -4.25075  -7.83644 
 H                    0    -9.73835  -5.50065  -7.17046 
 C                    0    -6.60771  -1.80732  -4.45635 
 O                    0    -6.12291  -0.98275  -3.67211 
 N                    0    -6.00447  -2.20511  -5.57877 
 H                    0    -6.4626   -2.90182  -6.18591 
 C                    -1   -4.68119  -1.67758  -5.90588 
 H                    0    -4.64575  -0.63288  -5.58444 
 C                    0    -3.59571  -2.45019  -5.15053 
 H                    0    -2.61865  -1.98142  -5.30286 
 H                    0    -3.55914  -3.49636  -5.47496 
 H                    0    -3.82161  -2.42205  -4.08115 
 C                    0    -4.46112  -1.74667  -7.43043 
 O                    0    -4.76905  -2.74816  -8.0714 
 N                    0    -3.87269  -0.65802  -7.99072 
 H                    0    -3.72418   0.16494  -7.40473 
 C                    -1   -3.65757  -0.54435  -9.43939 
 H                    0    -3.30562  -1.51228  -9.80721 
 C                    0    -4.92994  -0.15554  -10.18814 
 H                    0    -5.66496  -0.95737  -10.08501 
 H                    0    -4.69549  -0.01923  -11.24766 
 S                    0    -5.60175   1.4061   -9.49864 
 H                    0    -6.32572   1.74991  -10.57584 
 H                    0    -2.87385   0.20159  -9.59754 
 H                    0     7.32928   1.54419  -8.73997 
 C                    -1    6.48509   1.30267  -9.39548 
 H                    0     6.74738   1.5967   -10.41678 
 C                    0     6.1569   -0.19093  -9.32266 
 H                    0     7.01064  -0.77191  -9.68958 
 H                    0     5.3133   -0.41857  -9.98758 
 C                    0     5.83314  -0.65645  -7.90031 
 H                    0     4.95464  -0.12854  -7.50879 
 H                    0     6.68264  -0.44715  -7.23912 
 S                    0     5.51548  -2.46285  -7.88342 
 C                    0     6.16027  -2.93767  -6.25383 
 H                    0     7.13593  -2.47431  -6.08106 
 H                    0     5.47723  -2.67373  -5.44166 
 H                    0     6.30079  -4.0214   -6.26024 
 H                    0     5.63054   1.91371  -9.08027 
 H                    0     1.48786   3.30158  -7.81122 
 C                    -1    0.49331   2.87423  -7.96009 
 H                    0     0.19799   3.05912  -9.00081 
 C                    0     0.51795   1.35896  -7.69137 
 H                    0    -0.46902   0.91346  -7.87549 
 H                    0     1.19201   0.90034  -8.42622 
 C                    0     0.98137   0.99808  -6.29698 
 C                    0     0.11607   0.42176  -5.36441 
 H                    0    -0.92832   0.25829  -5.6265 
 C                    0     0.57358   0.0848   -4.08983 
 H                    0    -0.10754  -0.36895  -3.37574 
 C                    0     1.89246   0.33753  -3.72642 
 H                    0     2.24981   0.095    -2.73074 
 C                    0     2.75241   0.94033  -4.64153 
 H                    0     3.7655    1.19175  -4.34304 
 C                    0     2.30037   1.25911  -5.91505 
 H                    0     2.97      1.75864  -6.61019 
 C                    0    -0.436     3.67763  -7.04671 
 O                    0    -0.07197   4.69749  -6.4777 
 N                    0    -1.69962   3.20254  -6.96024 
 H                    0    -1.93811   2.32488  -7.39711 
 C                    -1   -2.72757   3.744    -6.09586 
 H                    0    -2.27297   4.45113  -5.39894 
 C                    0    -3.82003   4.44711  -6.9082 
 H                    0    -3.38007   5.37894  -7.27402 
 H                    0    -4.07618   3.81959  -7.77224 
 C                    0    -5.08262   4.72335  -6.09496 
 H                    0    -5.60548   3.78215  -5.89002 
 H                    0    -4.82304   5.15967  -5.1231 
 C                    0    -6.04859   5.65691  -6.80685 
 H                    0    -7.04531   5.56538  -6.3654 
 H                    0    -6.14059   5.37888  -7.86686 
 N                    0    -5.5695    7.02682  -6.69155 
 H                    0    -4.54619   7.18926  -6.52019 
 C                    0    -6.35834   8.08622  -6.66644 
 N                    0    -7.69549   7.96213  -6.79493 
 H                    0    -8.18652   7.07211  -6.60323 
 H                    0    -8.25247   8.79006  -6.65939 
 N                    0    -5.78985   9.30342  -6.57745 
 H                    0    -4.7668    9.38309  -6.36009 
 H                    0    -6.36599   10.0725  -6.27543 
 C                    0    -3.33207   2.5524   -5.33463 
 O                    0    -3.5101    1.46459  -5.91187 
 N                    0    -3.68725   2.78683  -4.06284 
 H                    0    -3.51064   3.71834  -3.67594 
 C                    -1   -4.54153   1.89859  -3.29616 
 H                    0    -4.80638   1.06424  -3.94969 
 C                    0    -3.84459   1.30345  -2.0513 
 H                    0    -4.60513   0.70006  -1.53741 
 C                    0    -2.71015   0.38388  -2.50194 
 H                    0    -1.94713   0.9609   -3.03525 
 H                    0    -3.07767  -0.40172  -3.17043 
 H                    0    -2.23192  -0.08991  -1.63583 
 C                    0    -3.3255    2.36761  -1.08638 
 H                    0    -2.59493   3.02356  -1.57384 
 H                    0    -2.8358    1.89646  -0.22641 
 H                    0    -4.13467   2.99137  -0.70113 
 C                    0    -5.83043   2.66661  -2.94718 
 O                    0    -5.79554   3.8757   -2.71804 
 N                    0    -6.97675   1.95476  -2.91846 
 H                    0    -6.92995   0.95375  -3.07594 
 C                    -1   -8.25637   2.55888  -2.5545 
 H                    0    -8.01282   3.53036  -2.12008 
 C                    0    -9.17805   2.82578  -3.75371 
 H                    0    -10.10682   3.26429  -3.37388 
 H                    0    -9.45571   1.88523  -4.24721 
 C                    0    -8.53757   3.79793  -4.75129 
 H                    0    -7.80977   3.26239  -5.37699 
 H                    0    -7.96113   4.55654  -4.21337 
 C                    0    -9.55176   4.50329  -5.69487 
 O                    0    -10.61011   3.90113  -5.92947 
 O                    0    -9.17986   5.6298   -6.15092 
 C                    0    -8.90899   1.71328  -1.44284 
 O                    0    -8.7771    0.47983  -1.42861 
 N                    0    -9.60161   2.39964  -0.50381 
 H                    0    -9.74526   3.40296  -0.63465 
 C                    -1   -10.11294   1.78915   0.72713 
 H                    0    -10.7666   0.95086   0.44828 
 C                    0    -8.9774    1.19398   1.58389 
 H                    0    -8.5248    0.39106   0.99616 
 H                    0    -9.42957   0.69972   2.45404 
 C                    0    -7.87266   2.15664   2.05253 
 H                    0    -8.27814   3.14648   2.28804 
 H                    0    -7.41293   1.77053   2.96781 
 S                    0    -6.51098   2.37602   0.84197 
 C                    0    -6.62705   4.14621   0.46372 
 H                    0    -7.63511   4.41202   0.13664 
 H                    0    -6.3472    4.75663   1.32635 
 H                    0    -5.93351   4.34484  -0.35591 
 C                    0    -11.04909   2.79738   1.45989 
 O                    0    -11.77419   3.54588   0.82563 
 N                    0    -11.10123   2.70158   2.82731 
 H                    0    -10.32802   2.28845   3.33164 
 C                    -1   -11.96176   3.52771   3.67701 
 H                    0    -12.42877   4.2748    3.0249 
 C                    0    -13.05737   2.67737   4.35739 
 H                    0    -12.544    1.95621   5.00822 
 C                    0    -13.98438   3.53797   5.22013 
 H                    0    -14.48102   4.3032    4.60881 
 H                    0    -14.76685   2.91928   5.67187 
 H                    0    -13.44599   4.04352   6.0267 
 C                    0    -13.85879   1.90743   3.30565 
 H                    0    -14.33816   2.59714   2.60107 
 H                    0    -13.21487   1.23738   2.72984 
 H                    0    -14.64092   1.3077    3.7846 
 C                    0    -11.03055   4.20094   4.7137 
 O                    0    -10.06306   3.58029   5.14012 
 N                    0    -11.36759   5.4461    5.14072 
 H                    0    -12.10361   5.92482   4.64326 
 C                    -1   -10.53766   6.22401   6.06382 
 H                    0    -9.69628   5.57609   6.31243 
 C                    0    -10.04046   7.5546    5.47925 
 H                    0    -9.9232    7.42041   4.39817 
 H                    0    -10.78649   8.34418   5.62966 
 C                    0    -8.7216    7.95548   6.06476 
 C                    0    -8.40427   9.05835   6.80512 
 H                    0    -9.03766   9.86848   7.14019 
 N                    0    -7.06131   9.04727   7.11982 
 H                    0    -6.55733   9.82483   7.51287 
 C                    0    -6.47273   7.95001   6.53345 
 C                    0    -5.13179   7.55723   6.48378 
 H                    0    -4.35092   8.14456   6.95764 
 C                    0    -4.83192   6.39878   5.78764 
 H                    0    -3.79875   6.07483   5.70879 
 C                    0    -5.84663   5.63173   5.18434 
 H                    0    -5.58146   4.7264    4.65004 
 C                    0    -7.17169   6.01854   5.24212 
 H                    0    -7.94541   5.38978   4.81039 
 C                    0    -7.49497   7.21857   5.89344 
 H                    0    -11.09244   6.40041   6.99296 
 H                    0    -11.35115   6.55485   0.26108 
 C                    -1   -10.49967   7.21893   0.09204 
 H                    0    -10.86292   8.15474  -0.34807 
 C                    0    -9.77424   7.52655   1.40289 
 H                    0    -8.88111   8.13263   1.22639 
 H                    0    -10.43112   8.08114   2.07982 
 S                    0    -9.24862   5.96243   2.19325 
 H                    0    -8.17176   6.45556   2.82549 
 C                    0    -9.56612   6.49776  -0.89983 
 O                    0    -9.72233   5.31406  -1.19531 
 N                    0    -8.56881   7.25698  -1.40131 
 H                    0    -8.37232   8.16638  -1.00084 
 C                    -1   -7.49018   6.74657  -2.2292 
 H                    0    -7.53477   5.65572  -2.20684 
 C                    0    -7.58596   7.23     -3.67368 
 H                    0    -7.57403   8.32564  -3.70844 
 H                    0    -8.48751   6.85129  -4.16275 
 H                    0    -6.72182   6.86457  -4.23592 
 C                    0    -6.15671   7.21411  -1.60357 
 O                    0    -6.14229   8.19552  -0.85838 
 N                    0    -5.06769   6.52008  -1.98642 
 H                    0    -5.19415   5.63055  -2.46463 
 C                    -1   -3.70868   6.83882  -1.55664 
 H                    0    -3.67949   7.91433  -1.35734 
 C                    0    -3.32494   6.04672  -0.30408 
 H                    0    -3.37794   4.98534  -0.56418 
 H                    0    -4.09347   6.23491   0.45811 
 C                    0    -1.94153   6.37118   0.27638 
 H                    0    -1.21107   6.41705  -0.54334 
 C                    0    -1.93669   7.72381   0.99079 
 H                    0    -2.2274    8.53214   0.31517 
 H                    0    -2.64243   7.71401   1.83317 
 H                    0    -0.94847   7.96819   1.39196 
 C                    0    -1.52356   5.2465    1.21949 
 H                    0    -1.49656   4.28411   0.69526 
 H                    0    -2.24589   5.16078   2.04182 
 H                    0    -0.53586   5.42388   1.65647 
 C                    0    -2.75751   6.49209  -2.70492 
 O                    0    -2.75646   5.35198  -3.19003 
 N                    0    -1.92251   7.46345  -3.09426 
 H                    0    -2.00408   8.37831  -2.65292 
 C                    -1   -0.9583    7.29433  -4.17992 
 H                    0    -1.28401   6.42166  -4.74758 
 C                    0    -1.07054   8.48156  -5.13067 
 H                    0    -0.89715   9.43445  -4.62194 
 H                    0    -0.32674   8.37333  -5.92868 
 C                    0    -2.48989   8.4711   -5.76611 
 O                    0    -2.92651   7.33784  -6.11326 
 O                    0    -3.08977   9.56272  -5.87965 
 C                    0     0.42612   6.96403  -3.52977 
 O                    0     0.84197   7.63157  -2.58166 
 N                    0     1.06388   5.85907  -3.99684 
 H                    0     0.67917   5.37476  -4.80756 
 C                    -1    2.17217   5.17967  -3.30808 
 H                    0     2.60008   5.88816  -2.59122 
 C                    0     1.66944   3.91263  -2.56537 
 H                    0     1.29519   3.22741  -3.33873 
 C                    0     2.80875   3.22013  -1.81064 
 H                    0     2.41811   2.34989  -1.27293 
 H                    0     3.60589   2.86041  -2.46602 
 H                    0     3.25501   3.90012  -1.07426 
 C                    0     0.52135   4.23563  -1.60668 
 H                    0     0.17728   3.31274  -1.12431 
 H                    0    -0.3351    4.67624  -2.12632 
 H                    0     0.84378   4.92226  -0.81474 
 C                    0     3.23064   4.7473   -4.34786 
 O                    0     2.8844    4.271    -5.42288 
 N                    0     4.54398   4.84966  -3.98445 
 H                    0     4.80401   5.29122  -3.1006 
 C                    -1    5.60739   4.3176   -4.8367 
 H                    0     5.09295   3.85635  -5.68623 
 C                    0     6.56365   5.40828  -5.35535 
 H                    0     7.00251   5.89863  -4.47596 
 C                    0     7.69398   4.77058  -6.16982 
 H                    0     8.39214   5.52917  -6.53437 
 H                    0     8.27583   4.05953  -5.57409 
 H                    0     7.29253   4.23664  -7.04162 
 C                    0     5.78202   6.45787  -6.15522 
 H                    0     4.92536   6.78354  -5.55636 
 H                    0     5.36591   5.98692  -7.05671 
 C                    0     6.60971   7.68307  -6.5409 
 H                    0     7.06087   8.1433   -5.65419 
 H                    0     5.9796    8.43707  -7.02375 
 H                    0     7.41836   7.43437  -7.23678 
 C                    0     6.38645   3.2671   -4.04501 
 O                    0     7.02276   3.58522  -3.04677 
 N                    0     6.35021   1.98921  -4.49966 
 H                    0     5.9935    1.8156   -5.42908 
 C                    -1    7.14839   0.9481   -3.87598 
 H                    0     7.3754    1.28486  -2.86232 
 C                    0     6.43113  -0.38611  -3.83065 
 H                    0     6.00632  -0.62747  -4.81067 
 H                    0     7.14966  -1.18173  -3.60205 
 C                    0     5.33526  -0.4733   -2.80208 
 O                    0     4.92721   0.43693  -2.11436 
 O                    0     4.84328  -1.71064  -2.76439 
 H                    0     4.12934  -1.75066  -2.07906 
 C                    0     8.46335   0.73432  -4.66574 
 O                    0     8.43383   0.46741  -5.86931 
 N                    0     9.58749   0.81806  -3.92891 
 H                    0     9.49186   0.9677   -2.91907 
 C                    -1    10.91731   0.44211  -4.3996 
 H                    0     10.92037   0.49823  -5.49299 
 C                    0     11.97973   1.37904  -3.78275 
 H                    0     11.899    1.28741  -2.69325 
 C                    0     13.40269   0.97156  -4.16298 
 H                    0     14.10009   1.6182   -3.62553 
 H                    0     13.56972   1.07239  -5.24485 
 H                    0     13.62828  -0.06093  -3.87397 
 C                    0     11.71197   2.83676  -4.15101 
 H                    0     10.70459   3.14786  -3.85941 
 H                    0     11.81883   2.99626  -5.23238 
 H                    0     12.43065   3.47537  -3.62993 
 C                    0     11.16025  -0.99517  -3.90609 
 O                    0     10.84581  -1.32503  -2.76491 
 N                    0     11.74592  -1.87649  -4.74782 
 H                    0     11.97474  -1.57195  -5.68156 
 C                    -1    12.10873  -3.22868  -4.33704 
 H                    0     12.19871  -3.22421  -3.24878 
 C                    0     11.09881  -4.28726  -4.79794 
 H                    0     11.5402  -5.2786   -4.63744 
 H                    0     10.94058  -4.18293  -5.87921 
 C                    0     9.759    -4.20381  -4.06857 
 H                    0     9.32956  -3.20125  -4.16182 
 H                    0     9.90081  -4.41031  -3.00206 
 S                    0     8.59411  -5.42396  -4.76244 
 C                    0     7.19581  -5.21911  -3.62542 
 H                    0     6.82012  -4.19098  -3.63131 
 H                    0     6.39761  -5.88092  -3.97174 
 H                    0     7.46477  -5.50388  -2.60359 
 H                    0     13.09445  -3.45487  -4.75669 
 H                    0     11.70277  -10.5737  -2.94134 
 C                    -1    11.7919  -9.48373  -2.85747 
 H                    0     12.10065  -9.09714  -3.83736 
 C                    0     10.46786  -8.85091  -2.41922 
 H                    0     10.18129  -9.29194  -1.45575 
 C                    0     10.63254  -7.34506  -2.20334 
 H                    0     11.38518  -7.13707  -1.43361 
 H                    0     9.69528  -6.87684  -1.88602 
 H                    0     10.94785  -6.85659  -3.13264 
 C                    0     9.35246  -9.17602  -3.42363 
 H                    0     9.4079   -10.24583  -3.6723 
 H                    0     9.54058  -8.62521  -4.3554 
 C                    0     7.94641  -8.86113  -2.91707 
 H                    0     7.72356  -9.4227   -2.00299 
 H                    0     7.82791  -7.79943  -2.68509 
 H                    0     7.19105  -9.1164   -3.66974 
 H                    0     12.59473  -9.26281  -2.14452 
 H                    0     11.55088  -3.75939   0.51366 
 C                    -1    10.85265  -3.11781  -0.02931 
 H                    0     11.23779  -2.9307   -1.03663 
 C                    0     9.47692  -3.80415  -0.12433 
 H                    0     9.61626  -4.77898  -0.61227 
 H                    0     9.09957  -4.01262   0.88249 
 C                    0     8.42177  -3.02101  -0.92424 
 H                    0     8.90441  -2.46317  -1.73365 
 H                    0     7.71429  -3.71697  -1.3805 
 S                    0     7.42233  -1.80018  -0.00478 
 C                    0     6.06351  -2.85828   0.56523 
 H                    0     6.44383  -3.71051   1.13429 
 H                    0     5.45953  -3.20952  -0.27928 
 H                    0     5.43544  -2.25406   1.22825 
 C                    0     10.74793  -1.81127   0.76515 
 O                    0     10.79207  -1.85642   1.99277 
 N                    0     10.56325  -0.67897   0.05389 
 H                    0     10.57054  -0.73572  -0.96072 
 C                    -1    10.3567   0.64829   0.63447 
 H                    0     10.28919   0.52223   1.71565 
 C                    0     11.46702   1.63338   0.24224 
 H                    0     11.20172   2.09736  -0.71369 
 H                    0     11.4986   2.42811   0.99416 
 C                    0     12.85824   1.00903   0.11422 
 H                    0     13.12039   0.5209    1.05592 
 H                    0     12.88331   0.2901   -0.71051 
 C                    0     13.79926   2.15706  -0.20605 
 O                    0     13.94732   2.56647  -1.3644 
 N                    0     14.35941   2.72417   0.87491 
 H                    0     14.05393   2.40236   1.81253 
 H                    0     14.7278   3.6572    0.75644 
 C                    0     9.04332   1.19094   0.03711 
 O                    0     8.91796   1.23587  -1.19654 
 N                    0     8.09861   1.64028   0.87441 
 H                    0     8.19609   1.45623   1.87535 
 C                    -1    6.82908   2.17916   0.38708 
 H                    0     6.79737   1.99505  -0.68783 
 C                    0     5.63943   1.50635   1.05915 
 H                    0     4.70715   1.87841   0.62076 
 H                    0     5.61107   1.70602   2.13257 
 H                    0     5.68057   0.42711   0.89362 
 C                    0     6.80908   3.69745   0.65452 
 O                    0     6.54539   4.14682   1.77228 
 N                    0     7.0997    4.49547  -0.3866 
 H                    0     7.18219   4.08953  -1.31399 
 C                    -1    7.14087   5.94861  -0.27711 
 H                    0     7.58428   6.18894   0.69427 
 C                    0     8.02317   6.52387  -1.39483 
 H                    0     7.78544   7.58692  -1.51104 
 H                    0     7.75667   6.03204  -2.33596 
 C                    0     9.48762   6.35684  -1.06519 
 C                    0     10.20608   5.20046  -1.38328 
 H                    0     9.71966   4.40446  -1.94333 
 C                    0     11.52407   5.02977  -0.96516 
 H                    0     12.09003   4.13448  -1.2054 
 C                    0     12.13858   6.01764  -0.19684 
 O                    0     13.41117   5.81098   0.24468 
 H                    0     13.51665   6.25222   1.10177 
 C                    0     11.45174   7.19898   0.08503 
 H                    0     11.94162   7.98075   0.65746 
 C                    0     10.1395   7.35431  -0.33789 
 H                    0     9.60609   8.26948  -0.08771 
 C                    0     5.70046   6.52218  -0.3305 
 O                    0     5.05468   6.49003  -1.3846 
 N                    0     5.23608   7.07293   0.81168 
 H                    0     5.74392   6.95724   1.68233 
 C                    -1    3.94345   7.73268   0.94086 
 H                    0     3.85943   8.48243   0.14638 
 C                    0     2.7501    6.75472   0.76109 
 H                    0     1.82676   7.34406   0.70573 
 H                    0     2.87136   6.29577  -0.22419 
 C                    0     2.642     5.70925   1.82652 
 C                    0     3.33625   4.52766   1.87646 
 H                    0     4.06079   4.13497   1.17922 
 N                    0     3.04233   3.83826   3.02118 
 H                    0     3.40324   2.91836   3.29216 
 C                    0     2.13737   4.56461   3.74773 
 C                    0     1.55243   4.27482   4.98492 
 H                    0     1.79433   3.34925   5.49961 
 C                    0     0.68772   5.21689   5.5152 
 H                    0     0.2247    5.03311   6.48114 
 C                    0     0.39464   6.41062   4.82386 
 H                    0    -0.28168   7.13473   5.26939 
 C                    0     0.96912   6.68851   3.59482 
 H                    0     0.74036   7.6187    3.08103 
 C                    0     1.86304   5.75907   3.03626 
 C                    0     3.87308   8.44967   2.30042 
 O                    0     4.7113    8.24679   3.1699 
 N                    0     2.82152   9.29806   2.42565 
 H                    0     2.10946   9.34105   1.70213 
 C                    -1    2.42936   9.97153   3.66087 
 H                    0     2.4801    9.26502   4.498 
 C                    0     3.34748   11.16858   3.94143 
 H                    0     4.37555   10.79221   4.03849 
 H                    0     3.05912   11.64491   4.88292 
 O                    0     3.24083   12.14748   2.92871 
 H                    0     3.35406   11.69821   2.08026 
 C                    0     0.9529    10.44767   3.46393 
 O                    0     0.3529    10.16868   2.41216 
 N                    0     0.42046   11.14725   4.4658 
 H                    0     0.95894   11.382    5.34833 
 C                    -1   -0.8923    11.79487   4.40519 
 H                    0    -1.65175   11.05328   4.12147 
 C                    0    -1.23346   12.43319   5.74948 
 H                    0    -2.24687   12.8475   5.65094 
 H                    0    -1.28422   11.64624   6.51239 
 C                    0    -0.26628   13.5376   6.21187 
 H                    0    -0.80331   14.282    6.80755 
 H                    0     0.12765   14.06611   5.33097 
 C                    0     0.95234   13.06935   7.06919 
 O                    0     1.48308   11.95806   6.74175 
 O                    0     1.29906   13.82702   7.98245 
 H                    0    -0.88212   12.56194   3.61609 
 H                    0    -0.73505   12.33795  -0.05004 
 C                    -1   -0.95472   11.60345  -0.82904 
 H                    0    -0.9318    12.10666  -1.79993 
 C                    0     0.06472   10.46075  -0.78214 
 H                    0     0.04168   10.01173   0.21838 
 H                    0    -0.20592   9.67597  -1.49551 
 C                    0     1.49368   10.89564  -1.03176 
 O                    0     1.88233   12.04818  -0.92105 
 N                    0     2.33633   9.85592  -1.32954 
 H                    0     1.95462   8.99485  -1.71526 
 H                    0     3.26154   10.12034  -1.63681 
 C                    0    -2.34128   10.95194  -0.66633 
 O                    0    -2.75261   10.13471  -1.49301 
 N                    0    -3.05854   11.28133   0.4402 
 H                    0    -2.60121   11.87282   1.11921 
 C                    -1   -4.36191   10.71218   0.81812 
 H                    0    -4.46152   9.73935   0.32874 
 C                    0    -4.47128   10.61079   2.3337 
 H                    0    -4.27405   11.6029   2.76697 
 H                    0    -3.68633   9.94356   2.71395 
 C                    0    -5.84755   10.1288   2.81301 
 H                    0    -6.61214   10.65876   2.22429 
 C                    0    -6.04385   8.62433   2.59793 
 H                    0    -5.30103   8.05232   3.16816 
 H                    0    -7.03252   8.32196   2.96956 
 H                    0    -5.9676    8.34503   1.54147 
 C                    0    -6.0548    10.49402   4.28284 
 H                    0    -5.2818    10.02409   4.90242 
 H                    0    -5.99804   11.57846   4.43567 
 H                    0    -7.03001   10.14396   4.63961 
 H                    0    -5.16586   11.34902   0.42437 
 C                    0     2.17161  -1.91242  -0.26461 
 O                    0     2.90602  -2.39131  -1.16348 
 C                    0     2.18765  -0.5325    0.07176 
 C                    0     1.38432  -0.03379   1.05423 
 C                    0    -1.9081    1.9893    3.10298 
 C                    0    -3.03329   1.135     3.72355 
 C                    0    -3.40048   0.01872   2.74487 
 C                    0    -2.16888  -0.84348   2.42706 
 C                    0    -1.79093   3.17206   4.06392 
 C                    0    -3.26669   3.4588    4.42441 
 C                    0    -2.66231   0.53329   5.09178 
 H                    0    -2.31653   2.38096   2.15495 
 H                    0    -3.78025   0.4655    1.81442 
 H                    0    -4.20048  -0.61229   3.15141 
 H                    0    -1.86205  -1.4021    3.32343 
 H                    0    -2.45245  -1.5959    1.68054 
 H                    0    -1.28421   4.03623   3.63282 
 H                    0     2.94839   0.08476  -0.40155 
 H                    0    -1.20906   2.88678   4.94645 
 H                    0    -3.60459   4.37842   3.93613 
 H                    0    -3.41269   3.58475   5.50372 
 H                    0    -2.56703   1.29903   5.86601 
 H                    0    -3.45051  -0.15604   5.4122 
 H                    0    -1.715    -0.01403   5.05551 
 C                    0     1.29586  -2.84887   0.52 
 H                    0     1.87508  -3.16368   1.40064 
 H                    0     1.08886  -3.73389  -0.08985 
 C                    0     0.01439  -2.15835   0.95272 
 H                    0    -0.57323  -2.83497   1.58125 
 H                    0    -0.59476  -1.93575   0.06451 
 C                    0     0.29873  -0.8606    1.7073 
 H                    0     0.71198  -1.10458   2.70132 
 C                    0     1.60294   1.33232   1.58786 
 H                    0     2.21464   1.17518   2.50128 
 H                    0     2.23042   1.91746   0.90936 
 C                    0     0.32994   2.09418   1.9523 
 H                    0    -0.17421   2.44105   1.0396 
 H                    0     0.60389   2.98827   2.51614 
 C                    0    -4.0875    2.23687   3.9165 
 H                    0    -4.51873   2.47236   2.93257 
 C                    0    -0.9826   -0.01685   1.89928 
 H                    0    -1.28228   0.35286   0.90263 
 C                    0    -0.64548   1.22538   2.74653 
 H                    0    -0.14382   0.89871   3.67042 
 O                    0    -5.13028   1.81416   4.78656 
 H                    0    -5.62781   2.59626   5.05198 
 
 Stoichiometry    C295H470N56O65S6(2-)
 Framework group  C1[X(C295H470N56O65S6)]
 Deg. of freedom  2670
 Full point group                 C1      NOp   1
 Largest Abelian subgroup         C1      NOp   1
 Largest concise Abelian subgroup C1      NOp   1
                         Standard orientation:                         
 ---------------------------------------------------------------------
 Center     Atomic      Atomic             Coordinates (Angstroms)
 Number     Number       Type             X           Y           Z
 ---------------------------------------------------------------------
      1          1           0        2.694446   -8.330878   -7.772069
      2          6           0        2.637491   -7.961507   -6.739601
      3          1           0        2.542082   -8.833930   -6.088472
      4          6           0        3.911751   -7.177839   -6.388659
      5          1           0        4.761702   -7.866869   -6.458744
      6          1           0        4.101451   -6.391082   -7.129080
      7          6           0        3.822269   -6.568314   -5.013036
      8          6           0        3.769404   -7.371640   -3.870161
      9          1           0        3.878340   -8.450366   -3.961804
     10          6           0        3.571531   -6.815128   -2.614307
     11          1           0        3.525335   -7.436392   -1.724276
     12          6           0        3.420552   -5.433894   -2.490119
     13          8           0        3.165059   -4.927730   -1.253629
     14          1           0        3.061331   -3.922841   -1.264371
     15          6           0        3.509934   -4.611739   -3.609657
     16          1           0        3.432649   -3.534661   -3.513282
     17          6           0        3.706577   -5.189550   -4.856445
     18          1           0        3.774153   -4.543906   -5.727515
     19          6           0        1.312716   -7.196082   -6.582406
     20          8           0        0.370623   -7.688589   -5.953870
     21          7           0        1.213971   -5.999609   -7.200489
     22          1           0        2.017603   -5.646952   -7.700330
     23          6           0       -0.017445   -5.210837   -7.270159
     24          1           0       -0.554436   -5.347689   -6.327337
     25          6           0        0.257036   -3.725149   -7.523105
     26          1           0        0.849356   -3.645292   -8.447599
     27          6           0       -1.077437   -3.016205   -7.772618
     28          1           0       -0.929923   -1.938389   -7.895515
     29          1           0       -1.764254   -3.162531   -6.935729
     30          1           0       -1.578940   -3.398362   -8.668614
     31          6           0        1.072801   -3.057007   -6.399156
     32          1           0        2.113733   -3.393934   -6.456663
     33          1           0        1.101183   -1.977997   -6.589501
     34          6           0        0.551709   -3.303887   -4.984770
     35          1           0        1.095802   -2.681068   -4.269193
     36          1           0        0.688544   -4.349617   -4.687883
     37          1           0       -0.511716   -3.051508   -4.891416
     38          1           0       -0.659220   -5.612919   -8.065616
     39          1           0       -1.828232   -9.401422   -6.295964
     40          6           0       -1.988687  -10.011939   -5.399480
     41          1           0       -2.727661  -10.785294   -5.617854
     42          6           0       -0.645419  -10.611283   -4.953551
     43          1           0       -0.835133  -11.383346   -4.193351
     44          1           0       -0.056810   -9.817970   -4.478968
     45          6           0        0.204438  -11.197849   -6.083690
     46          1           0        0.419060  -10.373427   -6.777596
     47          6           0        1.534651  -11.704205   -5.520645
     48          1           0        2.204324  -12.044975   -6.318111
     49          1           0        1.370857  -12.549930   -4.839484
     50          1           0        2.050717  -10.918558   -4.955714
     51          6           0       -0.521041  -12.305974   -6.848978
     52          1           0        0.117690  -12.724690   -7.634795
     53          1           0       -0.800511  -13.124570   -6.172750
     54          1           0       -1.435800  -11.938116   -7.325614
     55          6           0       -2.562122   -9.141536   -4.267788
     56          8           0       -3.392542   -9.569380   -3.475708
     57          7           0       -2.063791   -7.869542   -4.177465
     58          1           0       -1.297295   -7.609981   -4.797425
     59          6           0       -2.526240   -6.899323   -3.173297
     60          1           0       -2.617823   -7.390959   -2.201559
     61          6           0       -1.507605   -5.735790   -3.117279
     62          1           0       -1.383053   -5.384198   -4.151537
     63          6           0       -1.983189   -4.539274   -2.290646
     64          1           0       -2.947112   -4.153508   -2.629507
     65          1           0       -2.087129   -4.804088   -1.233910
     66          1           0       -1.246517   -3.732137   -2.366729
     67          6           0       -0.145180   -6.225198   -2.612033
     68          1           0        0.567177   -5.395102   -2.575017
     69          1           0        0.289411   -6.998704   -3.253083
     70          1           0       -0.234072   -6.628221   -1.594008
     71          6           0       -3.955413   -6.399700   -3.508611
     72          8           0       -4.709205   -6.046380   -2.607923
     73          7           0       -4.294254   -6.312771   -4.827394
     74          1           0       -3.698831   -6.790977   -5.488378
     75          6           0       -5.671048   -5.992029   -5.211902
     76          1           0       -5.949855   -5.112760   -4.620369
     77          6           0       -5.926401   -5.698420   -6.685368
     78          1           0       -5.310682   -4.871240   -7.051508
     79          1           0       -5.755549   -6.591840   -7.294816
     80          6           0       -7.409909   -5.303488   -6.753966
     81          8           0       -7.709989   -4.087346   -6.704206
     82          8           0       -8.265575   -6.247820   -6.754970
     83          1           0       -6.330764   -6.809513   -4.893271
     84          1           0       -5.167846   -9.956681   -1.783063
     85          6           0       -5.945463   -9.595714   -1.106645
     86          1           0       -6.038712   -8.514894   -1.241550
     87          1           0       -6.898193  -10.079883   -1.337539
     88          1           0       -5.674280   -9.810251   -0.067882
     89          1           0        1.921269  -12.391517   -2.205070
     90          6           0        2.399253  -11.876831   -1.364880
     91          1           0        3.141395  -11.181694   -1.776258
     92          6           0        1.367257  -11.117353   -0.521450
     93          1           0        0.641461  -11.865201   -0.149874
     94          6           0        2.030573  -10.441097    0.683837
     95          1           0        2.737876   -9.669386    0.357297
     96          1           0        2.589094  -11.163948    1.289548
     97          1           0        1.310538   -9.939195    1.342103
     98          6           0        0.588212  -10.118891   -1.389724
     99          1           0        1.264385   -9.317460   -1.717290
    100          1           0        0.253559  -10.629483   -2.298437
    101          6           0       -0.632548   -9.498350   -0.712987
    102          1           0       -1.201568   -8.885922   -1.416726
    103          1           0       -1.321453  -10.287779   -0.370575
    104          1           0       -0.340804   -8.855518    0.129636
    105          1           0        2.936063  -12.620062   -0.765397
    106          1           0        8.365036  -11.832957   -1.132692
    107          6           0        9.146524  -11.943768   -0.373036
    108          1           0       10.012741  -11.363950   -0.707314
    109          6           0        8.650559  -11.445615    0.988733
    110          1           0        7.826274  -12.082200    1.334061
    111          1           0        9.454438  -11.541844    1.728803
    112          6           0        8.191305  -10.012952    0.897202
    113          6           0        6.856751   -9.699287    0.650435
    114          1           0        6.117294  -10.497439    0.607198
    115          6           0        6.451399   -8.388516    0.421708
    116          1           0        5.413890   -8.162178    0.199359
    117          6           0        7.391287   -7.356103    0.448566
    118          8           0        7.060497   -6.065393    0.202749
    119          1           0        6.112004   -5.951511    0.381821
    120          6           0        8.728888   -7.650380    0.715399
    121          1           0        9.447831   -6.839122    0.750795
    122          6           0        9.114191   -8.963693    0.934573
    123          1           0       10.161870   -9.181013    1.131675
    124          1           0        9.440953  -12.999036   -0.331723
    125          1           0       10.382649   -4.650343    5.007413
    126          6           0        9.771778   -3.897818    4.497017
    127          1           0       10.196244   -3.705709    3.504670
    128          6           0        8.316509   -4.390269    4.372390
    129          1           0        7.977649   -4.650184    5.383293
    130          6           0        7.412745   -3.274580    3.840901
    131          1           0        6.404975   -3.646412    3.623546
    132          1           0        7.309986   -2.471971    4.575805
    133          1           0        7.824677   -2.832547    2.924389
    134          6           0        8.229519   -5.632769    3.488104
    135          1           0        8.907015   -6.426450    3.826166
    136          1           0        7.209366   -6.040238    3.477582
    137          1           0        8.486549   -5.388062    2.451844
    138          6           0        9.775845   -2.617191    5.351243
    139          8           0        9.461962   -2.660483    6.539136
    140          7           0       10.059043   -1.468331    4.690163
    141          1           0       10.266752   -1.506244    3.694040
    142          6           0        9.900810   -0.137712    5.266249
    143          1           0        9.880757   -0.258497    6.352500
    144          6           0       11.012853    0.820730    4.816501
    145          1           0       10.885162    1.015873    3.749365
    146          1           0       10.848990    1.777716    5.330395
    147          6           0       12.454273    0.361194    5.016922
    148          1           0       12.562977   -0.654702    4.614987
    149          1           0       12.735895    0.337357    6.074334
    150          6           0       13.436856    1.281876    4.243837
    151          8           0       13.078200    1.549006    3.049281
    152          8           0       14.460781    1.679383    4.817835
    153          6           0        8.564800    0.428563    4.747043
    154          8           0        8.446360    0.719189    3.553082
    155          7           0        7.546172    0.567652    5.616324
    156          1           0        7.640439    0.252237    6.571383
    157          6           0        6.230978    1.005389    5.160166
    158          1           0        6.411735    1.687018    4.329632
    159          6           0        5.431903   -0.203471    4.639235
    160          1           0        5.264816   -0.901095    5.468359
    161          1           0        6.057535   -0.721028    3.903730
    162          6           0        4.083327    0.095648    3.959033
    163          8           0        3.728006    1.303100    3.894274
    164          8           0        3.443671   -0.886947    3.505638
    165          6           0        5.494106    1.704373    6.306261
    166          8           0        5.182583    1.047163    7.299353
    167          7           0        5.189582    3.016905    6.180732
    168          6           0        4.559858    3.716311    7.301215
    169          1           0        3.479111    3.524735    7.293862
    170          1           0        4.964000    3.337504    8.242735
    171          6           0        4.875597    5.192878    7.051067
    172          1           0        4.091115    5.854749    7.427053
    173          1           0        5.819908    5.452801    7.537984
    174          6           0        5.029474    5.277222    5.529674
    175          1           0        5.617337    6.133909    5.193030
    176          1           0        4.053579    5.340127    5.046375
    177          6           0        5.701383    3.941463    5.171086
    178          1           0        5.438715    3.620007    4.160257
    179          6           0        7.239215    4.083632    5.325561
    180          8           0        7.787617    3.889857    6.404965
    181          7           0        7.904557    4.500793    4.224232
    182          1           0        7.432616    4.473900    3.325704
    183          6           0        9.343868    4.711222    4.262582
    184          1           0        9.849202    3.769976    4.513899
    185          6           0        9.903798    5.249390    2.945314
    186          1           0        9.366561    6.159507    2.651653
    187          1           0        9.759104    4.514316    2.142823
    188          6           0       11.374263    5.546633    3.131396
    189          6           0       12.288948    4.501458    3.272009
    190          1           0       11.978240    3.463308    3.181261
    191          6           0       13.632695    4.750174    3.544160
    192          1           0       14.294959    3.903128    3.713804
    193          6           0       14.086395    6.064408    3.639827
    194          1           0       15.133539    6.267411    3.848998
    195          6           0       13.185815    7.120760    3.487204
    196          1           0       13.528555    8.149330    3.572946
    197          6           0       11.836349    6.858885    3.255309
    198          1           0       11.133439    7.683154    3.158455
    199          1           0        9.572919    5.410670    5.074166
    200          1           0        1.492782   -7.753192    9.149049
    201          6           0        1.644725   -6.810228    8.612264
    202          1           0        1.401600   -5.999773    9.302285
    203          6           0        3.086066   -6.677727    8.083937
    204          1           0        3.413897   -7.632284    7.650182
    205          1           0        3.742548   -6.510254    8.946189
    206          6           0        3.262561   -5.572891    7.058166
    207          6           0        2.814748   -4.270415    7.306611
    208          1           0        2.349749   -4.026973    8.260100
    209          6           0        2.981395   -3.269678    6.353539
    210          1           0        2.653502   -2.255413    6.560799
    211          6           0        3.589130   -3.545340    5.128083
    212          1           0        3.708481   -2.736067    4.401934
    213          6           0        4.033797   -4.839569    4.876721
    214          1           0        4.518662   -5.071996    3.932975
    215          6           0        3.874608   -5.841026    5.832997
    216          1           0        4.253942   -6.841482    5.629140
    217          6           0        0.571582   -6.744408    7.529333
    218          8           0       -0.488426   -6.141832    7.703448
    219          7           0        0.757206   -7.483895    6.392405
    220          1           0        1.719849   -7.674825    6.139128
    221          6           0       -0.181671   -7.457497    5.270809
    222          1           0       -0.337761   -6.438378    4.900774
    223          6           0        0.355044   -8.362411    4.137604
    224          1           0        0.687881   -9.307565    4.588432
    225          1           0       -0.497397   -8.588054    3.499177
    226          6           0        1.426113   -7.766608    3.264897
    227          6           0        2.781550   -8.050266    3.431831
    228          1           0        3.100293   -8.729667    4.220676
    229          6           0        3.744487   -7.487220    2.603007
    230          1           0        4.800601   -7.697142    2.740380
    231          6           0        3.351420   -6.625862    1.576330
    232          8           0        4.299913   -6.057650    0.807641
    233          1           0        3.887201   -5.552880    0.059327
    234          6           0        1.990367   -6.374693    1.361569
    235          1           0        1.687792   -5.743256    0.534554
    236          6           0        1.048713   -6.931953    2.209600
    237          1           0       -0.005801   -6.710700    2.045699
    238          6           0       -1.568907   -8.003650    5.635584
    239          8           0       -2.518075   -7.806517    4.859312
    240          7           0       -1.698144   -8.811955    6.707239
    241          1           0       -0.902544   -8.904261    7.328907
    242          6           0       -2.996312   -9.303873    7.172180
    243          1           0       -3.683057   -9.220194    6.324735
    244          6           0       -2.919116  -10.760585    7.619335
    245          1           0       -1.999501  -10.916317    8.197065
    246          1           0       -3.756400  -10.936572    8.300965
    247          6           0       -3.024417  -11.789275    6.481227
    248          1           0       -2.906598  -12.784234    6.922705
    249          1           0       -4.035593  -11.762906    6.056500
    250          6           0       -2.020358  -11.697132    5.320160
    251          1           0       -1.010486  -11.478140    5.690728
    252          1           0       -2.002404  -12.670933    4.818634
    253          7           0       -2.419378  -10.692369    4.334906
    254          1           0       -2.928475   -9.878899    4.664834
    255          6           0       -1.958469  -10.571553    3.090869
    256          7           0       -1.146293  -11.485243    2.548699
    257          1           0       -0.816976  -12.276965    3.075266
    258          1           0       -0.737556  -11.333349    1.636139
    259          7           0       -2.347053   -9.521270    2.363140
    260          1           0       -2.725206   -8.706144    2.837670
    261          1           0       -1.972297   -9.371365    1.435624
    262          6           0       -3.699396   -8.351313    8.187191
    263          8           0       -4.859765   -8.593368    8.487322
    264          7           0       -2.993366   -7.275584    8.577661
    265          1           0       -2.016666   -7.209258    8.321841
    266          6           0       -3.548064   -6.076832    9.205103
    267          1           0       -4.475226   -6.357468    9.708815
    268          6           0       -2.546110   -5.491054   10.196674
    269          1           0       -3.008979   -4.617397   10.664825
    270          1           0       -1.655299   -5.137059    9.667454
    271          6           0       -2.154488   -6.519624   11.285676
    272          1           0       -2.090776   -6.017170   12.255709
    273          1           0       -2.932451   -7.284752   11.371228
    274          6           0       -0.843957   -7.245567   10.998435
    275          8           0       -0.726257   -8.139396   10.165756
    276          7           0        0.210830   -6.822262   11.739696
    277          1           0        0.139122   -6.075848   12.411751
    278          1           0        1.114889   -7.244685   11.592230
    279          6           0       -3.982517   -5.124598    8.046712
    280          8           0       -5.141667   -4.748656    7.944782
    281          7           0       -3.030532   -4.806727    7.122209
    282          1           0       -2.078966   -5.128006    7.262107
    283          6           0       -3.259742   -3.773254    6.120147
    284          1           0       -2.299934   -3.547849    5.646047
    285          1           0       -3.626533   -2.854987    6.585336
    286          6           0       -4.271848   -4.084644    5.007950
    287          8           0       -4.910994   -3.172096    4.512962
    288          7           0       -4.382028   -5.378787    4.574194
    289          1           0       -3.754664   -6.088840    4.935293
    290          6           0       -5.306973   -5.729331    3.506598
    291          1           0       -5.675642   -4.779618    3.110414
    292          6           0       -4.689688   -6.552517    2.370095
    293          1           0       -4.536137   -7.583946    2.721334
    294          1           0       -5.446692   -6.623500    1.581823
    295          6           0       -3.379238   -6.010484    1.784765
    296          1           0       -2.588857   -6.161552    2.536708
    297          6           0       -3.035936   -6.800244    0.513401
    298          1           0       -1.988192   -6.655911    0.222395
    299          1           0       -3.223312   -7.875990    0.621467
    300          1           0       -3.661925   -6.471850   -0.325409
    301          6           0       -3.446995   -4.517654    1.454003
    302          1           0       -4.242381   -4.333456    0.722131
    303          1           0       -3.637008   -3.893554    2.332177
    304          1           0       -2.506770   -4.178678    1.005735
    305          6           0       -6.554532   -6.495654    4.039393
    306          8           0       -7.372091   -6.978652    3.260771
    307          7           0       -6.690565   -6.630828    5.389993
    308          1           0       -6.039257   -6.149486    5.999019
    309          6           0       -7.637143   -7.570929    5.980020
    310          1           0       -7.599281   -8.519712    5.437702
    311          1           0       -7.334255   -7.756637    7.012831
    312          6           0       -9.126935   -7.168809    5.986850
    313          8           0       -9.961569   -7.978820    6.352800
    314          7           0       -9.464390   -5.917075    5.553795
    315          1           0       -8.724256   -5.283716    5.288171
    316          6           0      -10.847914   -5.466982    5.510980
    317          1           0      -10.880524   -4.376762    5.544424
    318          1           0      -11.386446   -5.856922    6.378917
    319          6           0      -11.641935   -5.909621    4.268622
    320          8           0      -12.780585   -5.473654    4.108292
    321          7           0      -11.055342   -6.726009    3.353967
    322          1           0      -10.076131   -6.964935    3.464472
    323          6           0      -11.757471   -7.163035    2.145835
    324          1           0      -11.213089   -7.989479    1.691140
    325          1           0      -12.765048   -7.497985    2.411151
    326          6           0      -11.895917   -6.066124    1.072596
    327          8           0      -12.026173   -6.437138   -0.099658
    328          7           0      -11.860832   -4.767182    1.463359
    329          1           0      -12.040309   -4.599319    2.448433
    330          6           0      -12.054203   -3.652113    0.540481
    331          1           0      -11.988989   -4.149088   -0.422907
    332          6           0      -13.429755   -2.995360    0.581131
    333          1           0      -13.918237   -3.190269    1.540924
    334          1           0      -13.310532   -1.914256    0.472508
    335          6           0      -14.274112   -3.558619   -0.575065
    336          1           0      -15.283984   -3.140629   -0.527754
    337          1           0      -14.384562   -4.642953   -0.438053
[...]
 ,-11.641935,-5.909621,4.268622\O,0,-12.780585,-5.473654,4.108292\N,0,-
 11.055342,-6.726009,3.353967\H,0,-10.076131,-6.964935,3.464472\C,-1,-1
 1.757471,-7.163035,2.145835\H,0,-11.213089,-7.989479,1.69114\H,0,-12.7
 65048,-7.497985,2.411151\C,0,-11.895917,-6.066124,1.072596\O,0,-12.026
 173,-6.437138,-0.099658\N,0,-11.860832,-4.767182,1.463359\H,0,-12.0403
 09,-4.599319,2.448433\C,-1,-12.054203,-3.652113,0.540481\H,0,-11.98898
 9,-4.149088,-0.422907\C,0,-13.429755,-2.99536,0.581131\H,0,-13.918237,
 -3.190269,1.540924\H,0,-13.310532,-1.914256,0.472508\C,0,-14.274112,-3
 .558619,-0.575065\H,0,-15.283984,-3.140629,-0.527754\H,0,-14.384562,-4
 .642953,-0.438053\C,0,-13.655308,-3.25516,-1.967849\H,0,-12.796158,-2.
 579919,-1.860198\H,0,-14.382568,-2.695344,-2.564988\C,0,-13.260638,-4.
 453198,-2.839786\H,0,-13.1433,-4.141716,-3.879396\H,0,-14.025425,-5.23
 3606,-2.807626\N,0,-11.968676,-5.11893,-2.462951\H,0,-11.635486,-5.716
 408,-3.22854\H,0,-12.051811,-5.690504,-1.585375\H,0,-11.175848,-4.4688
 86,-2.289478\C,0,-10.837421,-2.676438,0.333164\O,0,-11.080124,-1.56364
 1,-0.106241\N,0,-9.570996,-3.180091,0.429587\H,0,-9.486861,-4.163728,0
 .650136\C,-1,-8.450306,-2.588759,-0.348887\H,0,-8.570751,-1.500931,-0.
 283284\C,0,-7.068604,-2.974786,0.207092\H,0,-6.91749,-4.056399,0.07264
 9\C,0,-5.962833,-2.22051,-0.543312\H,0,-5.852325,-2.547068,-1.579295\H
 ,0,-6.16364,-1.142014,-0.548166\H,0,-5.002801,-2.369662,-0.040797\C,0,
 -7.012434,-2.636697,1.701043\H,0,-7.236159,-1.576032,1.864098\H,0,-7.7
 27232,-3.223301,2.287174\H,0,-6.011799,-2.816968,2.10401\C,0,-8.715058
 ,-2.960433,-1.842852\O,0,-9.367334,-3.990246,-2.15722\N,0,-8.233119,-2
 .112956,-2.739805\H,0,-7.839713,-1.236929,-2.392341\C,-1,-8.060509,-2.
 306339,-4.179029\H,0,-8.181921,-3.349933,-4.454634\C,0,-8.933344,-1.34
 8564,-5.030094\H,0,-8.932934,-1.746374,-6.050465\H,0,-8.432266,-0.3754
 9,-5.076297\C,0,-10.344416,-1.085546,-4.525792\H,0,-10.827429,-0.36762
 5,-5.199476\H,0,-10.304785,-0.606747,-3.539932\C,0,-11.198945,-2.33881
 7,-4.395136\H,0,-10.811501,-2.949762,-3.581296\H,0,-12.228535,-2.06253
 1,-4.148024\N,0,-11.228473,-3.152911,-5.61321\H,0,-11.524042,-2.658176
 ,-6.444332\C,0,-10.585619,-4.309414,-5.834908\N,0,-10.057838,-5.045231
 ,-4.825592\H,0,-9.7075,-4.558374,-3.993979\H,0,-9.383262,-5.72873,-5.1
 98939\N,0,-10.562268,-4.85521,-7.050851\H,0,-10.756073,-4.25075,-7.836
 437\H,0,-9.738347,-5.500648,-7.170457\C,0,-6.607712,-1.807316,-4.45634
 8\O,0,-6.122906,-0.982751,-3.672107\N,0,-6.00447,-2.205112,-5.578773\H
 ,0,-6.462603,-2.90182,-6.185907\C,-1,-4.681188,-1.677579,-5.905882\H,0
 ,-4.64575,-0.632881,-5.584443\C,0,-3.595707,-2.450185,-5.150532\H,0,-2
 .61865,-1.981424,-5.302855\H,0,-3.559137,-3.496357,-5.474955\H,0,-3.82
 161,-2.422051,-4.081146\C,0,-4.461124,-1.746669,-7.430431\O,0,-4.76905
 4,-2.748164,-8.0714\N,0,-3.872686,-0.658017,-7.990719\H,0,-3.724178,0.
 164943,-7.404725\C,-1,-3.657565,-0.54435,-9.439392\H,0,-3.305617,-1.51
 2284,-9.807208\C,0,-4.929936,-0.155538,-10.188142\H,0,-5.664958,-0.957
 366,-10.085013\H,0,-4.695494,-0.019225,-11.24766\S,0,-5.601752,1.40610
 3,-9.498641\H,0,-6.325723,1.749907,-10.575841\H,0,-2.873853,0.201594,-
 9.597538\H,0,7.329282,1.544188,-8.739967\C,-1,6.485092,1.30267,-9.3954
 76\H,0,6.747383,1.596696,-10.416782\C,0,6.1569,-0.190934,-9.322663\H,0
 ,7.010636,-0.771912,-9.689579\H,0,5.313301,-0.418568,-9.987578\C,0,5.8
 33143,-0.656452,-7.900307\H,0,4.954644,-0.128537,-7.508788\H,0,6.68263
 8,-0.447145,-7.23912\S,0,5.515484,-2.462854,-7.883423\C,0,6.160267,-2.
 937672,-6.253828\H,0,7.135929,-2.474306,-6.081059\H,0,5.477227,-2.6737
 34,-5.441661\H,0,6.300791,-4.021403,-6.260244\H,0,5.630535,1.913708,-9
 .080272\H,0,1.487861,3.301577,-7.811216\C,-1,0.493312,2.874233,-7.9600
 9\H,0,0.197992,3.059116,-9.000807\C,0,0.517953,1.358957,-7.691372\H,0,
 -0.469021,0.913463,-7.875488\H,0,1.192007,0.900339,-8.426218\C,0,0.981
 374,0.998083,-6.296976\C,0,0.116071,0.421759,-5.364412\H,0,-0.928321,0
 .258293,-5.626498\C,0,0.573576,0.084796,-4.089825\H,0,-0.107539,-0.368
 952,-3.375739\C,0,1.892456,0.337526,-3.726415\H,0,2.249809,0.095001,-2
 .730739\C,0,2.752408,0.940325,-4.641525\H,0,3.765503,1.191754,-4.34303
 9\C,0,2.30037,1.259109,-5.915053\H,0,2.969996,1.758642,-6.610189\C,0,-
 0.436003,3.677633,-7.046715\O,0,-0.071969,4.697492,-6.477704\N,0,-1.69
 9616,3.202537,-6.960238\H,0,-1.938113,2.324879,-7.397107\C,-1,-2.72756
 7,3.743997,-6.095857\H,0,-2.272967,4.451131,-5.398941\C,0,-3.820028,4.
 447108,-6.908196\H,0,-3.380071,5.378942,-7.274018\H,0,-4.076184,3.8195
 86,-7.772237\C,0,-5.082621,4.72335,-6.094964\H,0,-5.605477,3.782151,-5
 .890018\H,0,-4.823037,5.159667,-5.123103\C,0,-6.048592,5.656908,-6.806
 85\H,0,-7.045311,5.565377,-6.365398\H,0,-6.140588,5.378878,-7.86686\N,
 0,-5.5695,7.026823,-6.691548\H,0,-4.546189,7.189265,-6.520191\C,0,-6.3
 58343,8.086223,-6.666441\N,0,-7.695487,7.962127,-6.794927\H,0,-8.18651
 7,7.072109,-6.603234\H,0,-8.252472,8.790057,-6.659387\N,0,-5.789845,9.
 30342,-6.577454\H,0,-4.766798,9.383087,-6.360088\H,0,-6.365985,10.0725
 03,-6.27543\C,0,-3.332073,2.552401,-5.334627\O,0,-3.510103,1.464594,-5
 .91187\N,0,-3.687246,2.786825,-4.06284\H,0,-3.510635,3.718341,-3.67594
 2\C,-1,-4.541526,1.898585,-3.29616\H,0,-4.806381,1.064235,-3.949685\C,
 0,-3.844588,1.303446,-2.051304\H,0,-4.60513,0.700057,-1.537413\C,0,-2.
 710145,0.383877,-2.501936\H,0,-1.947127,0.960904,-3.035251\H,0,-3.0776
 7,-0.401722,-3.17043\H,0,-2.231918,-0.089907,-1.635827\C,0,-3.325495,2
 .367614,-1.086383\H,0,-2.594926,3.02356,-1.573843\H,0,-2.835801,1.8964
 64,-0.22641\H,0,-4.134669,2.99137,-0.70113\C,0,-5.830433,2.666608,-2.9
 4718\O,0,-5.795542,3.875703,-2.718042\N,0,-6.976747,1.954757,-2.918463
 \H,0,-6.929946,0.953751,-3.075943\C,-1,-8.25637,2.558884,-2.554503\H,0
 ,-8.01282,3.530357,-2.120076\C,0,-9.17805,2.825781,-3.753707\H,0,-10.1
 06818,3.264287,-3.373879\H,0,-9.455708,1.885228,-4.247208\C,0,-8.53757
 ,3.797932,-4.751288\H,0,-7.809773,3.262391,-5.376992\H,0,-7.961131,4.5
 56542,-4.213372\C,0,-9.551756,4.503286,-5.694869\O,0,-10.610108,3.9011
 34,-5.929472\O,0,-9.179864,5.629802,-6.150924\C,0,-8.90899,1.713283,-1
 .442842\O,0,-8.7771,0.479833,-1.428607\N,0,-9.601608,2.399642,-0.50381
 3\H,0,-9.745256,3.402958,-0.634648\C,-1,-10.112935,1.789148,0.727132\H
 ,0,-10.766601,0.950857,0.448276\C,0,-8.9774,1.19398,1.583889\H,0,-8.52
 4799,0.39106,0.99616\H,0,-9.429566,0.69972,2.454039\C,0,-7.872662,2.15
 6636,2.052532\H,0,-8.278139,3.146476,2.288038\H,0,-7.412927,1.770525,2
 .967811\S,0,-6.510985,2.376018,0.841971\C,0,-6.627047,4.146211,0.46371
 9\H,0,-7.63511,4.412017,0.136642\H,0,-6.347201,4.756632,1.326349\H,0,-
 5.933514,4.344841,-0.355914\C,0,-11.049089,2.797383,1.459894\O,0,-11.7
 74187,3.545875,0.825634\N,0,-11.101226,2.701583,2.827305\H,0,-10.32801
 5,2.288449,3.331643\C,-1,-11.961765,3.527706,3.677005\H,0,-12.428771,4
 .274802,3.024905\C,0,-13.057372,2.677365,4.357392\H,0,-12.544001,1.956
 21,5.008221\C,0,-13.984379,3.537969,5.220135\H,0,-14.481019,4.303201,4
 .608811\H,0,-14.766851,2.919277,5.67187\H,0,-13.445993,4.043519,6.0266
 95\C,0,-13.858787,1.907432,3.305651\H,0,-14.338159,2.597138,2.601074\H
 ,0,-13.214869,1.237378,2.729844\H,0,-14.640924,1.307697,3.784604\C,0,-
 11.030549,4.200937,4.713698\O,0,-10.063063,3.580292,5.14012\N,0,-11.36
 759,5.446099,5.14072\H,0,-12.103615,5.924816,4.643256\C,-1,-10.537659,
 6.224006,6.063817\H,0,-9.696277,5.576092,6.312428\C,0,-10.040465,7.554
 6,5.47925\H,0,-9.923204,7.420411,4.398165\H,0,-10.78649,8.344181,5.629
 658\C,0,-8.721599,7.955483,6.06476\C,0,-8.404273,9.058351,6.805123\H,0
 ,-9.037656,9.868482,7.140194\N,0,-7.06131,9.04727,7.119824\H,0,-6.5573
 26,9.824833,7.512866\C,0,-6.472728,7.950007,6.533454\C,0,-5.131789,7.5
 57231,6.483775\H,0,-4.350924,8.144561,6.957642\C,0,-4.831922,6.398775,
 5.787635\H,0,-3.798753,6.074833,5.708788\C,0,-5.846632,5.63173,5.18434
 3\H,0,-5.581457,4.726399,4.650039\C,0,-7.17169,6.018537,5.242125\H,0,-
 7.945407,5.38978,4.810393\C,0,-7.494966,7.218566,5.893439\H,0,-11.0924
 45,6.400414,6.992963\H,0,-11.351149,6.554851,0.26108\C,-1,-10.499672,7
 .218934,0.092038\H,0,-10.862921,8.15474,-0.348074\C,0,-9.774236,7.5265
 47,1.402894\H,0,-8.881108,8.132629,1.226391\H,0,-10.431116,8.081142,2.
 079816\S,0,-9.248619,5.962433,2.193246\H,0,-8.17176,6.455565,2.825493\
 C,0,-9.56612,6.497755,-0.899828\O,0,-9.722334,5.314063,-1.19531\N,0,-8
 .568813,7.256982,-1.401314\H,0,-8.372318,8.166378,-1.000837\C,-1,-7.49
 0183,6.746569,-2.2292\H,0,-7.534773,5.655716,-2.206839\C,0,-7.585955,7
 .230001,-3.673684\H,0,-7.574032,8.325636,-3.708441\H,0,-8.487507,6.851
 285,-4.162749\H,0,-6.721822,6.864574,-4.235918\C,0,-6.156713,7.21411,-
 1.603572\O,0,-6.14229,8.195523,-0.858384\N,0,-5.067694,6.520085,-1.986
 417\H,0,-5.194147,5.630549,-2.464633\C,-1,-3.708676,6.838823,-1.556638
 \H,0,-3.679492,7.91433,-1.357343\C,0,-3.324942,6.046717,-0.304078\H,0,
 -3.377944,4.985341,-0.56418\H,0,-4.093474,6.23491,0.458108\C,0,-1.9415
 33,6.371178,0.276376\H,0,-1.211074,6.417047,-0.543337\C,0,-1.936686,7.
 723805,0.990794\H,0,-2.227399,8.532143,0.315172\H,0,-2.642428,7.714007
 ,1.83317\H,0,-0.948474,7.968185,1.391957\C,0,-1.523564,5.246502,1.2194
 89\H,0,-1.496561,4.284114,0.695262\H,0,-2.245894,5.160784,2.041819\H,0
 ,-0.535863,5.423876,1.656465\C,0,-2.757506,6.492092,-2.704918\O,0,-2.7
 56463,5.351979,-3.190025\N,0,-1.922506,7.463446,-3.094264\H,0,-2.00408
 4,8.378308,-2.652919\C,-1,-0.958296,7.294331,-4.179917\H,0,-1.284007,6
 .421664,-4.747575\C,0,-1.070542,8.481561,-5.130665\H,0,-0.897149,9.434
 452,-4.621942\H,0,-0.326735,8.373327,-5.928683\C,0,-2.489893,8.471098,
 -5.766109\O,0,-2.926514,7.337836,-6.113256\O,0,-3.089772,9.562716,-5.8
 79646\C,0,0.42612,6.964033,-3.529767\O,0,0.841969,7.63157,-2.58166\N,0
 ,1.063883,5.859068,-3.996835\H,0,0.679172,5.374756,-4.807564\C,-1,2.17
 2173,5.179666,-3.308078\H,0,2.600077,5.888158,-2.59122\C,0,1.669441,3.
 912631,-2.565366\H,0,1.295194,3.227406,-3.338728\C,0,2.808745,3.220127
 ,-1.810644\H,0,2.41811,2.349893,-1.272932\H,0,3.605885,2.860411,-2.466
 023\H,0,3.255008,3.900118,-1.074258\C,0,0.521347,4.235627,-1.606681\H,
 0,0.177281,3.312742,-1.124307\H,0,-0.335104,4.676242,-2.12632\H,0,0.84
 3782,4.922262,-0.814744\C,0,3.230639,4.747301,-4.34786\O,0,2.8844,4.27
 1003,-5.422877\N,0,4.543982,4.849659,-3.984445\H,0,4.804012,5.291223,-
 3.100604\C,-1,5.607387,4.317597,-4.836704\H,0,5.092947,3.85635,-5.6862
 25\C,0,6.563649,5.408275,-5.355349\H,0,7.002513,5.898629,-4.475961\C,0
 ,7.693984,4.770582,-6.169824\H,0,8.39214,5.52917,-6.534368\H,0,8.27583
 2,4.059531,-5.574093\H,0,7.292527,4.236639,-7.041624\C,0,5.782024,6.45
 7872,-6.155224\H,0,4.925361,6.78354,-5.556358\H,0,5.365912,5.986919,-7
 .056709\C,0,6.60971,7.683068,-6.540898\H,0,7.06087,8.143302,-5.654189\
 H,0,5.979599,8.437071,-7.023746\H,0,7.418357,7.434369,-7.236779\C,0,6.
 38645,3.2671,-4.045013\O,0,7.02276,3.585224,-3.04677\N,0,6.350213,1.98
 921,-4.49966\H,0,5.993496,1.815603,-5.429082\C,-1,7.148386,0.948098,-3
 .875979\H,0,7.375395,1.284857,-2.862315\C,0,6.431127,-0.386107,-3.8306
 47\H,0,6.006318,-0.627466,-4.810673\H,0,7.149664,-1.181732,-3.602054\C
 ,0,5.335263,-0.473299,-2.802077\O,0,4.927206,0.436933,-2.114359\O,0,4.
 843283,-1.710639,-2.764394\H,0,4.129342,-1.750656,-2.079061\C,0,8.4633
 48,0.734318,-4.665736\O,0,8.433825,0.467405,-5.869307\N,0,9.587485,0.8
 18055,-3.928909\H,0,9.491861,0.967697,-2.919072\C,-1,10.91731,0.442107
 ,-4.399601\H,0,10.920368,0.49823,-5.492986\C,0,11.979729,1.379044,-3.7
 8275\H,0,11.898999,1.287407,-2.693248\C,0,13.402691,0.971555,-4.162982
 \H,0,14.100091,1.618199,-3.625526\H,0,13.569722,1.072385,-5.24485\H,0,
 13.628279,-0.060929,-3.873973\C,0,11.711973,2.83676,-4.15101\H,0,10.70
 4591,3.147861,-3.859406\H,0,11.818833,2.996257,-5.232383\H,0,12.430645
 ,3.475368,-3.629926\C,0,11.160249,-0.995174,-3.906085\O,0,10.845812,-1
 .325025,-2.764905\N,0,11.745922,-1.876491,-4.747822\H,0,11.974736,-1.5
 71952,-5.681562\C,-1,12.108735,-3.228677,-4.337038\H,0,12.198706,-3.22
 4212,-3.248775\C,0,11.098813,-4.28726,-4.797943\H,0,11.5402,-5.278604,
 -4.637441\H,0,10.940584,-4.182932,-5.879209\C,0,9.758998,-4.203813,-4.
 068569\H,0,9.329556,-3.201249,-4.16182\H,0,9.900808,-4.410308,-3.00206
 3\S,0,8.594105,-5.423962,-4.762442\C,0,7.195808,-5.219109,-3.625415\H,
 0,6.820121,-4.190976,-3.631312\H,0,6.397612,-5.880921,-3.971742\H,0,7.
 46477,-5.503883,-2.60359\H,0,13.094453,-3.454872,-4.756686\H,0,11.7027
 69,-10.5737,-2.941344\C,-1,11.791895,-9.483733,-2.857465\H,0,12.100647
 ,-9.097141,-3.837361\C,0,10.467865,-8.850905,-2.419216\H,0,10.181289,-
 9.291937,-1.455746\C,0,10.63254,-7.34506,-2.203338\H,0,11.385176,-7.13
 7066,-1.433614\H,0,9.695278,-6.876838,-1.88602\H,0,10.947854,-6.856585
 ,-3.132641\C,0,9.352463,-9.176023,-3.423633\H,0,9.407899,-10.245827,-3
 .672298\H,0,9.540576,-8.625209,-4.355397\C,0,7.946405,-8.861131,-2.917
 065\H,0,7.723558,-9.422699,-2.002991\H,0,7.827911,-7.799434,-2.685093\
 H,0,7.191053,-9.116402,-3.669735\H,0,12.594732,-9.262808,-2.144518\H,0
 ,11.550884,-3.759387,0.51366\C,-1,10.852651,-3.117808,-0.029314\H,0,11
 .237786,-2.930703,-1.036631\C,0,9.476921,-3.804151,-0.124333\H,0,9.616
 255,-4.778979,-0.612267\H,0,9.099575,-4.012619,0.882492\C,0,8.421773,-
 3.02101,-0.924238\H,0,8.904406,-2.46317,-1.733649\H,0,7.714292,-3.7169
 74,-1.3805\S,0,7.422332,-1.80018,-0.004775\C,0,6.063512,-2.85828,0.565
 234\H,0,6.443829,-3.710514,1.134293\H,0,5.459532,-3.20952,-0.279281\H,
 0,5.435437,-2.254057,1.228251\C,0,10.747926,-1.811273,0.765148\O,0,10.
 792074,-1.856422,1.992769\N,0,10.563251,-0.678966,0.053893\H,0,10.5705
 39,-0.735717,-0.960722\C,-1,10.356704,0.648286,0.634467\H,0,10.289195,
 0.522233,1.71565\C,0,11.467019,1.633379,0.242238\H,0,11.201719,2.09735
 9,-0.713687\H,0,11.498601,2.428107,0.994164\C,0,12.858235,1.009026,0.1
 14218\H,0,13.120391,0.520899,1.055916\H,0,12.883312,0.290099,-0.710513
 \C,0,13.79926,2.157064,-0.206046\O,0,13.947322,2.566473,-1.364396\N,0,
 14.359407,2.724165,0.874906\H,0,14.053933,2.402364,1.812532\H,0,14.727
 799,3.657204,0.756437\C,0,9.043319,1.190944,0.037114\O,0,8.917962,1.23
 5867,-1.196543\N,0,8.098613,1.640284,0.874408\H,0,8.196093,1.456228,1.
 875345\C,-1,6.82908,2.179156,0.387081\H,0,6.797373,1.995053,-0.687827\
 C,0,5.63943,1.506348,1.059148\H,0,4.707149,1.878409,0.620761\H,0,5.611
 068,1.706015,2.132573\H,0,5.68057,0.427105,0.893617\C,0,6.809084,3.697
 445,0.65452\O,0,6.545394,4.146823,1.772281\N,0,7.099703,4.495466,-0.38
 6595\H,0,7.182189,4.089527,-1.313987\C,-1,7.140871,5.948612,-0.277114\
 H,0,7.584282,6.18894,0.694273\C,0,8.023171,6.523867,-1.394829\H,0,7.78
 5435,7.586915,-1.511035\H,0,7.756669,6.032036,-2.335958\C,0,9.487619,6
 .356839,-1.06519\C,0,10.206081,5.200464,-1.383275\H,0,9.719662,4.40446
 3,-1.943331\C,0,11.524073,5.029768,-0.965156\H,0,12.090034,4.134484,-1
 .2054\C,0,12.138581,6.017638,-0.19684\O,0,13.411173,5.810977,0.244678\
 H,0,13.51665,6.252218,1.101772\C,0,11.451742,7.198981,0.08503\H,0,11.9
 41618,7.980748,0.657463\C,0,10.139498,7.354309,-0.337885\H,0,9.606092,
 8.269484,-0.087711\C,0,5.700456,6.52218,-0.330502\O,0,5.054681,6.49003
 ,-1.384603\N,0,5.236076,7.072928,0.811676\H,0,5.743919,6.957238,1.6823
 29\C,-1,3.943445,7.732681,0.940863\H,0,3.85943,8.482428,0.146377\C,0,2
 .750099,6.754716,0.761091\H,0,1.826756,7.344059,0.705728\H,0,2.871363,
 6.295775,-0.224192\C,0,2.642003,5.709254,1.826524\C,0,3.336252,4.52765
 9,1.876458\H,0,4.060793,4.134965,1.17922\N,0,3.042328,3.838263,3.02117
 6\H,0,3.403238,2.918358,3.292155\C,0,2.137374,4.564611,3.747727\C,0,1.
 552426,4.274817,4.984922\H,0,1.794328,3.349253,5.499608\C,0,0.687722,5
 .216892,5.5152\H,0,0.224697,5.033107,6.481136\C,0,0.394635,6.410617,4.
 823856\H,0,-0.281684,7.134725,5.26939\C,0,0.969117,6.688512,3.594816\H
 ,0,0.740364,7.618702,3.081032\C,0,1.863044,5.759073,3.03626\C,0,3.8730
 81,8.449674,2.300422\O,0,4.711299,8.24679,3.169898\N,0,2.821515,9.2980
 65,2.425647\H,0,2.109458,9.34105,1.702126\C,-1,2.429361,9.971533,3.660
 871\H,0,2.4801,9.265025,4.497997\C,0,3.347477,11.168583,3.941427\H,0,4
 .375548,10.792213,4.03849\H,0,3.059115,11.644914,4.882915\O,0,3.240827
 ,12.147477,2.928711\H,0,3.354064,11.698206,2.080255\C,0,0.952902,10.44
 767,3.463933\O,0,0.352902,10.168676,2.412161\N,0,0.420461,11.147251,4.
 465798\H,0,0.958936,11.381998,5.348333\C,-1,-0.892303,11.794873,4.4051
 92\H,0,-1.651747,11.053276,4.121469\C,0,-1.23346,12.433187,5.749478\H,
 0,-2.246865,12.847502,5.650938\H,0,-1.284216,11.646236,6.512386\C,0,-0
 .266278,13.537604,6.21187\H,0,-0.803311,14.282004,6.80755\H,0,0.127651
 ,14.066109,5.330973\C,0,0.952339,13.06935,7.069185\O,0,1.483079,11.958
 058,6.741752\O,0,1.299062,13.827019,7.982452\H,0,-0.88212,12.56194,3.6
 16089\H,0,-0.735049,12.337951,-0.050038\C,-1,-0.954719,11.603454,-0.82
 9038\H,0,-0.9318,12.106665,-1.799931\C,0,0.064719,10.46075,-0.782138\H
 ,0,0.041678,10.011733,0.218384\H,0,-0.205923,9.675971,-1.495506\C,0,1.
 493684,10.895642,-1.031762\O,0,1.882325,12.048181,-0.921048\N,0,2.3363
 34,9.85592,-1.329539\H,0,1.95462,8.994851,-1.715264\H,0,3.261537,10.12
 0339,-1.636812\C,0,-2.34128,10.951943,-0.666329\O,0,-2.75261,10.134705
 ,-1.493014\N,0,-3.058537,11.281331,0.440199\H,0,-2.601212,11.872819,1.
 119213\C,-1,-4.361907,10.71218,0.818122\H,0,-4.461516,9.739349,0.32873
 6\C,0,-4.471281,10.610788,2.333703\H,0,-4.274049,11.602904,2.766971\H,
 0,-3.686331,9.943559,2.713954\C,0,-5.847553,10.128798,2.813005\H,0,-6.
 612141,10.658759,2.22429\C,0,-6.043849,8.624326,2.597928\H,0,-5.301029
 ,8.052321,3.168162\H,0,-7.032515,8.321964,2.969558\H,0,-5.967598,8.345
 035,1.541466\C,0,-6.054799,10.494016,4.282842\H,0,-5.281804,10.024092,
 4.902419\H,0,-5.998041,11.578459,4.435671\H,0,-7.030005,10.143965,4.63
 9606\H,0,-5.165857,11.349018,0.424365\C,0,2.171614,-1.912416,-0.264612
 \O,0,2.90602,-2.39131,-1.16348\C,0,2.187655,-0.532496,0.071755\C,0,1.3
 84323,-0.033789,1.054231\C,0,-1.908104,1.989297,3.102981\C,0,-3.033292
 ,1.134999,3.723546\C,0,-3.400479,0.018717,2.744869\C,0,-2.16888,-0.843
 481,2.427056\C,0,-1.79093,3.172057,4.063921\C,0,-3.26669,3.458797,4.42
 4414\C,0,-2.662306,0.533287,5.091784\H,0,-2.316533,2.380964,2.154947\H
 ,0,-3.780247,0.465504,1.814415\H,0,-4.200481,-0.612289,3.151409\H,0,-1
 .862047,-1.402102,3.323427\H,0,-2.452447,-1.595898,1.680538\H,0,-1.284
 207,4.036231,3.632815\H,0,2.948394,0.084755,-0.401551\H,0,-1.209059,2.
 886778,4.946445\H,0,-3.60459,4.378418,3.936127\H,0,-3.412685,3.584745,
 5.503724\H,0,-2.567028,1.299028,5.866012\H,0,-3.450512,-0.156043,5.412
 196\H,0,-1.714995,-0.014028,5.055509\C,0,1.295863,-2.84887,0.519998\H,
 0,1.875075,-3.163676,1.400643\H,0,1.088863,-3.733893,-0.089852\C,0,0.0
 14387,-2.158346,0.952715\H,0,-0.573225,-2.834968,1.581246\H,0,-0.59475
 7,-1.935746,0.064514\C,0,0.298728,-0.8606,1.707302\H,0,0.71198,-1.1045
 79,2.701323\C,0,1.60294,1.332316,1.587861\H,0,2.214636,1.175178,2.5012
 76\H,0,2.230421,1.917461,0.90936\C,0,0.329935,2.094179,1.952302\H,0,-0
 .174212,2.441046,1.039603\H,0,0.603888,2.988273,2.516135\C,0,-4.087497
 ,2.236868,3.916497\H,0,-4.518733,2.472364,2.932573\C,0,-0.9826,-0.0168
 53,1.899277\H,0,-1.282284,0.35286,0.902628\C,0,-0.645478,1.22538,2.746
 528\H,0,-0.143817,0.898714,3.670418\O,0,-5.130277,1.814156,4.786555\H,
 0,-5.627808,2.596255,5.051984\\Version=ES64L-G16RevC.01\State=1-A\HF=-
 21865.4360732\RMSD=5.104e-10\Dipole=-29.5823355,-43.4199237,-5.6430635
 \Quadrupole=-205.1921451,10.3329152,194.8592299,-79.5737105,-260.78005
 ,-239.6911366\PG=C01 [X(C295H470N56O65S6)]\\@
 The archive entry for this job was punched.


 THIS CURIOUS WORLD WHICH WE INHABIT IS MORE WONDERFUL THAN IT IS CONVENIENT;
 MORE BEAUTIFUL THAN IT IS USEFUL;
 IT IS MORE TO BE ADMIRED THAN IT IS TO BE USED.

                                                                 -- THOREAU
 Job cpu time:       3 days  7 hours 25 minutes 16.7 seconds.
 Elapsed time:       0 days  1 hours 16 minutes 18.4 seconds.
 File lengths (MBytes):  RWF=  28477 Int=      0 D2E=      0 Chk=   3049 Scr=      1
 Normal termination of Gaussian 16 at Sun May 24 22:51:06 2026.
