 Entering Gaussian System, Link 0=g16
 Initial command:
 /cm/shared/apps/spack/cpu/opt/spack/linux-centos8-zen/gcc-8.3.1/gaussian-16.C.01-po5bqktfeugvmjyga3v7eigbecnokxng/g16/l1.exe "/scratch/hklem/job_32994862/Gau-3540339.inp" -scrdir="/scratch/hklem/job_32994862/"
 Entering Link 1 = /cm/shared/apps/spack/cpu/opt/spack/linux-centos8-zen/gcc-8.3.1/gaussian-16.C.01-po5bqktfeugvmjyga3v7eigbecnokxng/g16/l1.exe PID=   3540341.
  
 Copyright (c) 1988-2019, Gaussian, Inc.  All Rights Reserved.
  
 This is part of the Gaussian(R) 16 program.  It is based on
 the Gaussian(R) 09 system (copyright 2009, Gaussian, Inc.),
 the Gaussian(R) 03 system (copyright 2003, Gaussian, Inc.),
 the Gaussian(R) 98 system (copyright 1998, Gaussian, Inc.),
 the Gaussian(R) 94 system (copyright 1995, Gaussian, Inc.),
 the Gaussian 92(TM) system (copyright 1992, Gaussian, Inc.),
 the Gaussian 90(TM) system (copyright 1990, Gaussian, Inc.),
 the Gaussian 88(TM) system (copyright 1988, Gaussian, Inc.),
 the Gaussian 86(TM) system (copyright 1986, Carnegie Mellon
 University), and the Gaussian 82(TM) system (copyright 1983,
 Carnegie Mellon University). Gaussian is a federally registered
 trademark of Gaussian, Inc.
  
 This software contains proprietary and confidential information,
 including trade secrets, belonging to Gaussian, Inc.
  
 This software is provided under written license and may be
 used, copied, transmitted, or stored only in accord with that
 written license.
  
 The following legend is applicable only to US Government
 contracts under FAR:
  
                    RESTRICTED RIGHTS LEGEND
  
 Use, reproduction and disclosure by the US Government is
 subject to restrictions as set forth in subparagraphs (a)
 and (c) of the Commercial Computer Software - Restricted
 Rights clause in FAR 52.227-19.
  
 Gaussian, Inc.
 340 Quinnipiac St., Bldg. 40, Wallingford CT 06492
  
  
 ---------------------------------------------------------------
 Warning -- This program may not be used in any manner that
 competes with the business of Gaussian, Inc. or will provide
 assistance to any competitor of Gaussian, Inc.  The licensee
 of this program is prohibited from giving any competitor of
 Gaussian, Inc. access to this program.  By using this program,
 the user acknowledges that Gaussian, Inc. is engaged in the
 business of creating and licensing software in the field of
 computational chemistry and represents and warrants to the
 licensee that it is not a competitor of Gaussian, Inc. and that
 it will not use this program in any manner prohibited above.
 ---------------------------------------------------------------
  

 Cite this work as:
 Gaussian 16, Revision C.01,
 M. J. Frisch, G. W. Trucks, H. B. Schlegel, G. E. Scuseria, 
 M. A. Robb, J. R. Cheeseman, G. Scalmani, V. Barone, 
 G. A. Petersson, H. Nakatsuji, X. Li, M. Caricato, A. V. Marenich, 
 J. Bloino, B. G. Janesko, R. Gomperts, B. Mennucci, H. P. Hratchian, 
 J. V. Ortiz, A. F. Izmaylov, J. L. Sonnenberg, D. Williams-Young, 
 F. Ding, F. Lipparini, F. Egidi, J. Goings, B. Peng, A. Petrone, 
 T. Henderson, D. Ranasinghe, V. G. Zakrzewski, J. Gao, N. Rega, 
 G. Zheng, W. Liang, M. Hada, M. Ehara, K. Toyota, R. Fukuda, 
 J. Hasegawa, M. Ishida, T. Nakajima, Y. Honda, O. Kitao, H. Nakai, 
 T. Vreven, K. Throssell, J. A. Montgomery, Jr., J. E. Peralta, 
 F. Ogliaro, M. J. Bearpark, J. J. Heyd, E. N. Brothers, K. N. Kudin, 
 V. N. Staroverov, T. A. Keith, R. Kobayashi, J. Normand, 
 K. Raghavachari, A. P. Rendell, J. C. Burant, S. S. Iyengar, 
 J. Tomasi, M. Cossi, J. M. Millam, M. Klene, C. Adamo, R. Cammi, 
 J. W. Ochterski, R. L. Martin, K. Morokuma, O. Farkas, 
 J. B. Foresman, and D. J. Fox, Gaussian, Inc., Wallingford CT, 2019.
 
 ******************************************
 Gaussian 16:  ES64L-G16RevC.01  3-Jul-2019
                12-Aug-2024 
 ******************************************
 %nprocshared=24
 Will use up to   24 processors via shared memory.
 %mem=48GB
 --------------------------
 # wb97xd 6-31G(d) prop=efg
 --------------------------
 1/38=1,172=1/1;
 2/12=2,17=6,18=5,40=1/2;
 3/5=1,6=6,7=1,11=2,25=1,30=1,74=-58/1,2,3;
 4//1;
 5/5=2,38=5/2;
 6/7=2,8=2,9=2,10=2,14=1,28=1/1,2;
 99/5=1,9=1/99;
 ------------------------------------------
 19nt_mm_min_distance_cutoff4_ligand_conf_1
 ------------------------------------------
 Symbolic Z-matrix:
 Charge =  0 Multiplicity = 1
 C                     3.059     0.8129   -0.1952 
 O                     4.2949    0.9584   -0.0771 
 C                     2.455    -0.4778   -0.3497 
 C                     1.1336   -0.6044   -0.6427 
 C                     0.1888    0.5737   -0.6098 
 C                     0.773     1.74      0.1904 
 C                     2.1909    2.0321   -0.2715 
 C                     0.6067   -1.907    -1.1519 
 C                    -0.8369   -2.2176   -0.76 
 C                    -1.7421   -1.0102   -1.0006 
 C                    -1.2263    0.1713   -0.1503 
 C                    -3.2049   -1.2785   -0.6736 
 C                    -4.0984   -0.0349   -0.8707 
 C                    -3.6324    1.0592    0.0846 
 C                    -2.1557    1.3979   -0.1416 
 C                    -3.9556   -2.3838   -1.4265 
 C                    -5.4473   -2.046    -1.186 
 C                    -5.4573   -0.6587   -0.5191 
 C                    -4.0978    0.4731   -2.3223 
 O                    -6.6147    0.1014   -0.9173 
 H                     3.1199   -1.3364   -0.3617 
 H                     0.1017    0.8803   -1.6651 
 H                     0.7656    1.4974    1.2633 
 H                     0.1657    2.6403    0.0597 
 H                     2.1673    2.3345   -1.3273 
 H                     2.664     2.851     0.2794 
 H                     1.279    -2.7245   -0.876 
 H                     0.6768   -1.829    -2.2497 
 H                    -0.8796   -2.4991    0.3006 
 H                    -1.1813   -3.0861   -1.3304 
 H                    -1.6598   -0.7393   -2.0629 
 H                    -1.1549   -0.2       0.8863 
 H                    -3.2509   -1.5254    0.4034 
 H                    -3.7717    0.7161    1.1216 
 H                    -4.236     1.9689   -0.0345 
 H                    -2.038     1.9428   -1.0875 
 H                    -1.8376    2.0787    0.6563 
 H                    -3.69     -3.386    -1.0855 
 H                    -3.7331   -2.3468   -2.4967 
 H                    -5.9503   -2.7858   -0.5545 
 H                    -5.9865   -2.0027   -2.1328 
 H                    -5.5071   -0.775     0.5729 
 H                    -4.532    -0.2532   -3.0167 
 H                    -4.6726    1.3991   -2.3982 
 H                    -3.0908    0.7135   -2.6717 
 H                    -6.8224    0.7179   -0.2045 
 
                          Input orientation:                          
 ---------------------------------------------------------------------
 Center     Atomic      Atomic             Coordinates (Angstroms)
 Number     Number       Type             X           Y           Z
 ---------------------------------------------------------------------
      1          6           0        3.059000    0.812900   -0.195200
      2          8           0        4.294900    0.958400   -0.077100
      3          6           0        2.455000   -0.477800   -0.349700
      4          6           0        1.133600   -0.604400   -0.642700
      5          6           0        0.188800    0.573700   -0.609800
      6          6           0        0.773000    1.740000    0.190400
      7          6           0        2.190900    2.032100   -0.271500
      8          6           0        0.606700   -1.907000   -1.151900
      9          6           0       -0.836900   -2.217600   -0.760000
     10          6           0       -1.742100   -1.010200   -1.000600
     11          6           0       -1.226300    0.171300   -0.150300
     12          6           0       -3.204900   -1.278500   -0.673600
     13          6           0       -4.098400   -0.034900   -0.870700
     14          6           0       -3.632400    1.059200    0.084600
     15          6           0       -2.155700    1.397900   -0.141600
     16          6           0       -3.955600   -2.383800   -1.426500
     17          6           0       -5.447300   -2.046000   -1.186000
     18          6           0       -5.457300   -0.658700   -0.519100
     19          6           0       -4.097800    0.473100   -2.322300
     20          8           0       -6.614700    0.101400   -0.917300
     21          1           0        3.119900   -1.336400   -0.361700
     22          1           0        0.101700    0.880300   -1.665100
     23          1           0        0.765600    1.497400    1.263300
     24          1           0        0.165700    2.640300    0.059700
     25          1           0        2.167300    2.334500   -1.327300
     26          1           0        2.664000    2.851000    0.279400
     27          1           0        1.279000   -2.724500   -0.876000
     28          1           0        0.676800   -1.829000   -2.249700
     29          1           0       -0.879600   -2.499100    0.300600
     30          1           0       -1.181300   -3.086100   -1.330400
     31          1           0       -1.659800   -0.739300   -2.062900
     32          1           0       -1.154900   -0.200000    0.886300
     33          1           0       -3.250900   -1.525400    0.403400
     34          1           0       -3.771700    0.716100    1.121600
     35          1           0       -4.236000    1.968900   -0.034500
     36          1           0       -2.038000    1.942800   -1.087500
     37          1           0       -1.837600    2.078700    0.656300
     38          1           0       -3.690000   -3.386000   -1.085500
     39          1           0       -3.733100   -2.346800   -2.496700
     40          1           0       -5.950300   -2.785800   -0.554500
     41          1           0       -5.986500   -2.002700   -2.132800
     42          1           0       -5.507100   -0.775000    0.572900
     43          1           0       -4.532000   -0.253200   -3.016700
     44          1           0       -4.672600    1.399100   -2.398200
     45          1           0       -3.090800    0.713500   -2.671700
     46          1           0       -6.822400    0.717900   -0.204500
 ---------------------------------------------------------------------
                    Distance matrix (angstroms):
                    1          2          3          4          5
     1  C    0.000000
     2  O    1.250027   0.000000
     3  C    1.433385   2.349939   0.000000
     4  C    2.432316   3.571563   1.359402   0.000000
     5  C    2.909838   4.158343   2.511766   1.510513   0.000000
     6  C    2.496798   3.617490   2.835396   2.514021   1.530315
     7  C    1.498622   2.370114   2.524968   2.864752   2.499956
     8  C    3.785090   4.792550   2.470294   1.494548   2.573400
     9  C    4.967994   6.073607   3.745912   2.549322   2.977579
    10  C    5.198358   6.416666   4.280510   2.926161   2.527813
    11  C    4.333297   5.577502   3.743402   2.532449   1.541290
    12  C    6.621123   7.848983   5.725426   4.390666   3.866771
    13  C    7.239022   8.489048   6.588980   5.267840   4.338035
    14  C    6.701775   7.929590   6.293443   5.100126   3.914010
    15  C    5.247685   6.465877   4.981979   3.883272   2.528873
    16  C    7.806382   9.003440   6.774078   5.447987   5.156535
    17  C    9.028407  10.255074   8.099691   6.758819   6.241831
    18  C    8.648577   9.895240   7.916180   6.592282   5.779748
    19  C    7.473942   8.701371   6.909019   5.599072   4.617111
    20  O    9.726671  10.975416   9.105883   7.785224   6.826803
    21  H    2.156600   2.593787   1.086016   2.135456   3.507333
    22  H    3.303146   4.484503   3.018730   2.077126   1.102383
    23  H    2.802757   3.813548   3.058963   2.861088   2.166662
    24  H    3.431552   4.460694   3.889865   3.458074   2.172464
    25  H    2.095721   2.825479   2.991238   3.189725   2.744027
    26  H    2.129583   2.523660   3.394165   3.890011   3.478992
    27  H    4.018095   4.826764   2.589909   2.137848   3.483895
    28  H    4.107978   5.057711   2.932190   2.071415   2.949641
    29  H    5.169887   6.234775   3.953239   2.921075   3.378225
    30  H    5.871203   6.922247   4.581231   3.462734   3.973736
    31  H    5.307043   6.502618   4.464865   3.136598   2.693101
    32  H    4.466829   5.654233   3.825735   2.781836   2.154636
    33  H    6.755798   7.958595   5.849950   4.600696   4.155037
    34  H    6.957140   8.158776   6.508603   5.377587   4.324764
    35  H    7.387773   8.590645   7.131281   5.985347   4.675084
    36  H    5.296441   6.488110   5.156617   4.092080   2.657305
    37  H    5.128742   6.276982   5.096483   4.208854   2.823886
    38  H    7.998275   9.146000   6.838132   5.585740   5.563327
    39  H    7.836659   9.012635   6.811413   5.491634   5.241280
    40  H    9.708101  10.918382   8.718823   7.412687   6.998417
    41  H    9.669693  10.895008   8.761489   7.407528   6.862339
    42  H    8.745826   9.975288   8.020882   6.753198   5.971687
    43  H    8.168275   9.382078   7.482079   6.152905   5.363104
    44  H    8.060675   9.273499   7.649953   6.388094   5.245271
    45  H    6.630458   7.832017   6.129174   4.868188   3.876435
    46  H    9.881861  11.120631   9.355262   8.077031   7.024385
                    6          7          8          9         10
     6  C    0.000000
     7  C    1.519577   0.000000
     8  C    3.889734   4.336047   0.000000
     9  C    4.376944   5.240816   1.527756   0.000000
    10  C    3.912520   5.025501   2.518731   1.528100   0.000000
    11  C    2.564000   3.892881   2.946595   2.496039   1.544345
    12  C    5.067694   6.343218   3.892567   2.548882   1.522727
    13  C    5.292140   6.647317   5.071666   3.926043   2.553475
    14  C    4.458950   5.914741   5.319515   4.389258   3.005546
    15  C    2.967245   4.394544   4.424243   3.897883   2.589960
    16  C    6.479178   7.655956   4.595359   3.193452   2.639650
    17  C    7.410830   8.706854   6.055692   4.633218   3.851722
    18  C    6.713702   8.111515   6.223406   4.882243   3.762726
    19  C    5.625246   6.795882   5.400651   4.507118   3.081622
    20  O    7.647883   9.037879   7.499155   6.227799   4.998482
    21  H    3.908579   3.495421   2.695584   4.073257   4.914636
    22  H    2.152349   2.762883   2.878792   3.361125   2.723077
    23  H    1.100011   2.161711   4.177126   4.523602   4.207358
    24  H    1.093817   2.140335   4.726562   5.027555   4.253244
    25  H    2.144975   1.098506   4.522893   5.483490   5.155304
    26  H    2.195022   1.094491   5.377701   6.247188   5.996748
    27  H    4.617901   4.880802   1.093807   2.178861   3.475830
    28  H    4.324477   4.594983   1.102798   2.159052   2.842844
    29  H    4.551176   5.503366   2.160886   1.098152   2.157279
    30  H    5.424331   6.220046   2.149205   1.094651   2.175460
    31  H    4.140387   5.071258   2.707483   2.135435   1.099382
    32  H    2.822176   4.185349   3.189254   2.623383   2.135795
    33  H    5.186519   6.536397   4.176800   2.767677   2.124412
    34  H    4.750769   6.263001   5.587472   4.556321   3.406335
    35  H    5.019268   6.431579   6.302613   5.441233   4.003489
    36  H    3.094491   4.307833   4.671140   4.342675   2.969060
    37  H    2.673390   4.134223   5.012983   4.633088   3.506528
    38  H    6.915357   8.037623   4.544610   3.100208   3.073426
    39  H    6.650367   7.695457   4.564622   3.379467   2.826463
    40  H    8.138827   9.464216   6.642547   5.148975   4.589195
    41  H    8.068203   9.306660   6.666454   5.333774   4.503539
    42  H    6.775779   8.237234   6.452512   5.066408   4.087352
    43  H    6.511633   7.612891   5.711285   4.754506   3.524379
    44  H    6.039174   7.213264   6.352525   5.520581   4.042999
    45  H    4.916734   5.949456   4.779991   4.162452   2.753672
    46  H    7.674030   9.108852   7.935943   6.689690   5.424901
                   11         12         13         14         15
    11  C    0.000000
    12  C    2.508111   0.000000
    13  C    2.968241   1.543934   0.000000
    14  C    2.575434   2.494487   1.525388   0.000000
    15  C    1.538963   2.923519   2.521624   1.531838   0.000000
    16  C    3.950481   1.533655   2.417982   3.773875   4.380852
    17  C    4.879133   2.424864   2.442021   3.814519   4.877074
    18  C    4.327387   2.341224   1.536020   2.577963   3.908027
    19  C    3.613057   2.565850   1.537923   2.520571   3.063080
    20  O    5.443164   3.686496   2.520420   3.288662   4.708004
    21  H    4.605139   6.332751   7.352336   7.178554   5.946158
    22  H    2.135623   4.071498   4.371442   4.127585   2.772150
    23  H    2.779293   5.217478   5.528146   4.574249   3.243091
    24  H    2.842134   5.220696   5.119071   4.114129   2.640640
    25  H    4.193004   6.507044   6.714279   6.103800   4.579458
    26  H    4.743403   7.239127   7.441855   6.549286   5.051559
    27  H    3.897284   4.715638   6.012521   6.273834   5.415781
    28  H    3.468497   4.225487   5.284219   5.688573   4.783307
    29  H    2.730302   2.801062   4.219585   4.504005   4.124389
    30  H    3.464869   2.791731   4.246248   5.019325   4.740143
    31  H    2.162210   2.146678   2.804334   3.426005   2.916322
    32  H    1.103404   2.792660   3.431982   2.892458   2.147432
    33  H    2.698959   1.105895   2.136159   2.631983   3.168938
    34  H    2.897171   2.742706   2.154064   1.101132   2.161477
    35  H    3.507573   3.466587   2.175633   1.098213   2.159898
    36  H    2.162270   3.451049   2.864184   2.167182   1.097951
    37  H    2.159274   3.861209   3.451123   2.141852   1.096048
    38  H    4.427053   2.201486   3.382721   4.596983   5.111822
    39  H    4.257989   2.178062   2.849948   4.274820   4.696538
    40  H    5.587843   3.134224   3.331211   4.534880   5.663287
    41  H    5.596078   3.223512   3.005005   4.453525   5.495815
    42  H    4.443394   2.665971   2.148526   2.667813   4.057572
    43  H    4.395919   2.881415   2.200223   3.485647   4.079109
    44  H    4.293895   3.506840   2.172399   2.713272   3.380389
    45  H    3.182420   2.823736   2.195213   2.830199   2.782844
    46  H    5.622992   4.158362   2.903568   3.221205   4.716402
                   16         17         18         19         20
    16  C    0.000000
    17  C    1.548263   0.000000
    18  C    2.460579   1.539304   0.000000
    19  C    2.997425   3.075417   2.526013   0.000000
    20  O    3.675094   2.458933   1.440795   2.906367   0.000000
    21  H    7.231428   8.635967   8.605371   7.695027   9.855881
    22  H    5.212769   6.291595   5.880843   4.270073   6.802641
    23  H    6.677460   7.560085   6.822771   6.128489   7.821295
    24  H    6.665995   7.417476   6.544963   5.343043   7.305776
    25  H    7.730595   8.785834   8.230854   6.611075   9.070742
    26  H    8.610013   9.587554   8.883193   7.625299   9.751239
    27  H    5.274482   6.767538   7.054973   6.420779   8.384385
    28  H    4.737572   6.219578   6.480105   5.301107   7.659485
    29  H    3.529581   4.824848   5.001432   5.105917   6.413833
    30  H    2.863425   4.393338   4.983438   4.707201   6.312895
    31  H    2.894837   4.101411   4.100100   2.735150   5.154630
    32  H    4.238154   5.111442   4.549308   4.405546   5.757884
    33  H    2.140558   2.760686   2.543693   3.484348   3.963064
    34  H    4.016966   3.970120   2.724558   3.467829   3.552129
    35  H    4.578459   4.348864   2.937804   2.736886   3.150414
    36  H    4.744637   5.248195   4.333877   2.815586   4.936183
    37  H    5.360773   5.782487   4.687980   4.069215   5.404315
    38  H    1.091434   2.212194   3.298837   4.072914   4.554571
    39  H    1.093711   2.178737   3.119848   2.848729   4.097781
    40  H    2.213779   1.095037   2.183771   4.144551   2.984791
    41  H    2.183724   1.090432   2.165737   3.119725   2.509843
    42  H    2.998831   2.170886   1.099304   3.453413   2.053181
    43  H    2.720373   2.720913   2.694182   1.094638   2.978399
    44  H    3.970972   3.733404   2.895050   1.092535   2.765654
    45  H    3.448430   3.921127   3.480940   1.092667   3.983774
    46  H    4.396859   3.239350   1.964052   3.459545   0.965036
                   21         22         23         24         25
    21  H    0.000000
    22  H    3.965116   0.000000
    23  H    4.026633   3.065469   0.000000
    24  H    4.971822   2.465082   1.764866   0.000000
    25  H    3.913481   2.548629   3.062141   2.454320   0.000000
    26  H    4.260654   3.772283   2.530655   2.516777   1.759252
    27  H    2.362253   3.873409   4.760738   5.558422   5.156184
    28  H    3.126649   2.830690   4.838801   5.056599   4.517427
    29  H    4.217406   4.030790   4.427808   5.250154   5.941157
    30  H    4.743432   4.182158   5.614817   6.044704   6.371502
    31  H    5.108438   2.425743   4.684976   4.388573   4.963471
    32  H    4.595957   3.042324   2.590679   3.239530   4.728713
    33  H    6.419361   4.615844   5.099904   5.398550   6.873939
    34  H    7.342144   4.774504   4.606257   4.509246   6.624806
    35  H    8.071018   4.760205   5.188699   4.453607   6.542725
    36  H    6.154987   2.457813   3.685758   2.580478   4.230305
    37  H    6.105411   3.253605   2.735509   2.164379   4.476531
    38  H    7.148390   5.737093   7.015471   7.245288   8.190882
    39  H    7.248637   5.080494   7.010975   6.826931   7.622125
    40  H    9.187299   7.162432   8.170282   8.199101   9.628610
    41  H    9.300929   6.752526   8.329169   8.013368   9.270630
    42  H    8.695618   6.261573   6.707251   6.641409   8.495656
    43  H    8.171531   4.958107   7.031896   6.317038   7.377729
    44  H    8.506077   4.858038   6.556696   5.566956   6.986131
    45  H    6.936208   3.351585   5.565119   4.666679   5.664156
    46  H   10.153531   7.078339   7.767870   7.252514   9.202651
                   26         27         28         29         30
    26  H    0.000000
    27  H    5.859981   0.000000
    28  H    5.678707   1.746888   0.000000
    29  H    6.417252   2.468754   3.061935   0.000000
    30  H    7.254443   2.527906   2.424448   1.759475   0.000000
    31  H    6.088667   3.739826   2.584964   3.048236   2.504594
    32  H    4.925538   3.924624   3.980360   2.388450   3.639235
    33  H    7.358960   4.857438   4.749520   2.565487   3.118508
    34  H    6.832667   6.429440   6.134521   4.401794   5.213368
    35  H    6.963234   7.290497   6.592933   5.598280   6.046782
    36  H    4.980165   5.729826   4.790336   4.795747   5.107129
    37  H    4.582892   5.927214   5.480617   4.690473   5.572510
    38  H    9.007577   5.017214   4.780016   3.256718   2.538403
    39  H    8.697514   5.281143   4.447060   3.998818   2.901466
    40  H   10.328362   7.236705   6.907071   5.150281   4.841029
    41  H   10.208245   7.408646   6.666589   5.678757   4.990746
    42  H    8.944322   7.207705   6.878852   4.945748   5.260825
    43  H    8.501926   6.667656   5.495729   5.421123   4.700651
    44  H    7.943756   7.398832   6.249701   6.071765   5.783286
    45  H    6.811433   5.842905   4.564778   4.903547   4.458950
    46  H    9.735300   8.828007   8.179703   6.776510   6.896381
                   31         32         33         34         35
    31  H    0.000000
    32  H    3.040321   0.000000
    33  H    3.038452   2.526478   0.000000
    34  H    4.088930   2.782489   2.410678   0.000000
    35  H    4.252712   3.878811   3.656817   1.766819   0.000000
    36  H    2.878906   3.044231   3.965138   3.064414   2.437354
    37  H    3.920049   2.389865   3.879551   2.411208   2.498316
    38  H    3.475923   4.523862   2.423110   4.658883   5.484311
    39  H    2.659100   4.764510   3.052506   4.740774   4.994057
    40  H    4.987166   5.635435   3.129367   4.451844   5.080984
    41  H    4.507926   5.975705   3.760802   4.784175   4.820863
    42  H    4.663736   4.401192   2.383751   2.352884   3.084415
    43  H    3.065218   5.161496   3.867401   4.317769   3.730799
    44  H    3.709736   5.071417   4.292190   3.696904   2.470297
    45  H    2.128151   4.152295   3.807170   3.853927   3.137250
    46  H    5.677105   5.844052   4.261168   3.326457   2.878084
                   36         37         38         39         40
    36  H    0.000000
    37  H    1.760530   0.000000
    38  H    5.578998   6.027288   0.000000
    39  H    4.822849   5.754944   1.753077   0.000000
    40  H    6.160344   6.484111   2.398157   2.980073   0.000000
    41  H    5.678933   6.453703   2.878241   2.308385   1.762268
    42  H    4.709355   4.649278   3.587404   3.878154   2.347504
    43  H    3.842430   5.117468   3.775306   2.300392   3.806319
    44  H    2.992434   4.222446   5.058247   3.863176   4.748172
    45  H    2.264786   3.809182   4.436324   3.131870   4.990428
    46  H    5.017026   5.238414   5.237374   4.918368   3.627530
                   41         42         43         44         45
    41  H    0.000000
    42  H    3.009632   0.000000
    43  H    2.440819   3.756105   0.000000
    44  H    3.656366   3.774988   1.769860   0.000000
    45  H    4.006649   4.310634   1.769348   1.745549   0.000000
    46  H    3.437839   2.136145   3.754655   3.146108   4.473470
                   46
    46  H    0.000000
 Stoichiometry    C18H26O2
 Framework group  C1[X(C18H26O2)]
 Deg. of freedom   132
 Full point group                 C1      NOp   1
 Largest Abelian subgroup         C1      NOp   1
 Largest concise Abelian subgroup C1      NOp   1
                         Standard orientation:                         
 ---------------------------------------------------------------------
 Center     Atomic      Atomic             Coordinates (Angstroms)
 Number     Number       Type             X           Y           Z
 ---------------------------------------------------------------------
      1          6           0        4.676880   -0.171978    0.010995
      2          8           0        5.924978   -0.103754   -0.001836
      3          6           0        3.848697    0.986641   -0.151201
      4          6           0        2.503277    0.919442    0.031291
      5          6           0        1.781848   -0.397035    0.198860
      6          6           0        2.631039   -1.569864   -0.296328
      7          6           0        4.027261   -1.491574    0.298273
      8          6           0        1.714741    2.175428    0.216724
      9          6           0        0.283456    2.124204   -0.315101
     10          6           0       -0.420273    0.842092    0.127667
     11          6           0        0.369243   -0.368278   -0.417009
     12          6           0       -1.869343    0.759675   -0.332880
     13          6           0       -2.551238   -0.563806    0.075956
     14          6           0       -1.815489   -1.720652   -0.592768
     15          6           0       -0.331090   -1.723615   -0.214515
     16          6           0       -2.866823    1.833092    0.119787
     17          6           0       -4.248651    1.180002   -0.127487
     18          6           0       -3.956987   -0.289922   -0.479214
     19          6           0       -2.602402   -0.759611    1.600505
     20          8           0       -4.999725   -1.157589    0.006319
     21          1           0        4.352410    1.939235   -0.286360
     22          1           0        1.648072   -0.495520    1.288654
     23          1           0        2.684801   -1.554183   -1.394912
     24          1           0        2.177308   -2.522990   -0.009770
     25          1           0        3.954984   -1.574006    1.391295
     26          1           0        4.684151   -2.301049   -0.035131
     27          1           0        2.260280    3.031896   -0.189803
     28          1           0        1.691877    2.334767    1.307710
     29          1           0        0.294763    2.173137   -1.412104
     30          1           0       -0.257599    3.009438    0.034011
     31          1           0       -0.394728    0.811122    1.226316
     32          1           0        0.474750   -0.206771   -1.503419
     33          1           0       -1.853776    0.771422   -1.438603
     34          1           0       -1.911717   -1.625870   -1.685585
     35          1           0       -2.262873   -2.684457   -0.315281
     36          1           0       -0.212755   -2.034804    0.831742
     37          1           0        0.173768   -2.479171   -0.827356
     38          1           0       -2.745501    2.777697   -0.413347
     39          1           0       -2.744636    2.054881    1.183780
     40          1           0       -4.808251    1.669607   -0.931377
     41          1           0       -4.860478    1.227954    0.773851
     42          1           0       -3.921335   -0.407464   -1.571635
     43          1           0       -3.219003   -0.002949    2.095983
     44          1           0       -3.014622   -1.742386    1.841046
     45          1           0       -1.607194   -0.731383    2.050712
     46          1           0       -5.029600   -1.932843   -0.567602
 ---------------------------------------------------------------------
 Rotational constants (GHZ):           0.9200636           0.1754828           0.1550205
 Standard basis: 6-31G(d) (6D, 7F)
 There are   352 symmetry adapted cartesian basis functions of A   symmetry.
 There are   352 symmetry adapted basis functions of A   symmetry.
   352 basis functions,   664 primitive gaussians,   352 cartesian basis functions
    75 alpha electrons       75 beta electrons
       nuclear repulsion energy      1664.1852795825 Hartrees.
 NAtoms=   46 NActive=   46 NUniq=   46 SFac= 1.00D+00 NAtFMM=   60 NAOKFM=F Big=F
 Integral buffers will be    131072 words long.
 Raffenetti 2 integral format.
 Two-electron integral symmetry is turned on.
 Nuclear repulsion after empirical dispersion term =     1664.1366852319 Hartrees.
 One-electron integrals computed using PRISM.
 NBasis=   352 RedAO= T EigKep=  1.26D-03  NBF=   352
 NBsUse=   352 1.00D-06 EigRej= -1.00D+00 NBFU=   352
 ExpMin= 1.61D-01 ExpMax= 5.48D+03 ExpMxC= 8.25D+02 IAcc=3 IRadAn=         5 AccDes= 0.00D+00
 Harris functional with IExCor= 4639 and IRadAn=       5 diagonalized for initial guess.
 HarFok:  IExCor= 4639 AccDes= 0.00D+00 IRadAn=         5 IDoV= 1 UseB2=F ITyADJ=14
 ICtDFT=  3500011 ScaDFX=  1.000000  1.000000  1.000000  1.000000
 FoFCou: FMM=F IPFlag=           0 FMFlag=      100000 FMFlg1=           0
         NFxFlg=           0 DoJE=T BraDBF=F KetDBF=T FulRan=T
         wScrn=  0.000000 ICntrl=       500 IOpCl=  0 I1Cent=   200000004 NGrid=           0
         NMat0=    1 NMatS0=      1 NMatT0=    0 NMatD0=    1 NMtDS0=    0 NMtDT0=    0
 Petite list used in FoFCou.
 Requested convergence on RMS density matrix=1.00D-08 within 128 cycles.
 Requested convergence on MAX density matrix=1.00D-06.
 Requested convergence on             energy=1.00D-06.
 No special actions if energy rises.
 Integral accuracy reduced to 1.0D-05 until final iterations.
 Initial convergence to 1.0D-05 achieved.  Increase integral accuracy.
 SCF Done:  E(RwB97XD) =  -851.790803990     A.U. after   15 cycles
            NFock= 15  Conv=0.64D-08     -V/T= 2.0093

 **********************************************************************

            Population analysis using the SCF Density.

 **********************************************************************

 Orbital symmetries:
       Occupied  (A) (A) (A) (A) (A) (A) (A) (A) (A) (A) (A) (A)
                 (A) (A) (A) (A) (A) (A) (A) (A) (A) (A) (A) (A)
                 (A) (A) (A) (A) (A) (A) (A) (A) (A) (A) (A) (A)
                 (A) (A) (A) (A) (A) (A) (A) (A) (A) (A) (A) (A)
                 (A) (A) (A) (A) (A) (A) (A) (A) (A) (A) (A) (A)
                 (A) (A) (A) (A) (A) (A) (A) (A) (A) (A) (A) (A)
                 (A) (A) (A)
       Virtual   (A) (A) (A) (A) (A) (A) (A) (A) (A) (A) (A) (A)
                 (A) (A) (A) (A) (A) (A) (A) (A) (A) (A) (A) (A)
                 (A) (A) (A) (A) (A) (A) (A) (A) (A) (A) (A) (A)
                 (A) (A) (A) (A) (A) (A) (A) (A) (A) (A) (A) (A)
                 (A) (A) (A) (A) (A) (A) (A) (A) (A) (A) (A) (A)
                 (A) (A) (A) (A) (A) (A) (A) (A) (A) (A) (A) (A)
                 (A) (A) (A) (A) (A) (A) (A) (A) (A) (A) (A) (A)
                 (A) (A) (A) (A) (A) (A) (A) (A) (A) (A) (A) (A)
                 (A) (A) (A) (A) (A) (A) (A) (A) (A) (A) (A) (A)
                 (A) (A) (A) (A) (A) (A) (A) (A) (A) (A) (A) (A)
                 (A) (A) (A) (A) (A) (A) (A) (A) (A) (A) (A) (A)
                 (A) (A) (A) (A) (A) (A) (A) (A) (A) (A) (A) (A)
                 (A) (A) (A) (A) (A) (A) (A) (A) (A) (A) (A) (A)
                 (A) (A) (A) (A) (A) (A) (A) (A) (A) (A) (A) (A)
                 (A) (A) (A) (A) (A) (A) (A) (A) (A) (A) (A) (A)
                 (A) (A) (A) (A) (A) (A) (A) (A) (A) (A) (A) (A)
                 (A) (A) (A) (A) (A) (A) (A) (A) (A) (A) (A) (A)
                 (A) (A) (A) (A) (A) (A) (A) (A) (A) (A) (A) (A)
                 (A) (A) (A) (A) (A) (A) (A) (A) (A) (A) (A) (A)
                 (A) (A) (A) (A) (A) (A) (A) (A) (A) (A) (A) (A)
                 (A) (A) (A) (A) (A) (A) (A) (A) (A) (A) (A) (A)
                 (A) (A) (A) (A) (A) (A) (A) (A) (A) (A) (A) (A)
                 (A) (A) (A) (A) (A) (A) (A) (A) (A) (A) (A) (A)
                 (A)
 The electronic state is 1-A.
 Alpha  occ. eigenvalues --  -19.26605 -19.23187 -10.36610 -10.34387 -10.33162
 Alpha  occ. eigenvalues --  -10.31654 -10.30934 -10.30868 -10.30392 -10.30220
 Alpha  occ. eigenvalues --  -10.30175 -10.30096 -10.29926 -10.29901 -10.29696
 Alpha  occ. eigenvalues --  -10.29407 -10.29389 -10.29309 -10.29029 -10.28325
 Alpha  occ. eigenvalues --   -1.11337  -1.09942  -0.98130  -0.95678  -0.90842
 Alpha  occ. eigenvalues --   -0.90179  -0.87127  -0.84359  -0.82487  -0.81339
 Alpha  occ. eigenvalues --   -0.77803  -0.77307  -0.73632  -0.72087  -0.69583
 Alpha  occ. eigenvalues --   -0.67545  -0.65345  -0.65177  -0.62551  -0.61013
 Alpha  occ. eigenvalues --   -0.60246  -0.57982  -0.56896  -0.55439  -0.54887
 Alpha  occ. eigenvalues --   -0.54097  -0.53332  -0.52815  -0.51737  -0.50808
 Alpha  occ. eigenvalues --   -0.50114  -0.49685  -0.48338  -0.47657  -0.47466
 Alpha  occ. eigenvalues --   -0.46727  -0.46387  -0.46020  -0.44993  -0.44474
 Alpha  occ. eigenvalues --   -0.43653  -0.43427  -0.42753  -0.42438  -0.41752
 Alpha  occ. eigenvalues --   -0.41190  -0.40729  -0.40105  -0.39203  -0.38942
 Alpha  occ. eigenvalues --   -0.37787  -0.36359  -0.33681  -0.32406  -0.30708
 Alpha virt. eigenvalues --    0.02407   0.13259   0.13984   0.15427   0.16440
 Alpha virt. eigenvalues --    0.17068   0.17573   0.18905   0.19148   0.20345
 Alpha virt. eigenvalues --    0.20598   0.21005   0.22294   0.22754   0.23423
 Alpha virt. eigenvalues --    0.23832   0.24066   0.24288   0.25065   0.25208
 Alpha virt. eigenvalues --    0.25378   0.26162   0.26734   0.26825   0.27177
 Alpha virt. eigenvalues --    0.27705   0.28247   0.29015   0.29520   0.30160
 Alpha virt. eigenvalues --    0.30777   0.31237   0.31789   0.32473   0.33091
 Alpha virt. eigenvalues --    0.33672   0.34349   0.35166   0.35638   0.36246
 Alpha virt. eigenvalues --    0.36975   0.37408   0.38911   0.39042   0.40949
 Alpha virt. eigenvalues --    0.42002   0.42062   0.44698   0.45582   0.49769
 Alpha virt. eigenvalues --    0.51855   0.58004   0.58578   0.59418   0.60338
 Alpha virt. eigenvalues --    0.61379   0.61713   0.62277   0.62525   0.64866
 Alpha virt. eigenvalues --    0.65578   0.66075   0.66649   0.68162   0.69346
 Alpha virt. eigenvalues --    0.70580   0.70866   0.72414   0.72967   0.73369
 Alpha virt. eigenvalues --    0.73839   0.74473   0.75176   0.75668   0.76527
 Alpha virt. eigenvalues --    0.77640   0.77939   0.78477   0.79922   0.81440
 Alpha virt. eigenvalues --    0.82803   0.83197   0.84178   0.85188   0.86264
 Alpha virt. eigenvalues --    0.86679   0.87375   0.88910   0.89912   0.90309
 Alpha virt. eigenvalues --    0.91292   0.92869   0.93562   0.94052   0.94728
 Alpha virt. eigenvalues --    0.95121   0.95747   0.96060   0.96868   0.97140
 Alpha virt. eigenvalues --    0.97309   0.97706   0.98017   0.98730   0.98880
 Alpha virt. eigenvalues --    0.99206   1.00610   1.00818   1.01219   1.02513
 Alpha virt. eigenvalues --    1.03441   1.03493   1.04085   1.04318   1.04861
 Alpha virt. eigenvalues --    1.05618   1.05955   1.06889   1.07523   1.08071
 Alpha virt. eigenvalues --    1.08870   1.10012   1.10728   1.11108   1.13248
 Alpha virt. eigenvalues --    1.14142   1.15097   1.16528   1.18695   1.20382
 Alpha virt. eigenvalues --    1.21260   1.23477   1.25775   1.27209   1.28585
 Alpha virt. eigenvalues --    1.29765   1.31052   1.33972   1.36055   1.38295
 Alpha virt. eigenvalues --    1.40166   1.42193   1.43630   1.46242   1.47725
 Alpha virt. eigenvalues --    1.50227   1.52315   1.53346   1.56215   1.58516
 Alpha virt. eigenvalues --    1.61216   1.62625   1.65266   1.65799   1.66756
 Alpha virt. eigenvalues --    1.69078   1.70475   1.73071   1.75109   1.76521
 Alpha virt. eigenvalues --    1.78340   1.79763   1.80235   1.82352   1.83837
 Alpha virt. eigenvalues --    1.84944   1.85657   1.87210   1.88316   1.88672
 Alpha virt. eigenvalues --    1.90339   1.90975   1.92143   1.94310   1.94742
 Alpha virt. eigenvalues --    1.96137   1.96205   1.96950   1.98875   1.99555
 Alpha virt. eigenvalues --    2.00488   2.00796   2.01766   2.02045   2.03391
 Alpha virt. eigenvalues --    2.04803   2.05453   2.06147   2.06952   2.08186
 Alpha virt. eigenvalues --    2.09482   2.10167   2.10516   2.11125   2.12097
 Alpha virt. eigenvalues --    2.12713   2.14226   2.15359   2.16324   2.18435
 Alpha virt. eigenvalues --    2.19669   2.20319   2.20734   2.22646   2.24876
 Alpha virt. eigenvalues --    2.26134   2.27561   2.29747   2.30586   2.32905
 Alpha virt. eigenvalues --    2.33775   2.35001   2.35644   2.38293   2.39987
 Alpha virt. eigenvalues --    2.40437   2.41078   2.42966   2.44095   2.45390
 Alpha virt. eigenvalues --    2.47457   2.50081   2.50699   2.51638   2.52612
 Alpha virt. eigenvalues --    2.53929   2.57176   2.58013   2.60975   2.62354
 Alpha virt. eigenvalues --    2.63362   2.64574   2.65327   2.66077   2.68204
 Alpha virt. eigenvalues --    2.69122   2.71124   2.71486   2.74933   2.76387
 Alpha virt. eigenvalues --    2.78760   2.79544   2.81183   2.82648   2.84131
 Alpha virt. eigenvalues --    2.86536   2.90239   2.93654   2.97780   2.98746
 Alpha virt. eigenvalues --    3.00586   3.02243   3.07248   3.08567   3.10142
 Alpha virt. eigenvalues --    3.20497   3.27243   3.96505   4.07756   4.24256
 Alpha virt. eigenvalues --    4.26978   4.30910   4.33844   4.35862   4.38593
 Alpha virt. eigenvalues --    4.41680   4.42562   4.47770   4.53726   4.56026
 Alpha virt. eigenvalues --    4.65050   4.66983   4.74315   4.77070   4.81013
 Alpha virt. eigenvalues --    4.85963   4.90510
          Condensed to atoms (all electrons):
               1          2          3          4          5          6
     1  C    4.433472   0.521602   0.374903  -0.001805  -0.021621  -0.026400
     2  O    0.521602   8.123508  -0.060742   0.005028   0.000301   0.002936
     3  C    0.374903  -0.060742   5.284097   0.515862  -0.044775   0.007055
     4  C   -0.001805   0.005028   0.515862   4.879704   0.377485  -0.046392
     5  C   -0.021621   0.000301  -0.044775   0.377485   5.089588   0.351819
     6  C   -0.026400   0.002936   0.007055  -0.046392   0.351819   5.150528
     7  C    0.342524  -0.079217  -0.131559   0.001962  -0.036585   0.282187
     8  C    0.003651  -0.000097  -0.037149   0.359501  -0.065718   0.004909
     9  C   -0.000131   0.000000   0.002895  -0.033791  -0.010911  -0.000281
    10  C   -0.000014   0.000000   0.000435  -0.014263  -0.038050   0.003971
    11  C   -0.000138   0.000000   0.003301  -0.031019   0.365760  -0.047492
    12  C   -0.000000   0.000000   0.000003   0.000271   0.003716  -0.000129
    13  C   -0.000000   0.000000   0.000000   0.000004   0.000045  -0.000004
    14  C    0.000000  -0.000000   0.000001  -0.000090   0.003601   0.000283
    15  C   -0.000002  -0.000000  -0.000115   0.004485  -0.043269  -0.004733
    16  C   -0.000000  -0.000000  -0.000000  -0.000001  -0.000103   0.000001
    17  C   -0.000000  -0.000000  -0.000000   0.000000   0.000001  -0.000000
    18  C    0.000000  -0.000000  -0.000000   0.000000   0.000004   0.000000
    19  C   -0.000000   0.000000   0.000000   0.000001   0.000047   0.000000
    20  O   -0.000000   0.000000   0.000000   0.000000  -0.000000   0.000000
    21  H   -0.029002   0.000812   0.360917  -0.044958   0.004486  -0.000418
    22  H    0.000796   0.000011  -0.004078  -0.045908   0.365832  -0.034696
    23  H   -0.003021   0.000058   0.003734  -0.004224  -0.041815   0.384198
    24  H    0.003557  -0.000073  -0.000349   0.004538  -0.030564   0.376823
    25  H   -0.028924  -0.000722   0.002159  -0.001669  -0.003927  -0.039886
    26  H   -0.024786   0.002913   0.005096  -0.000156   0.004024  -0.028974
    27  H    0.000251  -0.000001  -0.002421  -0.038705   0.003987  -0.000139
    28  H   -0.000116   0.000005  -0.008464  -0.039360   0.000463   0.000110
    29  H    0.000000  -0.000000  -0.000183  -0.003128   0.000500   0.000006
    30  H    0.000001  -0.000000  -0.000083   0.004106   0.000010   0.000010
    31  H    0.000004   0.000000  -0.000213  -0.004041  -0.001872   0.000171
    32  H    0.000032  -0.000000   0.000014  -0.003612  -0.041857  -0.004332
    33  H    0.000000   0.000000  -0.000001  -0.000069   0.000183   0.000001
    34  H    0.000000   0.000000  -0.000000   0.000003   0.000052  -0.000028
    35  H    0.000000  -0.000000  -0.000000   0.000001  -0.000103   0.000003
    36  H    0.000001  -0.000000  -0.000009   0.000208  -0.003179  -0.002141
    37  H   -0.000011  -0.000000   0.000017  -0.000163  -0.006656   0.002422
    38  H    0.000000  -0.000000   0.000000  -0.000001   0.000001  -0.000000
    39  H    0.000000  -0.000000  -0.000000  -0.000001   0.000001   0.000000
    40  H    0.000000  -0.000000   0.000000   0.000000  -0.000000   0.000000
    41  H    0.000000  -0.000000   0.000000  -0.000000  -0.000000   0.000000
    42  H    0.000000  -0.000000  -0.000000   0.000000   0.000000  -0.000000
    43  H   -0.000000   0.000000   0.000000   0.000000  -0.000002  -0.000000
    44  H    0.000000   0.000000  -0.000000  -0.000000  -0.000004   0.000000
    45  H    0.000000  -0.000000  -0.000000  -0.000000   0.000086   0.000002
    46  H   -0.000000   0.000000  -0.000000   0.000000  -0.000000  -0.000000
               7          8          9         10         11         12
     1  C    0.342524   0.003651  -0.000131  -0.000014  -0.000138  -0.000000
     2  O   -0.079217  -0.000097   0.000000   0.000000   0.000000   0.000000
     3  C   -0.131559  -0.037149   0.002895   0.000435   0.003301   0.000003
     4  C    0.001962   0.359501  -0.033791  -0.014263  -0.031019   0.000271
     5  C   -0.036585  -0.065718  -0.010911  -0.038050   0.365760   0.003716
     6  C    0.282187   0.004909  -0.000281   0.003971  -0.047492  -0.000129
     7  C    5.353902  -0.000138   0.000038  -0.000092   0.004553   0.000002
     8  C   -0.000138   5.152980   0.335844  -0.042340  -0.015394   0.003829
     9  C    0.000038   0.335844   5.099231   0.368747  -0.043041  -0.041852
    10  C   -0.000092  -0.042340   0.368747   5.012572   0.371730   0.368392
    11  C    0.004553  -0.015394  -0.043041   0.371730   5.045304  -0.037548
    12  C    0.000002   0.003829  -0.041852   0.368392  -0.037548   5.111322
    13  C    0.000000  -0.000125   0.004229  -0.026609  -0.011778   0.343320
    14  C   -0.000003  -0.000011  -0.000063  -0.011551  -0.038768  -0.049578
    15  C    0.000213   0.000328   0.004254  -0.039103   0.364405  -0.016822
    16  C   -0.000000   0.000049  -0.003385  -0.032779   0.004141   0.356995
    17  C    0.000000  -0.000001   0.000110   0.003764  -0.000168  -0.055964
    18  C   -0.000000   0.000002  -0.000119   0.004128   0.000138  -0.064783
    19  C    0.000000  -0.000001   0.000192  -0.006132  -0.002500  -0.060015
    20  O    0.000000  -0.000000   0.000000  -0.000055  -0.000002   0.003567
    21  H    0.006219  -0.007062   0.000221  -0.000000  -0.000077   0.000000
    22  H   -0.005524   0.001172  -0.000680  -0.006008  -0.044686   0.000035
    23  H   -0.039604   0.000001  -0.000034   0.000096  -0.002821  -0.000001
    24  H   -0.030797  -0.000104  -0.000006  -0.000051  -0.008307  -0.000002
    25  H    0.367857  -0.000038  -0.000002   0.000001   0.000041   0.000000
    26  H    0.368629   0.000008   0.000000   0.000001  -0.000065  -0.000000
    27  H    0.000010   0.378962  -0.030560   0.004037  -0.000143  -0.000104
    28  H   -0.000088   0.378595  -0.040050  -0.004375  -0.000748  -0.000026
    29  H   -0.000003  -0.036096   0.379175  -0.039161  -0.008051  -0.004266
    30  H   -0.000000  -0.031965   0.378902  -0.031868   0.004793  -0.006344
    31  H   -0.000012   0.000291  -0.049288   0.380603  -0.050423  -0.042897
    32  H   -0.000107   0.000084  -0.006801  -0.047832   0.375353  -0.004208
    33  H   -0.000000   0.000084  -0.005844  -0.045048  -0.006218   0.379514
    34  H   -0.000000   0.000000  -0.000031  -0.000362  -0.003632  -0.006333
    35  H   -0.000000  -0.000000   0.000010  -0.000119   0.004109   0.006406
    36  H   -0.000090  -0.000009  -0.000026  -0.003222  -0.045023  -0.000283
    37  H    0.000098  -0.000010  -0.000118   0.004171  -0.029853   0.000086
    38  H    0.000000  -0.000011   0.001347  -0.001594  -0.000076  -0.025931
    39  H   -0.000000  -0.000030  -0.000524  -0.004162   0.000066  -0.038325
    40  H   -0.000000  -0.000000  -0.000005  -0.000056   0.000003   0.001329
    41  H   -0.000000  -0.000000   0.000002  -0.000133   0.000002   0.003502
    42  H   -0.000000  -0.000000   0.000006  -0.000158  -0.000019  -0.000724
    43  H    0.000000  -0.000000  -0.000025  -0.000103   0.000038  -0.003937
    44  H    0.000000  -0.000000  -0.000000   0.000018   0.000085   0.005484
    45  H   -0.000000   0.000012  -0.000017   0.001345  -0.000526  -0.006720
    46  H   -0.000000   0.000000  -0.000000   0.000001   0.000000   0.000010
              13         14         15         16         17         18
     1  C   -0.000000   0.000000  -0.000002  -0.000000  -0.000000   0.000000
     2  O    0.000000  -0.000000  -0.000000  -0.000000  -0.000000  -0.000000
     3  C    0.000000   0.000001  -0.000115  -0.000000  -0.000000  -0.000000
     4  C    0.000004  -0.000090   0.004485  -0.000001   0.000000   0.000000
     5  C    0.000045   0.003601  -0.043269  -0.000103   0.000001   0.000004
     6  C   -0.000004   0.000283  -0.004733   0.000001  -0.000000   0.000000
     7  C    0.000000  -0.000003   0.000213  -0.000000   0.000000  -0.000000
     8  C   -0.000125  -0.000011   0.000328   0.000049  -0.000001   0.000002
     9  C    0.004229  -0.000063   0.004254  -0.003385   0.000110  -0.000119
    10  C   -0.026609  -0.011551  -0.039103  -0.032779   0.003764   0.004128
    11  C   -0.011778  -0.038768   0.364405   0.004141  -0.000168   0.000138
    12  C    0.343320  -0.049578  -0.016822   0.356995  -0.055964  -0.064783
    13  C    5.105904   0.372949  -0.038263  -0.050409  -0.084897   0.356451
    14  C    0.372949   5.121203   0.352091   0.005848   0.006660  -0.041091
    15  C   -0.038263   0.352091   5.094929   0.000228  -0.000223   0.004430
    16  C   -0.050409   0.005848   0.000228   5.117090   0.335284  -0.065705
    17  C   -0.084897   0.006660  -0.000223   0.335284   5.165764   0.365646
    18  C    0.356451  -0.041091   0.004430  -0.065705   0.365646   4.835921
    19  C    0.346396  -0.064840  -0.003121  -0.003870  -0.007972  -0.052485
    20  O   -0.055170   0.000993   0.000026   0.002184  -0.041778   0.238492
    21  H   -0.000000  -0.000000   0.000002  -0.000000  -0.000000  -0.000000
    22  H   -0.000037   0.000038  -0.007113  -0.000001   0.000000  -0.000000
    23  H   -0.000000  -0.000050  -0.001663   0.000000   0.000000  -0.000000
    24  H   -0.000003   0.000082   0.004099   0.000000   0.000000   0.000000
    25  H   -0.000000  -0.000000  -0.000034   0.000000   0.000000  -0.000000
    26  H   -0.000000  -0.000000   0.000000   0.000000  -0.000000   0.000000
    27  H    0.000001  -0.000000   0.000008  -0.000001  -0.000000  -0.000000
    28  H    0.000003   0.000000  -0.000008  -0.000009  -0.000000  -0.000000
    29  H   -0.000009  -0.000006   0.000078  -0.000430  -0.000018  -0.000003
    30  H    0.000017  -0.000004  -0.000122   0.003595  -0.000007  -0.000007
    31  H   -0.009117   0.000399  -0.002469  -0.003989  -0.000030   0.000088
    32  H   -0.001127  -0.000156  -0.044914  -0.000056   0.000004  -0.000057
    33  H   -0.053633  -0.006166  -0.000846  -0.044932  -0.001737  -0.002564
    34  H   -0.039378   0.375750  -0.036416   0.000028   0.000110  -0.006124
    35  H   -0.034809   0.370700  -0.032690  -0.000226   0.000026  -0.003198
    36  H   -0.007146  -0.034592   0.381458  -0.000014   0.000002  -0.000042
    37  H    0.004704  -0.034067   0.380319   0.000008   0.000003  -0.000078
    38  H    0.004800  -0.000143  -0.000004   0.377887  -0.027740   0.002808
    39  H   -0.005480   0.000006  -0.000018   0.385550  -0.034796   0.002083
    40  H    0.004624  -0.000132   0.000003  -0.030146   0.378469  -0.026484
    41  H   -0.003363  -0.000112   0.000004  -0.028994   0.376349  -0.030990
    42  H   -0.066112  -0.009529   0.000135   0.002346  -0.044067   0.386159
    43  H   -0.029188   0.004627   0.000023   0.001465   0.003498  -0.005845
    44  H   -0.028926  -0.004561  -0.000478  -0.000218   0.000174  -0.005261
    45  H   -0.032235  -0.005150   0.002144  -0.000083  -0.000177   0.005003
    46  H   -0.000684   0.001512  -0.000020  -0.000260   0.006112  -0.018685
              19         20         21         22         23         24
     1  C   -0.000000  -0.000000  -0.029002   0.000796  -0.003021   0.003557
     2  O    0.000000   0.000000   0.000812   0.000011   0.000058  -0.000073
     3  C    0.000000   0.000000   0.360917  -0.004078   0.003734  -0.000349
     4  C    0.000001   0.000000  -0.044958  -0.045908  -0.004224   0.004538
     5  C    0.000047  -0.000000   0.004486   0.365832  -0.041815  -0.030564
     6  C    0.000000   0.000000  -0.000418  -0.034696   0.384198   0.376823
     7  C    0.000000   0.000000   0.006219  -0.005524  -0.039604  -0.030797
     8  C   -0.000001  -0.000000  -0.007062   0.001172   0.000001  -0.000104
     9  C    0.000192   0.000000   0.000221  -0.000680  -0.000034  -0.000006
    10  C   -0.006132  -0.000055  -0.000000  -0.006008   0.000096  -0.000051
    11  C   -0.002500  -0.000002  -0.000077  -0.044686  -0.002821  -0.008307
    12  C   -0.060015   0.003567   0.000000   0.000035  -0.000001  -0.000002
    13  C    0.346396  -0.055170  -0.000000  -0.000037  -0.000000  -0.000003
    14  C   -0.064840   0.000993  -0.000000   0.000038  -0.000050   0.000082
    15  C   -0.003121   0.000026   0.000002  -0.007113  -0.001663   0.004099
    16  C   -0.003870   0.002184  -0.000000  -0.000001   0.000000   0.000000
    17  C   -0.007972  -0.041778  -0.000000   0.000000   0.000000   0.000000
    18  C   -0.052485   0.238492  -0.000000  -0.000000  -0.000000   0.000000
    19  C    5.206141   0.002006   0.000000  -0.000073  -0.000000  -0.000001
    20  O    0.002006   8.290381   0.000000  -0.000000  -0.000000   0.000000
    21  H    0.000000   0.000000   0.530805  -0.000218  -0.000086   0.000012
    22  H   -0.000073  -0.000000  -0.000218   0.593476   0.005416  -0.003364
    23  H   -0.000000  -0.000000  -0.000086   0.005416   0.556043  -0.030937
    24  H   -0.000001   0.000000   0.000012  -0.003364  -0.030937   0.552424
    25  H   -0.000000   0.000000  -0.000166   0.005620   0.004995  -0.004741
    26  H    0.000000  -0.000000  -0.000099  -0.000154  -0.002794  -0.002497
    27  H    0.000000   0.000000   0.004943  -0.000104  -0.000000   0.000002
    28  H   -0.000004  -0.000000   0.000191   0.001566   0.000002   0.000008
    29  H   -0.000003   0.000000  -0.000008   0.000097  -0.000003   0.000002
    30  H   -0.000006  -0.000000  -0.000007  -0.000013   0.000000   0.000000
    31  H    0.002116  -0.000000  -0.000002   0.006099   0.000006   0.000000
    32  H    0.000051   0.000000  -0.000015   0.006156   0.004631   0.000060
    33  H    0.006463   0.000027  -0.000000   0.000004  -0.000001  -0.000000
    34  H    0.005991  -0.000077  -0.000000   0.000003   0.000003   0.000009
    35  H   -0.006206   0.002426   0.000000  -0.000003   0.000000   0.000005
    36  H    0.002831  -0.000001  -0.000000   0.005685   0.000193   0.001387
    37  H    0.000033   0.000001   0.000000   0.000033   0.000961   0.000291
    38  H    0.000124  -0.000029  -0.000000   0.000000   0.000000  -0.000000
    39  H    0.002286  -0.000015   0.000000  -0.000002  -0.000000  -0.000000
    40  H    0.000112   0.001966   0.000000  -0.000000  -0.000000  -0.000000
    41  H    0.001575   0.001177  -0.000000  -0.000000  -0.000000   0.000000
    42  H    0.007196  -0.035929  -0.000000  -0.000000  -0.000000   0.000000
    43  H    0.379842   0.000030   0.000000   0.000001   0.000000   0.000000
    44  H    0.376141   0.006119   0.000000   0.000001   0.000000   0.000000
    45  H    0.374227   0.000236  -0.000000   0.000145   0.000000  -0.000002
    46  H   -0.000507   0.240991   0.000000   0.000000   0.000000   0.000000
              25         26         27         28         29         30
     1  C   -0.028924  -0.024786   0.000251  -0.000116   0.000000   0.000001
     2  O   -0.000722   0.002913  -0.000001   0.000005  -0.000000  -0.000000
     3  C    0.002159   0.005096  -0.002421  -0.008464  -0.000183  -0.000083
     4  C   -0.001669  -0.000156  -0.038705  -0.039360  -0.003128   0.004106
     5  C   -0.003927   0.004024   0.003987   0.000463   0.000500   0.000010
     6  C   -0.039886  -0.028974  -0.000139   0.000110   0.000006   0.000010
     7  C    0.367857   0.368629   0.000010  -0.000088  -0.000003  -0.000000
     8  C   -0.000038   0.000008   0.378962   0.378595  -0.036096  -0.031965
     9  C   -0.000002   0.000000  -0.030560  -0.040050   0.379175   0.378902
    10  C    0.000001   0.000001   0.004037  -0.004375  -0.039161  -0.031868
    11  C    0.000041  -0.000065  -0.000143  -0.000748  -0.008051   0.004793
    12  C    0.000000  -0.000000  -0.000104  -0.000026  -0.004266  -0.006344
    13  C   -0.000000  -0.000000   0.000001   0.000003  -0.000009   0.000017
    14  C   -0.000000  -0.000000  -0.000000   0.000000  -0.000006  -0.000004
    15  C   -0.000034   0.000000   0.000008  -0.000008   0.000078  -0.000122
    16  C    0.000000   0.000000  -0.000001  -0.000009  -0.000430   0.003595
    17  C    0.000000  -0.000000  -0.000000  -0.000000  -0.000018  -0.000007
    18  C   -0.000000   0.000000  -0.000000  -0.000000  -0.000003  -0.000007
    19  C   -0.000000   0.000000   0.000000  -0.000004  -0.000003  -0.000006
    20  O    0.000000  -0.000000   0.000000  -0.000000   0.000000  -0.000000
    21  H   -0.000166  -0.000099   0.004943   0.000191  -0.000008  -0.000007
    22  H    0.005620  -0.000154  -0.000104   0.001566   0.000097  -0.000013
    23  H    0.004995  -0.002794  -0.000000   0.000002  -0.000003   0.000000
    24  H   -0.004741  -0.002497   0.000002   0.000008   0.000002   0.000000
    25  H    0.537154  -0.021731  -0.000000   0.000011   0.000000   0.000000
    26  H   -0.021731   0.504036   0.000000  -0.000001  -0.000000   0.000000
    27  H   -0.000000   0.000000   0.529780  -0.026703  -0.003405  -0.001431
    28  H    0.000011  -0.000001  -0.026703   0.551806   0.004931  -0.005303
    29  H    0.000000  -0.000000  -0.003405   0.004931   0.567933  -0.031532
    30  H    0.000000   0.000000  -0.001431  -0.005303  -0.031532   0.552978
    31  H   -0.000002   0.000000   0.000029   0.004433   0.005658  -0.002898
    32  H    0.000009  -0.000001  -0.000049   0.000116   0.006234   0.000067
    33  H   -0.000000   0.000000   0.000003   0.000004   0.004488  -0.000061
    34  H    0.000000   0.000000  -0.000000  -0.000000  -0.000006   0.000001
    35  H    0.000000   0.000000   0.000000  -0.000000   0.000000  -0.000000
    36  H    0.000009   0.000001  -0.000000  -0.000001  -0.000000   0.000004
    37  H    0.000011   0.000001  -0.000000   0.000000  -0.000005   0.000002
    38  H    0.000000  -0.000000   0.000001   0.000003   0.000215   0.000617
    39  H   -0.000000   0.000000   0.000001  -0.000000   0.000060   0.000511
    40  H    0.000000   0.000000   0.000000   0.000000  -0.000000   0.000002
    41  H   -0.000000   0.000000   0.000000   0.000000   0.000000   0.000001
    42  H   -0.000000   0.000000   0.000000  -0.000000  -0.000002  -0.000000
    43  H    0.000000  -0.000000  -0.000000   0.000000   0.000000   0.000000
    44  H    0.000000  -0.000000   0.000000   0.000000   0.000000  -0.000000
    45  H    0.000000   0.000000  -0.000000  -0.000005  -0.000001   0.000004
    46  H    0.000000   0.000000  -0.000000   0.000000   0.000000   0.000000
              31         32         33         34         35         36
     1  C    0.000004   0.000032   0.000000   0.000000   0.000000   0.000001
     2  O    0.000000  -0.000000   0.000000   0.000000  -0.000000  -0.000000
     3  C   -0.000213   0.000014  -0.000001  -0.000000  -0.000000  -0.000009
     4  C   -0.004041  -0.003612  -0.000069   0.000003   0.000001   0.000208
     5  C   -0.001872  -0.041857   0.000183   0.000052  -0.000103  -0.003179
     6  C    0.000171  -0.004332   0.000001  -0.000028   0.000003  -0.002141
     7  C   -0.000012  -0.000107  -0.000000  -0.000000  -0.000000  -0.000090
     8  C    0.000291   0.000084   0.000084   0.000000  -0.000000  -0.000009
     9  C   -0.049288  -0.006801  -0.005844  -0.000031   0.000010  -0.000026
    10  C    0.380603  -0.047832  -0.045048  -0.000362  -0.000119  -0.003222
    11  C   -0.050423   0.375353  -0.006218  -0.003632   0.004109  -0.045023
    12  C   -0.042897  -0.004208   0.379514  -0.006333   0.006406  -0.000283
    13  C   -0.009117  -0.001127  -0.053633  -0.039378  -0.034809  -0.007146
    14  C    0.000399  -0.000156  -0.006166   0.375750   0.370700  -0.034592
    15  C   -0.002469  -0.044914  -0.000846  -0.036416  -0.032690   0.381458
    16  C   -0.003989  -0.000056  -0.044932   0.000028  -0.000226  -0.000014
    17  C   -0.000030   0.000004  -0.001737   0.000110   0.000026   0.000002
    18  C    0.000088  -0.000057  -0.002564  -0.006124  -0.003198  -0.000042
    19  C    0.002116   0.000051   0.006463   0.005991  -0.006206   0.002831
    20  O   -0.000000   0.000000   0.000027  -0.000077   0.002426  -0.000001
    21  H   -0.000002  -0.000015  -0.000000  -0.000000   0.000000  -0.000000
    22  H    0.006099   0.006156   0.000004   0.000003  -0.000003   0.005685
    23  H    0.000006   0.004631  -0.000001   0.000003   0.000000   0.000193
    24  H    0.000000   0.000060  -0.000000   0.000009   0.000005   0.001387
    25  H   -0.000002   0.000009  -0.000000   0.000000   0.000000   0.000009
    26  H    0.000000  -0.000001   0.000000   0.000000   0.000000   0.000001
    27  H    0.000029  -0.000049   0.000003  -0.000000   0.000000  -0.000000
    28  H    0.004433   0.000116   0.000004  -0.000000  -0.000000  -0.000001
    29  H    0.005658   0.006234   0.004488  -0.000006   0.000000  -0.000000
    30  H   -0.002898   0.000067  -0.000061   0.000001  -0.000000   0.000004
    31  H    0.610162   0.006121   0.006213   0.000039  -0.000011   0.001463
    32  H    0.006121   0.609151   0.004914   0.002871  -0.000087   0.005535
    33  H    0.006213   0.004914   0.626208   0.005272   0.000025   0.000075
    34  H    0.000039   0.002871   0.005272   0.586854  -0.032512   0.004965
    35  H   -0.000011  -0.000087   0.000025  -0.032512   0.576214  -0.004728
    36  H    0.001463   0.005535   0.000075   0.004965  -0.004728   0.574343
    37  H   -0.000078  -0.005914  -0.000099  -0.005243  -0.001549  -0.032687
    38  H   -0.000148  -0.000001  -0.005984  -0.000002   0.000003   0.000000
    39  H    0.004007   0.000004   0.005221  -0.000005   0.000004  -0.000003
    40  H    0.000001  -0.000000   0.000454  -0.000014  -0.000000   0.000000
    41  H   -0.000011  -0.000000  -0.000049  -0.000000   0.000002  -0.000000
    42  H   -0.000011  -0.000006   0.004425   0.006697   0.000164  -0.000001
    43  H    0.000147   0.000001  -0.000063  -0.000133  -0.000016  -0.000023
    44  H   -0.000032   0.000002  -0.000107   0.000047   0.004853   0.000435
    45  H    0.003692  -0.000016   0.000006  -0.000079  -0.000137   0.001226
    46  H    0.000000   0.000000  -0.000010   0.000011   0.000670   0.000001
              37         38         39         40         41         42
     1  C   -0.000011   0.000000   0.000000   0.000000   0.000000   0.000000
     2  O   -0.000000  -0.000000  -0.000000  -0.000000  -0.000000  -0.000000
     3  C    0.000017   0.000000  -0.000000   0.000000   0.000000  -0.000000
     4  C   -0.000163  -0.000001  -0.000001   0.000000  -0.000000   0.000000
     5  C   -0.006656   0.000001   0.000001  -0.000000  -0.000000   0.000000
     6  C    0.002422  -0.000000   0.000000   0.000000   0.000000  -0.000000
     7  C    0.000098   0.000000  -0.000000  -0.000000  -0.000000  -0.000000
     8  C   -0.000010  -0.000011  -0.000030  -0.000000  -0.000000  -0.000000
     9  C   -0.000118   0.001347  -0.000524  -0.000005   0.000002   0.000006
    10  C    0.004171  -0.001594  -0.004162  -0.000056  -0.000133  -0.000158
    11  C   -0.029853  -0.000076   0.000066   0.000003   0.000002  -0.000019
    12  C    0.000086  -0.025931  -0.038325   0.001329   0.003502  -0.000724
    13  C    0.004704   0.004800  -0.005480   0.004624  -0.003363  -0.066112
    14  C   -0.034067  -0.000143   0.000006  -0.000132  -0.000112  -0.009529
    15  C    0.380319  -0.000004  -0.000018   0.000003   0.000004   0.000135
    16  C    0.000008   0.377887   0.385550  -0.030146  -0.028994   0.002346
    17  C    0.000003  -0.027740  -0.034796   0.378469   0.376349  -0.044067
    18  C   -0.000078   0.002808   0.002083  -0.026484  -0.030990   0.386159
    19  C    0.000033   0.000124   0.002286   0.000112   0.001575   0.007196
    20  O    0.000001  -0.000029  -0.000015   0.001966   0.001177  -0.035929
    21  H    0.000000  -0.000000   0.000000   0.000000  -0.000000  -0.000000
    22  H    0.000033   0.000000  -0.000002  -0.000000  -0.000000  -0.000000
    23  H    0.000961   0.000000  -0.000000  -0.000000  -0.000000  -0.000000
    24  H    0.000291  -0.000000  -0.000000  -0.000000   0.000000   0.000000
    25  H    0.000011   0.000000  -0.000000   0.000000  -0.000000  -0.000000
    26  H    0.000001  -0.000000   0.000000   0.000000   0.000000   0.000000
    27  H   -0.000000   0.000001   0.000001   0.000000   0.000000   0.000000
    28  H    0.000000   0.000003  -0.000000   0.000000   0.000000  -0.000000
    29  H   -0.000005   0.000215   0.000060  -0.000000   0.000000  -0.000002
    30  H    0.000002   0.000617   0.000511   0.000002   0.000001  -0.000000
    31  H   -0.000078  -0.000148   0.004007   0.000001  -0.000011  -0.000011
    32  H   -0.005914  -0.000001   0.000004  -0.000000  -0.000000  -0.000006
    33  H   -0.000099  -0.005984   0.005221   0.000454  -0.000049   0.004425
    34  H   -0.005243  -0.000002  -0.000005  -0.000014  -0.000000   0.006697
    35  H   -0.001549   0.000003   0.000004  -0.000000   0.000002   0.000164
    36  H   -0.032687   0.000000  -0.000003   0.000000  -0.000000  -0.000001
    37  H    0.558206  -0.000000  -0.000000  -0.000000  -0.000000  -0.000007
    38  H   -0.000000   0.549327  -0.033654  -0.006197   0.002601  -0.000060
    39  H   -0.000000  -0.033654   0.564189   0.003617  -0.009648  -0.000171
    40  H   -0.000000  -0.006197   0.003617   0.541262  -0.027893  -0.007827
    41  H   -0.000000   0.002601  -0.009648  -0.027893   0.528508   0.004967
    42  H   -0.000007  -0.000060  -0.000171  -0.007827   0.004967   0.632336
    43  H   -0.000000   0.000033   0.000954  -0.000025   0.000817   0.000035
    44  H   -0.000033  -0.000000   0.000007  -0.000005   0.000078   0.000081
    45  H    0.000044  -0.000014   0.000131  -0.000001   0.000017  -0.000095
    46  H    0.000000   0.000004   0.000002  -0.000225  -0.000109  -0.008520
              43         44         45         46
     1  C   -0.000000   0.000000   0.000000  -0.000000
     2  O    0.000000   0.000000  -0.000000   0.000000
     3  C    0.000000  -0.000000  -0.000000  -0.000000
     4  C    0.000000  -0.000000  -0.000000   0.000000
     5  C   -0.000002  -0.000004   0.000086  -0.000000
     6  C   -0.000000   0.000000   0.000002  -0.000000
     7  C    0.000000   0.000000  -0.000000  -0.000000
     8  C   -0.000000  -0.000000   0.000012   0.000000
     9  C   -0.000025  -0.000000  -0.000017  -0.000000
    10  C   -0.000103   0.000018   0.001345   0.000001
    11  C    0.000038   0.000085  -0.000526   0.000000
    12  C   -0.003937   0.005484  -0.006720   0.000010
    13  C   -0.029188  -0.028926  -0.032235  -0.000684
    14  C    0.004627  -0.004561  -0.005150   0.001512
    15  C    0.000023  -0.000478   0.002144  -0.000020
    16  C    0.001465  -0.000218  -0.000083  -0.000260
    17  C    0.003498   0.000174  -0.000177   0.006112
    18  C   -0.005845  -0.005261   0.005003  -0.018685
    19  C    0.379842   0.376141   0.374227  -0.000507
    20  O    0.000030   0.006119   0.000236   0.240991
    21  H    0.000000   0.000000  -0.000000   0.000000
    22  H    0.000001   0.000001   0.000145   0.000000
    23  H    0.000000   0.000000   0.000000   0.000000
    24  H    0.000000   0.000000  -0.000002   0.000000
    25  H    0.000000   0.000000   0.000000   0.000000
    26  H   -0.000000  -0.000000   0.000000   0.000000
    27  H   -0.000000   0.000000  -0.000000  -0.000000
    28  H    0.000000   0.000000  -0.000005   0.000000
    29  H    0.000000   0.000000  -0.000001   0.000000
    30  H    0.000000  -0.000000   0.000004   0.000000
    31  H    0.000147  -0.000032   0.003692   0.000000
    32  H    0.000001   0.000002  -0.000016   0.000000
    33  H   -0.000063  -0.000107   0.000006  -0.000010
    34  H   -0.000133   0.000047  -0.000079   0.000011
    35  H   -0.000016   0.004853  -0.000137   0.000670
    36  H   -0.000023   0.000435   0.001226   0.000001
    37  H   -0.000000  -0.000033   0.000044   0.000000
    38  H    0.000033  -0.000000  -0.000014   0.000004
    39  H    0.000954   0.000007   0.000131   0.000002
    40  H   -0.000025  -0.000005  -0.000001  -0.000225
    41  H    0.000817   0.000078   0.000017  -0.000109
    42  H    0.000035   0.000081  -0.000095  -0.008520
    43  H    0.531172  -0.023384  -0.028614   0.000016
    44  H   -0.023384   0.526454  -0.031553   0.000013
    45  H   -0.028614  -0.031553   0.561559  -0.000020
    46  H    0.000016   0.000013  -0.000020   0.371963
 Mulliken charges:
               1
     1  C    0.455176
     2  O   -0.516325
     3  C   -0.270349
     4  C    0.160196
     5  C   -0.180983
     6  C   -0.331391
     7  C   -0.404372
     8  C   -0.384003
     9  C   -0.307618
    10  C   -0.128770
    11  C   -0.115304
    12  C   -0.120991
    13  C    0.035053
    14  C   -0.316080
    15  C   -0.321212
    16  C   -0.327088
    17  C   -0.342402
    18  C    0.122167
    19  C   -0.506035
    20  O   -0.657567
    21  H    0.173511
    22  H    0.160476
    23  H    0.166718
    24  H    0.168502
    25  H    0.183974
    26  H    0.196548
    27  H    0.181752
    28  H    0.183014
    29  H    0.156939
    30  H    0.166031
    31  H    0.135803
    32  H    0.139740
    33  H    0.129849
    34  H    0.141669
    35  H    0.150772
    36  H    0.153399
    37  H    0.165162
    38  H    0.161819
    39  H    0.158131
    40  H    0.167168
    41  H    0.181701
    42  H    0.128692
    43  H    0.168659
    44  H    0.174569
    45  H    0.155567
    46  H    0.407732
 Sum of Mulliken charges =  -0.00000
 Mulliken charges with hydrogens summed into heavy atoms:
               1
     1  C    0.455176
     2  O   -0.516325
     3  C   -0.096838
     4  C    0.160196
     5  C   -0.020507
     6  C    0.003830
     7  C   -0.023850
     8  C   -0.019236
     9  C    0.015352
    10  C    0.007033
    11  C    0.024436
    12  C    0.008858
    13  C    0.035053
    14  C   -0.023639
    15  C   -0.002651
    16  C   -0.007138
    17  C    0.006467
    18  C    0.250859
    19  C   -0.007241
    20  O   -0.249834
 Electronic spatial extent (au):  <R**2>=           6887.2169
 Charge=             -0.0000 electrons
 Dipole moment (field-independent basis, Debye):
    X=             -4.1581    Y=             -0.2534    Z=             -0.7957  Tot=              4.2412
 Quadrupole moment (field-independent basis, Debye-Ang):
   XX=           -168.5410   YY=           -112.4294   ZZ=           -118.3563
   XY=              0.9504   XZ=              7.0437   YZ=              2.2038
 Traceless Quadrupole moment (field-independent basis, Debye-Ang):
   XX=            -35.4321   YY=             20.6795   ZZ=             14.7526
   XY=              0.9504   XZ=              7.0437   YZ=              2.2038
 Octapole moment (field-independent basis, Debye-Ang**2):
  XXX=           -232.8166  YYY=            -11.1165  ZZZ=             -0.2947  XYY=             -4.2761
  XXY=            -10.3628  XXZ=            -27.7287  XZZ=             -4.7655  YZZ=             -3.1879
  YYZ=             -4.3735  XYZ=            -11.5924
 Hexadecapole moment (field-independent basis, Debye-Ang**3):
 XXXX=          -9369.0361 YYYY=          -1403.0316 ZZZZ=           -405.3549 XXXY=             52.0201
 XXXZ=            155.7084 YYYX=             78.5959 YYYZ=              4.2104 ZZZX=             13.4316
 ZZZY=              4.7948 XXYY=          -1282.7943 XXZZ=          -1213.1849 YYZZ=           -306.4065
 XXYZ=             54.2146 YYXZ=             18.8300 ZZXY=              2.4062
 N-N= 1.664136685232D+03 E-N=-5.305352333280D+03  KE= 8.439520512860D+02

 **********************************************************************

            Electrostatic Properties Using The SCF Density.

 **********************************************************************

       Atomic Center    1 is at   4.676880 -0.171978  0.010995
       Atomic Center    2 is at   5.924978 -0.103754 -0.001836
       Atomic Center    3 is at   3.848697  0.986641 -0.151201
       Atomic Center    4 is at   2.503277  0.919442  0.031291
       Atomic Center    5 is at   1.781848 -0.397035  0.198860
       Atomic Center    6 is at   2.631039 -1.569864 -0.296328
       Atomic Center    7 is at   4.027261 -1.491574  0.298273
       Atomic Center    8 is at   1.714741  2.175428  0.216724
       Atomic Center    9 is at   0.283456  2.124204 -0.315101
       Atomic Center   10 is at  -0.420273  0.842092  0.127667
       Atomic Center   11 is at   0.369243 -0.368278 -0.417009
       Atomic Center   12 is at  -1.869343  0.759675 -0.332880
       Atomic Center   13 is at  -2.551238 -0.563806  0.075956
       Atomic Center   14 is at  -1.815489 -1.720652 -0.592768
       Atomic Center   15 is at  -0.331090 -1.723615 -0.214515
       Atomic Center   16 is at  -2.866823  1.833092  0.119787
       Atomic Center   17 is at  -4.248651  1.180002 -0.127487
       Atomic Center   18 is at  -3.956987 -0.289922 -0.479214
       Atomic Center   19 is at  -2.602402 -0.759611  1.600505
       Atomic Center   20 is at  -4.999725 -1.157589  0.006319
       Atomic Center   21 is at   4.352410  1.939235 -0.286360
       Atomic Center   22 is at   1.648072 -0.495520  1.288654
       Atomic Center   23 is at   2.684801 -1.554183 -1.394912
       Atomic Center   24 is at   2.177308 -2.522990 -0.009770
       Atomic Center   25 is at   3.954984 -1.574006  1.391295
       Atomic Center   26 is at   4.684151 -2.301049 -0.035131
       Atomic Center   27 is at   2.260280  3.031896 -0.189803
       Atomic Center   28 is at   1.691877  2.334767  1.307710
       Atomic Center   29 is at   0.294763  2.173137 -1.412104
       Atomic Center   30 is at  -0.257599  3.009438  0.034011
       Atomic Center   31 is at  -0.394728  0.811122  1.226316
       Atomic Center   32 is at   0.474750 -0.206771 -1.503419
       Atomic Center   33 is at  -1.853776  0.771422 -1.438603
       Atomic Center   34 is at  -1.911717 -1.625870 -1.685585
       Atomic Center   35 is at  -2.262873 -2.684457 -0.315281
       Atomic Center   36 is at  -0.212755 -2.034804  0.831742
       Atomic Center   37 is at   0.173768 -2.479171 -0.827356
       Atomic Center   38 is at  -2.745501  2.777697 -0.413347
       Atomic Center   39 is at  -2.744636  2.054881  1.183780
       Atomic Center   40 is at  -4.808251  1.669607 -0.931377
       Atomic Center   41 is at  -4.860478  1.227954  0.773851
       Atomic Center   42 is at  -3.921335 -0.407464 -1.571635
       Atomic Center   43 is at  -3.219003 -0.002949  2.095983
       Atomic Center   44 is at  -3.014622 -1.742386  1.841046
       Atomic Center   45 is at  -1.607194 -0.731383  2.050712
       Atomic Center   46 is at  -5.029600 -1.932843 -0.567602
 -----------------------------------------------------------------

              Electrostatic Properties (Atomic Units)

 -----------------------------------------------------------------
    Center     Electric         -------- Electric Field --------
               Potential          X             Y             Z
 -----------------------------------------------------------------
    1 Atom    -14.674641      0.005317     -0.002161     -0.000344
    2 Atom    -22.356450      0.103607      0.005476     -0.001369
    3 Atom    -14.747497     -0.009716     -0.000377      0.001472
    4 Atom    -14.709181      0.012515      0.000541     -0.002467
    5 Atom    -14.718455     -0.002463     -0.003317     -0.001775
    6 Atom    -14.732067     -0.000165     -0.001298     -0.000099
    7 Atom    -14.741905      0.000996     -0.000806     -0.002194
    8 Atom    -14.725822     -0.001724      0.002329     -0.000772
    9 Atom    -14.732683     -0.002444     -0.001727     -0.000363
   10 Atom    -14.730942     -0.001155     -0.000095     -0.001076
   11 Atom    -14.725509     -0.002045      0.000929      0.000437
   12 Atom    -14.737026      0.000028     -0.001909      0.002996
   13 Atom    -14.734646     -0.001414      0.001794     -0.002262
   14 Atom    -14.737815     -0.001832      0.003126      0.001706
   15 Atom    -14.734972     -0.000226      0.000055     -0.000355
   16 Atom    -14.740290      0.001272     -0.000115      0.000074
   17 Atom    -14.744240     -0.001869     -0.000889      0.000976
   18 Atom    -14.690299      0.017233      0.011264     -0.005054
   19 Atom    -14.751044     -0.001052     -0.001124     -0.001060
   20 Atom    -22.314848     -0.064638      0.028247      0.089708
   21 Atom     -1.105675      0.016849      0.028720     -0.003641
   22 Atom     -1.103487     -0.005686     -0.007842      0.032384
   23 Atom     -1.116779      0.001079      0.000001     -0.028964
   24 Atom     -1.117642     -0.013629     -0.025938      0.006431
   25 Atom     -1.106396      0.000048     -0.005064      0.031242
   26 Atom     -1.116793      0.019977     -0.018698     -0.009483
   27 Atom     -1.108983      0.015373      0.023935     -0.012035
   28 Atom     -1.102156     -0.002925      0.007982      0.028806
   29 Atom     -1.118003     -0.000616      0.002784     -0.030355
   30 Atom     -1.117710     -0.016682      0.024281      0.008921
   31 Atom     -1.120017     -0.001417     -0.000569      0.031819
   32 Atom     -1.119375      0.003324      0.003161     -0.030176
   33 Atom     -1.123497      0.000382      0.001239     -0.029308
   34 Atom     -1.120260     -0.002836      0.001441     -0.028906
   35 Atom     -1.120935     -0.012265     -0.025979      0.007240
   36 Atom     -1.119729      0.002585     -0.010862      0.028102
   37 Atom     -1.120568      0.014000     -0.020944     -0.014207
   38 Atom     -1.124872      0.003192      0.027039     -0.015699
   39 Atom     -1.125635      0.004941      0.007064      0.030167
   40 Atom     -1.126221     -0.015945      0.013246     -0.019526
   41 Atom     -1.126968     -0.021592     -0.001707      0.024512
   42 Atom     -1.123007      0.003013     -0.000144     -0.032143
   43 Atom     -1.123240     -0.017528      0.017064      0.014801
   44 Atom     -1.127327     -0.017263     -0.024921      0.006140
   45 Atom     -1.122648      0.026584      0.001951      0.013930
   46 Atom     -0.999455     -0.003695     -0.036143     -0.023343
 -----------------------------------------------------------------
 -----------------------------------------------------
    Center         ---- Electric Field Gradient ----
                     XX            YY            ZZ
 -----------------------------------------------------
    1 Atom     -493.277893   -493.217205   -493.945667
    2 Atom    -1217.218090  -1214.642378  -1217.582918
    3 Atom     -493.094495   -493.162797   -493.397077
    4 Atom     -493.171815   -493.268705   -493.831794
    5 Atom     -492.747793   -492.792193   -492.770545
    6 Atom     -492.612629   -492.590622   -492.586649
    7 Atom     -492.715949   -492.731715   -492.742214
    8 Atom     -492.575787   -492.614373   -492.587006
    9 Atom     -492.661346   -492.611732   -492.619616
   10 Atom     -492.755859   -492.780326   -492.759764
   11 Atom     -492.820529   -492.787506   -492.790758
   12 Atom     -492.907755   -492.918236   -492.912136
   13 Atom     -492.910007   -492.925608   -492.959396
   14 Atom     -492.703875   -492.671553   -492.691306
   15 Atom     -492.632475   -492.632020   -492.600302
   16 Atom     -492.652974   -492.599224   -492.576054
   17 Atom     -492.639088   -492.665814   -492.588032
   18 Atom     -492.874075   -492.829292   -492.705353
   19 Atom     -492.523522   -492.521815   -492.581792
   20 Atom    -1214.188179  -1215.383842  -1213.948238
   21 Atom       -1.700113     -1.954118     -1.597143
   22 Atom       -1.626578     -1.625032     -2.020585
   23 Atom       -1.617682     -1.613344     -2.032866
   24 Atom       -1.706690     -1.956879     -1.656383
   25 Atom       -1.603472     -1.603836     -2.022381
   26 Atom       -1.754265     -1.839786     -1.641847
   27 Atom       -1.730271     -1.884317     -1.674938
   28 Atom       -1.604604     -1.614093     -2.009310
   29 Atom       -1.623645     -1.623247     -2.045828
   30 Atom       -1.733307     -1.908194     -1.668057
   31 Atom       -1.639991     -1.638833     -2.053936
   32 Atom       -1.637757     -1.644519     -2.027801
   33 Atom       -1.643511     -1.637654     -2.038460
   34 Atom       -1.630149     -1.627533     -2.036069
   35 Atom       -1.697263     -1.951902     -1.649810
   36 Atom       -1.631959     -1.658682     -2.010920
   37 Atom       -1.724120     -1.833349     -1.761020
   38 Atom       -1.633986     -1.959153     -1.734857
   39 Atom       -1.634851     -1.644963     -2.042097
   40 Atom       -1.733990     -1.712012     -1.858790
   41 Atom       -1.754626     -1.616234     -1.921638
   42 Atom       -1.678373     -1.683993     -2.082016
   43 Atom       -1.738199     -1.814091     -1.697479
   44 Atom       -1.659882     -1.961988     -1.627257
   45 Atom       -1.985937     -1.612471     -1.691544
   46 Atom       -1.449237     -1.885074     -1.686953
 -----------------------------------------------------
 -----------------------------------------------------
    Center         ---- Electric Field Gradient ----
                     XY            XZ            YZ
 -----------------------------------------------------
    1 Atom       -0.010180      0.003149     -0.138000
    2 Atom       -0.117634      0.036037     -0.545699
    3 Atom       -0.009850     -0.036969     -0.027417
    4 Atom       -0.000402     -0.082318     -0.003267
    5 Atom       -0.023785     -0.010318     -0.004152
    6 Atom        0.028054     -0.004011     -0.025822
    7 Atom       -0.008186     -0.032315      0.003107
    8 Atom        0.025874     -0.020253     -0.011379
    9 Atom       -0.007120     -0.019315      0.019563
   10 Atom        0.000244      0.008226     -0.003845
   11 Atom       -0.006371     -0.016191     -0.008975
   12 Atom        0.014928     -0.007312      0.002614
   13 Atom        0.001242      0.006311      0.005871
   14 Atom       -0.009370     -0.010486     -0.013871
   15 Atom       -0.018925     -0.006519      0.014679
   16 Atom       -0.004567      0.000573     -0.016126
   17 Atom       -0.016309     -0.018490     -0.028005
   18 Atom       -0.205767      0.123080      0.122099
   19 Atom        0.009684     -0.003158      0.010140
   20 Atom       -1.217817      0.665152     -0.716889
   21 Atom       -0.178147      0.027060      0.050806
   22 Atom       -0.004269      0.051438      0.039477
   23 Atom        0.001846      0.019361      0.005968
   24 Atom       -0.156432      0.047006      0.098885
   25 Atom       -0.004154      0.029472      0.032539
   26 Atom        0.190168      0.078854     -0.099807
   27 Atom       -0.166710      0.081249      0.128661
   28 Atom        0.004489      0.011116     -0.060272
   29 Atom       -0.002367      0.003639      0.018039
   30 Atom        0.172202      0.067946     -0.113041
   31 Atom       -0.001242     -0.009907      0.012978
   32 Atom       -0.005700      0.037891      0.058410
   33 Atom       -0.000532      0.005200      0.003722
   34 Atom        0.005436     -0.036855      0.036434
   35 Atom       -0.152535      0.043432      0.094476
   36 Atom        0.010109     -0.044440      0.114838
   37 Atom        0.135300      0.110200     -0.165605
   38 Atom       -0.043067      0.023812      0.189237
   39 Atom       -0.010507     -0.047232     -0.085151
   40 Atom        0.098218     -0.163457      0.142244
   41 Atom        0.011926      0.204823     -0.017713
   42 Atom       -0.007618      0.016742     -0.043344
   43 Atom        0.173907      0.110469     -0.134749
   44 Atom       -0.151534      0.038688      0.085957
   45 Atom       -0.012318     -0.163840     -0.004750
   46 Atom       -0.035255      0.009025     -0.327850
 -----------------------------------------------------
 -----------------------------------------------------
    Center         ---- Electric Field Gradient ----
                   ----       Eigenvalues       ----
 -----------------------------------------------------
    1 Atom     -493.970936   -493.279174   -493.190655
    2 Atom    -1217.681391  -1217.223189  -1214.538805
    3 Atom     -493.404862   -493.160062   -493.089446
    4 Atom     -493.841925   -493.268686   -493.161702
    5 Atom     -492.804432   -492.770439   -492.735661
    6 Atom     -492.634953   -492.601232   -492.553716
    7 Atom     -492.764090   -492.733438   -492.692350
    8 Atom     -492.627392   -492.601043   -492.548730
    9 Atom     -492.668920   -492.632699   -492.591075
   10 Atom     -492.781151   -492.765598   -492.749200
   11 Atom     -492.829781   -492.790095   -492.778917
   12 Atom     -492.931027   -492.911243   -492.895856
   13 Atom     -492.961097   -492.924941   -492.908972
   14 Atom     -492.715194   -492.687499   -492.664041
   15 Atom     -492.651879   -492.622850   -492.590067
   16 Atom     -492.653368   -492.607181   -492.567703
   17 Atom     -492.684971   -492.631686   -492.576277
   18 Atom     -493.129395   -492.649150   -492.630175
   19 Atom     -492.583833   -492.530788   -492.512508
   20 Atom    -1216.177242  -1214.639957  -1212.703060
   21 Atom       -2.053164     -1.608365     -1.589846
   22 Atom       -2.031071     -1.621547     -1.619578
   23 Atom       -2.033849     -1.617778     -1.612266
   24 Atom       -2.061661     -1.631531     -1.626759
   25 Atom       -2.026979     -1.603221     -1.599488
   26 Atom       -2.033274     -1.602403     -1.600221
   27 Atom       -2.052296     -1.623715     -1.613514
   28 Atom       -2.018626     -1.607521     -1.601861
   29 Atom       -2.046630     -1.625327     -1.620764
   30 Atom       -2.058438     -1.627922     -1.623199
   31 Atom       -2.054576     -1.640779     -1.637405
   32 Atom       -2.040153     -1.635817     -1.634107
   33 Atom       -2.038563     -1.643482     -1.637580
   34 Atom       -2.042646     -1.628043     -1.623063
   35 Atom       -2.050269     -1.626036     -1.622670
   36 Atom       -2.050000     -1.628980     -1.622580
   37 Atom       -2.057915     -1.633039     -1.627535
   38 Atom       -2.072499     -1.628700     -1.626797
   39 Atom       -2.065026     -1.629689     -1.627197
   40 Atom       -2.057772     -1.625602     -1.621418
   41 Atom       -2.060351     -1.616940     -1.615207
   42 Atom       -2.087295     -1.687935     -1.669152
   43 Atom       -2.042209     -1.609576     -1.597984
   44 Atom       -2.046094     -1.606805     -1.596228
   45 Atom       -2.059380     -1.618561     -1.612011
   46 Atom       -2.129277     -1.474349     -1.417639
 -----------------------------------------------------
 -----------------------------------------------------
    Center         ---- Electric Field Gradient ----
                       ( tensor representation )
                   3XX-RR        3YY-RR        3ZZ-RR
 -----------------------------------------------------
    1 Atom        0.202362      0.263050     -0.465412
    2 Atom       -0.736961      1.838751     -1.101789
    3 Atom        0.123628      0.055326     -0.178954
    4 Atom        0.252290      0.155400     -0.407689
    5 Atom        0.022384     -0.022016     -0.000368
    6 Atom       -0.015996      0.006011      0.009985
    7 Atom        0.014011     -0.001756     -0.012255
    8 Atom        0.016601     -0.021984      0.005383
    9 Atom       -0.030448      0.019166      0.011282
   10 Atom        0.009457     -0.015009      0.005552
   11 Atom       -0.020931      0.012092      0.008840
   12 Atom        0.004954     -0.005527      0.000573
   13 Atom        0.021664      0.006062     -0.027726
   14 Atom       -0.014964      0.017359     -0.002395
   15 Atom       -0.010876     -0.010421      0.021297
   16 Atom       -0.043557      0.010193      0.033364
   17 Atom       -0.008110     -0.034836      0.042946
   18 Atom       -0.071169     -0.026385      0.097554
   19 Atom        0.018855      0.020561     -0.039416
   20 Atom        0.318574     -0.877089      0.558515
   21 Atom        0.050345     -0.203660      0.153315
   22 Atom        0.130820      0.132367     -0.263187
   23 Atom        0.136948      0.141287     -0.278235
   24 Atom        0.066627     -0.183561      0.116934
   25 Atom        0.139758      0.139394     -0.279152
   26 Atom       -0.008966     -0.094487      0.103452
   27 Atom        0.032905     -0.121142      0.088237
   28 Atom        0.138065      0.128576     -0.266641
   29 Atom        0.140595      0.140993     -0.281588
   30 Atom        0.036546     -0.138342      0.101796
   31 Atom        0.137595      0.138754     -0.276349
   32 Atom        0.132268      0.125507     -0.257775
   33 Atom        0.129697      0.135554     -0.265252
   34 Atom        0.134435      0.137051     -0.271485
   35 Atom        0.069062     -0.185577      0.116515
   36 Atom        0.135228      0.108505     -0.243733
   37 Atom        0.048710     -0.060519      0.011809
   38 Atom        0.142012     -0.183155      0.041142
   39 Atom        0.139120      0.129007     -0.268127
   40 Atom        0.034274      0.056252     -0.090526
   41 Atom        0.009540      0.147932     -0.157472
   42 Atom        0.136421      0.130801     -0.267222
   43 Atom        0.011724     -0.064168      0.052444
   44 Atom        0.089827     -0.212279      0.122452
   45 Atom       -0.222620      0.150847      0.071774
   46 Atom        0.224518     -0.211320     -0.013199
 -----------------------------------------------------
 -----------------------------------------------------
    Center         ---- Electric Field Gradient ----
                       ( tensor representation )
                   ----       Eigenvalues       ----
 -----------------------------------------------------
    1 Atom       -0.490681      0.201081      0.289600
    2 Atom       -1.200263     -0.742061      1.942323
    3 Atom       -0.186739      0.058062      0.128677
    4 Atom       -0.417821      0.155419      0.262402
    5 Atom       -0.034255     -0.000262      0.034516
    6 Atom       -0.038320     -0.004598      0.042918
    7 Atom       -0.034131     -0.003479      0.037609
    8 Atom       -0.035004     -0.008655      0.043658
    9 Atom       -0.038021     -0.001801      0.039823
   10 Atom       -0.015835     -0.000281      0.016116
   11 Atom       -0.030184      0.009502      0.020681
   12 Atom       -0.018318      0.001466      0.016852
   13 Atom       -0.029427      0.006729      0.022698
   14 Atom       -0.026282      0.001412      0.024870
   15 Atom       -0.030281     -0.001251      0.031531
   16 Atom       -0.043951      0.002236      0.041714
   17 Atom       -0.053993     -0.000708      0.054701
   18 Atom       -0.326488      0.153756      0.172732
   19 Atom       -0.041456      0.011588      0.029868
   20 Atom       -1.670489     -0.133204      1.803693
   21 Atom       -0.302705      0.142093      0.160613
   22 Atom       -0.273673      0.135852      0.137821
   23 Atom       -0.279218      0.136853      0.142365
   24 Atom       -0.288344      0.141786      0.146558
   25 Atom       -0.283750      0.140008      0.143741
   26 Atom       -0.287975      0.142896      0.145079
   27 Atom       -0.289121      0.139460      0.149661
   28 Atom       -0.275957      0.135148      0.140808
   29 Atom       -0.282390      0.138913      0.143476
   30 Atom       -0.288585      0.141931      0.146654
   31 Atom       -0.276989      0.136808      0.140181
   32 Atom       -0.270128      0.134209      0.135919
   33 Atom       -0.265355      0.129726      0.135629
   34 Atom       -0.278062      0.136541      0.141521
   35 Atom       -0.283944      0.140289      0.143655
   36 Atom       -0.282813      0.138206      0.144607
   37 Atom       -0.285085      0.139791      0.145294
   38 Atom       -0.296500      0.147298      0.149202
   39 Atom       -0.291056      0.144282      0.146774
   40 Atom       -0.289508      0.142662      0.146846
   41 Atom       -0.296185      0.147226      0.148959
   42 Atom       -0.272501      0.126858      0.145642
   43 Atom       -0.292286      0.140347      0.151939
   44 Atom       -0.296385      0.142903      0.153481
   45 Atom       -0.296063      0.144757      0.151306
   46 Atom       -0.455522      0.199406      0.256116
 -----------------------------------------------------
 Unable to Open any file for archive entry.
 1\1\GINC-EXP-2-54\SP\RwB97XD\6-31G(d)\C18H26O2\HKLEM\12-Aug-2024\0\\# 
 wb97xd 6-31G(d) prop=efg\\19nt_mm_min_distance_cutoff4_ligand_conf_1\\
 0,1\C,0,3.059,0.8129,-0.1952\O,0,4.2949,0.9584,-0.0771\C,0,2.455,-0.47
 78,-0.3497\C,0,1.1336,-0.6044,-0.6427\C,0,0.1888,0.5737,-0.6098\C,0,0.
 773,1.74,0.1904\C,0,2.1909,2.0321,-0.2715\C,0,0.6067,-1.907,-1.1519\C,
 0,-0.8369,-2.2176,-0.76\C,0,-1.7421,-1.0102,-1.0006\C,0,-1.2263,0.1713
 ,-0.1503\C,0,-3.2049,-1.2785,-0.6736\C,0,-4.0984,-0.0349,-0.8707\C,0,-
 3.6324,1.0592,0.0846\C,0,-2.1557,1.3979,-0.1416\C,0,-3.9556,-2.3838,-1
 .4265\C,0,-5.4473,-2.046,-1.186\C,0,-5.4573,-0.6587,-0.5191\C,0,-4.097
 8,0.4731,-2.3223\O,0,-6.6147,0.1014,-0.9173\H,0,3.1199,-1.3364,-0.3617
 \H,0,0.1017,0.8803,-1.6651\H,0,0.7656,1.4974,1.2633\H,0,0.1657,2.6403,
 0.0597\H,0,2.1673,2.3345,-1.3273\H,0,2.664,2.851,0.2794\H,0,1.279,-2.7
 245,-0.876\H,0,0.6768,-1.829,-2.2497\H,0,-0.8796,-2.4991,0.3006\H,0,-1
 .1813,-3.0861,-1.3304\H,0,-1.6598,-0.7393,-2.0629\H,0,-1.1549,-0.2,0.8
 863\H,0,-3.2509,-1.5254,0.4034\H,0,-3.7717,0.7161,1.1216\H,0,-4.236,1.
 9689,-0.0345\H,0,-2.038,1.9428,-1.0875\H,0,-1.8376,2.0787,0.6563\H,0,-
 3.69,-3.386,-1.0855\H,0,-3.7331,-2.3468,-2.4967\H,0,-5.9503,-2.7858,-0
 .5545\H,0,-5.9865,-2.0027,-2.1328\H,0,-5.5071,-0.775,0.5729\H,0,-4.532
 ,-0.2532,-3.0167\H,0,-4.6726,1.3991,-2.3982\H,0,-3.0908,0.7135,-2.6717
 \H,0,-6.8224,0.7179,-0.2045\\Version=ES64L-G16RevC.01\State=1-A\HF=-85
 1.790804\RMSD=6.422e-09\Dipole=-1.6408097,-0.2519373,0.1688454\Quadrup
 ole=-23.8664911,13.420402,10.4460891,-6.573015,-9.0872203,0.8504412\PG
 =C01 [X(C18H26O2)]\\@
 The archive entry for this job was punched.


 FROM THE ASHES OF OUR DESPAIR GROW THE FLOWERS OF TOMORROW.
 Job cpu time:       0 days  0 hours 10 minutes  5.9 seconds.
 Elapsed time:       0 days  0 hours  0 minutes 25.8 seconds.
 File lengths (MBytes):  RWF=     71 Int=      0 D2E=      0 Chk=      8 Scr=      1
 Normal termination of Gaussian 16 at Mon Aug 12 07:11:18 2024.
