 Entering Gaussian System, Link 0=g16
 Input=19nt_md_min_distance_cutoff8_nowat_optimized_ligand.gjf
 Output=19nt_md_min_distance_cutoff8_nowat_optimized_ligand.log
 Initial command:
 /usr/local/packages/license/gaussian/g16-c01/g16/l1.exe "/work/arkanil/gauss_scratch/Gau-896706.inp" -scrdir="/work/arkanil/gauss_scratch/"
 Entering Link 1 = /usr/local/packages/license/gaussian/g16-c01/g16/l1.exe PID=    896713.
  
 Copyright (c) 1988-2019, Gaussian, Inc.  All Rights Reserved.
  
 This is part of the Gaussian(R) 16 program.  It is based on
 the Gaussian(R) 09 system (copyright 2009, Gaussian, Inc.),
 the Gaussian(R) 03 system (copyright 2003, Gaussian, Inc.),
 the Gaussian(R) 98 system (copyright 1998, Gaussian, Inc.),
 the Gaussian(R) 94 system (copyright 1995, Gaussian, Inc.),
 the Gaussian 92(TM) system (copyright 1992, Gaussian, Inc.),
 the Gaussian 90(TM) system (copyright 1990, Gaussian, Inc.),
 the Gaussian 88(TM) system (copyright 1988, Gaussian, Inc.),
 the Gaussian 86(TM) system (copyright 1986, Carnegie Mellon
 University), and the Gaussian 82(TM) system (copyright 1983,
 Carnegie Mellon University). Gaussian is a federally registered
 trademark of Gaussian, Inc.
  
 This software contains proprietary and confidential information,
 including trade secrets, belonging to Gaussian, Inc.
  
 This software is provided under written license and may be
 used, copied, transmitted, or stored only in accord with that
 written license.
  
 The following legend is applicable only to US Government
 contracts under FAR:
  
                    RESTRICTED RIGHTS LEGEND
  
 Use, reproduction and disclosure by the US Government is
 subject to restrictions as set forth in subparagraphs (a)
 and (c) of the Commercial Computer Software - Restricted
 Rights clause in FAR 52.227-19.
  
 Gaussian, Inc.
 340 Quinnipiac St., Bldg. 40, Wallingford CT 06492
  
  
 ---------------------------------------------------------------
 Warning -- This program may not be used in any manner that
 competes with the business of Gaussian, Inc. or will provide
 assistance to any competitor of Gaussian, Inc.  The licensee
 of this program is prohibited from giving any competitor of
 Gaussian, Inc. access to this program.  By using this program,
 the user acknowledges that Gaussian, Inc. is engaged in the
 business of creating and licensing software in the field of
 computational chemistry and represents and warrants to the
 licensee that it is not a competitor of Gaussian, Inc. and that
 it will not use this program in any manner prohibited above.
 ---------------------------------------------------------------
  

 Cite this work as:
 Gaussian 16, Revision C.01,
 M. J. Frisch, G. W. Trucks, H. B. Schlegel, G. E. Scuseria, 
 M. A. Robb, J. R. Cheeseman, G. Scalmani, V. Barone, 
 G. A. Petersson, H. Nakatsuji, X. Li, M. Caricato, A. V. Marenich, 
 J. Bloino, B. G. Janesko, R. Gomperts, B. Mennucci, H. P. Hratchian, 
 J. V. Ortiz, A. F. Izmaylov, J. L. Sonnenberg, D. Williams-Young, 
 F. Ding, F. Lipparini, F. Egidi, J. Goings, B. Peng, A. Petrone, 
 T. Henderson, D. Ranasinghe, V. G. Zakrzewski, J. Gao, N. Rega, 
 G. Zheng, W. Liang, M. Hada, M. Ehara, K. Toyota, R. Fukuda, 
 J. Hasegawa, M. Ishida, T. Nakajima, Y. Honda, O. Kitao, H. Nakai, 
 T. Vreven, K. Throssell, J. A. Montgomery, Jr., J. E. Peralta, 
 F. Ogliaro, M. J. Bearpark, J. J. Heyd, E. N. Brothers, K. N. Kudin, 
 V. N. Staroverov, T. A. Keith, R. Kobayashi, J. Normand, 
 K. Raghavachari, A. P. Rendell, J. C. Burant, S. S. Iyengar, 
 J. Tomasi, M. Cossi, J. M. Millam, M. Klene, C. Adamo, R. Cammi, 
 J. W. Ochterski, R. L. Martin, K. Morokuma, O. Farkas, 
 J. B. Foresman, and D. J. Fox, Gaussian, Inc., Wallingford CT, 2019.
 
 ******************************************
 Gaussian 16:  ES64L-G16RevC.01  3-Jul-2019
                24-May-2026 
 ******************************************
 %chk=19NT_md_min_distance_cutoff8_nowat_current.chk
 %nprocshared=64
 Will use up to   64 processors via shared memory.
 %mem=200GB
 --------------------------
 # wb97xd/6-31g(d) prop=efg
 --------------------------
 1/38=1,172=1/1;
 2/12=2,17=6,18=5,40=1/2;
 3/5=1,6=6,7=1,11=2,25=1,30=1,74=-58/1,2,3;
 4//1;
 5/5=2,38=5/2;
 6/7=2,8=2,9=2,10=2,14=1,28=1/1,2;
 99/5=1,9=1/99;
 ----------------------------------
 19NT_md_min_distance_cutoff8_nowat
 ----------------------------------
 Symbolic Z-matrix:
 Charge =  0 Multiplicity = 1
 C                    0     2.17161  -1.91242  -0.26461 
 O                    0     2.90602  -2.39131  -1.16348 
 C                    0     2.18765  -0.5325    0.07176 
 C                    0     1.38432  -0.03379   1.05423 
 C                    0    -1.9081    1.9893    3.10298 
 C                    0    -3.03329   1.135     3.72355 
 C                    0    -3.40048   0.01872   2.74487 
 C                    0    -2.16888  -0.84348   2.42706 
 C                    0    -1.79093   3.17206   4.06392 
 C                    0    -3.26669   3.4588    4.42441 
 C                    0    -2.66231   0.53329   5.09178 
 H                    0    -2.31653   2.38096   2.15495 
 H                    0    -3.78025   0.4655    1.81442 
 H                    0    -4.20048  -0.61229   3.15141 
 H                    0    -1.86205  -1.4021    3.32343 
 H                    0    -2.45245  -1.5959    1.68054 
 H                    0    -1.28421   4.03623   3.63282 
 H                    0     2.94839   0.08476  -0.40155 
 H                    0    -1.20906   2.88678   4.94645 
 H                    0    -3.60459   4.37842   3.93613 
 H                    0    -3.41269   3.58475   5.50372 
 H                    0    -2.56703   1.29903   5.86601 
 H                    0    -3.45051  -0.15604   5.4122 
 H                    0    -1.715    -0.01403   5.05551 
 C                    0     1.29586  -2.84887   0.52 
 H                    0     1.87508  -3.16368   1.40064 
 H                    0     1.08886  -3.73389  -0.08985 
 C                    0     0.01439  -2.15835   0.95272 
 H                    0    -0.57323  -2.83497   1.58125 
 H                    0    -0.59476  -1.93575   0.06451 
 C                    0     0.29873  -0.8606    1.7073 
 H                    0     0.71198  -1.10458   2.70132 
 C                    0     1.60294   1.33232   1.58786 
 H                    0     2.21464   1.17518   2.50128 
 H                    0     2.23042   1.91746   0.90936 
 C                    0     0.32994   2.09418   1.9523 
 H                    0    -0.17421   2.44105   1.0396 
 H                    0     0.60389   2.98827   2.51614 
 C                    0    -4.0875    2.23687   3.9165 
 H                    0    -4.51873   2.47236   2.93257 
 C                    0    -0.9826   -0.01685   1.89928 
 H                    0    -1.28228   0.35286   0.90263 
 C                    0    -0.64548   1.22538   2.74653 
 H                    0    -0.14382   0.89871   3.67042 
 O                    0    -5.13028   1.81416   4.78656 
 H                    0    -5.62781   2.59626   5.05198 
 
                          Input orientation:                          
 ---------------------------------------------------------------------
 Center     Atomic      Atomic             Coordinates (Angstroms)
 Number     Number       Type             X           Y           Z
 ---------------------------------------------------------------------
      1          6           0        2.171614   -1.912416   -0.264612
      2          8           0        2.906020   -2.391310   -1.163480
      3          6           0        2.187655   -0.532496    0.071755
      4          6           0        1.384323   -0.033789    1.054231
      5          6           0       -1.908104    1.989297    3.102981
      6          6           0       -3.033292    1.134999    3.723546
      7          6           0       -3.400479    0.018717    2.744869
      8          6           0       -2.168880   -0.843481    2.427056
      9          6           0       -1.790930    3.172057    4.063921
     10          6           0       -3.266690    3.458797    4.424414
     11          6           0       -2.662306    0.533287    5.091784
     12          1           0       -2.316533    2.380964    2.154947
     13          1           0       -3.780247    0.465504    1.814415
     14          1           0       -4.200481   -0.612289    3.151409
     15          1           0       -1.862047   -1.402102    3.323427
     16          1           0       -2.452447   -1.595898    1.680538
     17          1           0       -1.284207    4.036231    3.632815
     18          1           0        2.948394    0.084755   -0.401551
     19          1           0       -1.209059    2.886778    4.946445
     20          1           0       -3.604590    4.378418    3.936127
     21          1           0       -3.412685    3.584745    5.503724
     22          1           0       -2.567028    1.299028    5.866012
     23          1           0       -3.450512   -0.156043    5.412196
     24          1           0       -1.714995   -0.014028    5.055509
     25          6           0        1.295863   -2.848870    0.519998
     26          1           0        1.875075   -3.163676    1.400643
     27          1           0        1.088863   -3.733893   -0.089852
     28          6           0        0.014387   -2.158346    0.952715
     29          1           0       -0.573225   -2.834968    1.581246
     30          1           0       -0.594757   -1.935746    0.064514
     31          6           0        0.298728   -0.860600    1.707302
     32          1           0        0.711980   -1.104579    2.701323
     33          6           0        1.602940    1.332316    1.587861
     34          1           0        2.214636    1.175178    2.501276
     35          1           0        2.230421    1.917461    0.909360
     36          6           0        0.329935    2.094179    1.952302
     37          1           0       -0.174212    2.441046    1.039603
     38          1           0        0.603888    2.988273    2.516135
     39          6           0       -4.087497    2.236868    3.916497
     40          1           0       -4.518733    2.472364    2.932573
     41          6           0       -0.982600   -0.016853    1.899277
     42          1           0       -1.282284    0.352860    0.902628
     43          6           0       -0.645478    1.225380    2.746528
     44          1           0       -0.143817    0.898714    3.670418
     45          8           0       -5.130277    1.814156    4.786555
     46          1           0       -5.627808    2.596255    5.051984
 ---------------------------------------------------------------------
                    Distance matrix (angstroms):
                    1          2          3          4          5
     1  C    0.000000
     2  O    1.255649   0.000000
     3  C    1.420415   2.344577   0.000000
     4  C    2.426605   3.576550   1.363565   0.000000
     5  C    6.573290   7.782557   5.685333   4.373823   0.000000
     6  C    7.230712   8.461283   6.585925   5.292129   1.543041
     7  C    6.620761   7.800984   6.219053   5.074972   2.497722
     8  C    5.218006   6.406429   4.962212   3.894291   2.923955
     9  C    7.764652   8.963153   6.744645   5.423828   1.528416
    10  C    8.967276  10.175984   8.039026   6.722218   2.398202
    11  C    7.618348   8.870617   7.061070   5.744442   2.577620
    12  H    6.665646   7.814193   5.754620   4.554003   1.104077
    13  H    6.738064   7.857189   6.296723   5.244040   2.736287
    14  H    7.345960   8.502090   7.092173   5.993568   3.467793
    15  H    5.422625   6.621581   5.265897   4.190519   3.398868
    16  H    5.026503   6.118357   5.024893   4.189660   3.895289
    17  H    7.906898   9.048521   6.753387   5.507741   2.204520
    18  H    2.147285   2.590990   1.087999   2.140017   6.284473
    19  H    7.849607   9.062189   6.855049   5.514043   2.166217
    20  H    9.517633  10.687528   8.520596   7.256869   3.046325
    21  H    9.730204  10.958598   8.821665   7.476835   3.251582
    22  H    8.387649   9.642956   7.715887   6.367324   2.923182
    23  H    8.180422   9.414958   7.775021   6.510179   3.509128
    24  H    6.856624   8.104386   6.351164   5.061263   2.804098
    25  C    1.503163   2.374040   2.522262   2.866690   6.351777
    26  H    2.103963   2.869516   2.964247   3.187010   6.615401
    27  H    2.126187   2.501453   3.388570   3.884198   7.206310
    28  C    2.489176   3.590835   2.853519   2.529975   5.051986
    29  H    3.434012   4.453706   3.899025   3.457794   5.231741
    30  H    2.785979   3.737773   3.116244   2.917831   5.134503
    31  C    2.915898   4.169225   2.520062   1.512823   3.865222
    32  H    3.402926   4.626682   3.069124   2.076427   4.074094
    33  C    3.779330   4.809707   2.473458   1.482834   3.880031
    34  H    4.145506   5.160260   2.969756   2.060330   4.245212
    35  H    4.006198   4.828934   2.589537   2.131724   4.684498
    36  C    4.935513   6.038536   3.726527   2.538999   2.518706
    37  H    5.114343   6.139468   3.918813   2.924731   2.732762
    38  H    5.848681   6.912257   4.569368   3.446607   2.766305
    39  C    8.595039   9.804870   7.863139   6.579458   2.339413
    40  H    8.614466   9.775476   7.886007   6.682443   2.660409
    41  C    4.269033   5.489981   3.695435   2.513307   2.515969
    42  H    4.292241   5.416748   3.676232   2.698754   2.812673
    43  C    5.181577   6.401699   4.274480   2.927365   1.518174
    44  H    5.361729   6.594872   4.520453   3.170049   2.150364
    45  O    9.629083  10.847623   9.015999   7.732086   3.639711
    46  H   10.460654  11.676216   9.781269   8.489355   4.243019
                    6          7          8          9         10
     6  C    0.000000
     7  C    1.529288   0.000000
     8  C    2.518428   1.536628   0.000000
     9  C    2.410171   3.778108   4.352783   0.000000
    10  C    2.438386   3.830525   4.868698   1.545976   0.000000
    11  C    1.540053   2.513502   3.039693   2.962922   3.060927
    12  H    2.127598   2.665175   3.239273   2.132198   2.686076
    13  H    2.156605   1.099812   2.164549   4.042659   4.004452
    14  H    2.177771   1.097017   2.169226   4.578197   4.366492
    15  H    2.822905   2.172609   1.099857   4.634255   5.178179
    16  H    3.459633   2.153729   1.097192   5.371361   5.808768
    17  H    3.388905   4.626821   5.103733   1.090604   2.211402
    18  H    7.341662   7.086078   5.920231   7.206460   8.561622
    19  H    2.809277   4.227887   4.602544   1.094900   2.198538
    20  H    3.300203   4.524130   5.621991   2.181972   1.094670
    21  H    3.051922   4.508657   5.533726   2.207585   1.096398
    22  H    2.198742   3.474963   4.071276   2.712581   2.689300
    23  H    2.166195   2.673514   3.320574   3.955794   3.751876
    24  H    2.198248   2.860242   2.793344   3.337686   3.855717
    25  C    6.698919   5.935380   4.434287   7.638013   8.709077
    26  H    6.925789   6.306032   4.773929   7.789362   8.912805
    27  H    7.432380   6.501686   5.030129   8.557989   9.543806
    28  C    5.273706   4.428626   2.944352   6.430550   7.373632
    29  H    5.138289   4.182213   2.688407   6.612929   7.412816
    30  H    5.363249   4.344687   3.041794   6.596646   7.432970
    31  C    4.376073   3.941304   2.570492   5.116898   6.225118
    32  H    4.481932   4.263333   2.905641   5.139148   6.294701
    33  C    5.108300   5.300793   4.434520   4.586270   6.023392
    34  H    5.388535   5.738140   4.826562   4.740669   6.241659
    35  H    6.019848   6.219434   5.411104   5.262749   6.704443
    36  C    3.920284   4.341854   3.885784   3.181010   4.572661
    37  H    4.133237   4.380001   4.085565   3.506373   4.696401
    38  H    4.256941   4.990545   4.730594   2.857371   4.341002
    39  C    1.537106   2.600942   3.922764   2.484056   1.557182
    40  H    2.149586   2.702981   4.095386   3.034869   2.183175
    41  C    2.976585   2.561724   1.539196   3.938049   4.865545
    42  H    3.411063   2.827057   2.131001   4.266189   5.097812
    43  C    2.581548   3.007668   2.589016   2.614792   3.830693
    44  H    2.899607   3.498126   2.946536   2.834769   4.107903
    45  O    2.447159   3.222466   4.626029   3.676593   2.511762
    46  H    3.260603   4.114301   5.539514   4.003679   2.590888
                   11         12         13         14         15
    11  C    0.000000
    12  H    3.486901   0.000000
    13  H    3.463457   2.434627   0.000000
    14  H    2.728256   3.674474   1.767990   0.000000
    15  H    2.741027   3.985410   3.073200   2.474201   0.000000
    16  H    4.026670   4.007364   2.455678   2.487282   1.756478
    17  H    4.037123   2.447386   4.720899   5.508643   5.477690
    18  H    7.864977   6.287107   7.094370   8.013477   6.263110
    19  H    2.769832   3.045457   4.720507   4.941076   4.631962
    20  H    4.124133   2.970104   4.454595   5.087045   6.068465
    21  H    3.169252   3.723566   4.845180   4.875357   5.659224
    22  H    1.093099   3.873672   4.310696   3.700050   3.775956
    23  H    1.095038   4.281587   3.665934   2.425236   2.904968
    24  H    1.094654   3.809343   3.872971   3.187656   2.224518
    25  C    6.928731   6.563050   6.198990   6.491257   4.463715
    26  H    6.919529   6.991537   6.732371   6.818148   4.557008
    27  H    7.689567   7.350328   6.705923   6.944591   5.078936
    28  C    5.616179   5.242508   4.693225   4.998966   3.116598
    29  H    5.294646   5.529394   4.607871   4.534611   2.597953
    30  H    5.970287   5.095921   4.356088   4.927647   3.537134
    31  C    4.708010   4.188999   4.290462   4.731806   2.752096
    32  H    4.447776   4.649670   4.840648   4.957540   2.664798
    33  C    5.577477   4.096769   5.457233   6.317109   4.742928
    34  H    5.559435   4.701633   6.075692   6.691146   4.892612
    35  H    6.583873   4.737205   6.249435   7.265185   5.796164
    36  C    4.609364   2.669664   4.423256   5.411792   4.348419
    37  H    5.123507   2.416018   4.184088   5.476625   4.778538
    38  H    4.830005   3.004686   5.106605   6.037349   5.099799
    39  C    2.512898   2.502026   2.766023   2.952257   4.306560
    40  H    3.445074   2.337251   2.413115   3.108739   4.714046
    41  C    3.649132   2.755770   2.840193   3.503875   2.172682
    42  H    4.414300   2.598303   2.661553   3.808465   3.045699
    43  C    3.169671   2.116074   3.357532   4.022313   2.952374
    44  H    2.914894   3.035525   4.105611   4.359934   2.892485
    45  O    2.797261   3.894071   3.532005   3.070156   4.813147
    46  H    3.612703   4.404965   4.293650   3.993019   5.758101
                   16         17         18         19         20
    16  H    0.000000
    17  H    6.074294   0.000000
    18  H    6.027335   7.057279   0.000000
    19  H    5.683885   1.747144   7.330540   0.000000
    20  H    6.489034   2.365009   8.955032   2.997382   0.000000
    21  H    6.509829   2.869592   9.358714   2.377748   1.767514
    22  H    5.090375   3.758335   8.436628   2.282681   3.779369
    23  H    4.122449   5.043237   8.648910   3.807860   4.771148
    24  H    3.799550   4.314422   7.178890   2.946615   4.910923
    25  C    4.119056   7.984423   3.490883   7.665881   9.376464
    26  H    4.611260   8.173268   3.866810   7.661109   9.661190
    27  H    4.499576   8.936696   4.258766   8.630065  10.200323
    28  C    2.632745   6.873286   3.933692   6.549807   8.045311
    29  H    2.253138   7.206095   4.985786   6.668375   8.171143
    30  H    2.485567   6.990896   4.105309   6.889656   7.994820
    31  C    2.847866   5.494746   3.515919   5.177674   6.902960
    32  H    3.361100   5.592885   4.005482   4.966074   7.086662
    33  C    5.002918   4.452933   2.706366   4.647986   6.473906
    34  H    5.489457   4.659175   3.186507   4.542038   6.795803
    35  H    5.904884   4.925343   2.364907   5.391443   7.018902
    36  C    4.629490   3.033339   4.053978   3.458556   4.963245
    37  H    4.679537   3.240594   4.168897   4.066079   4.889862
    38  H    5.572614   2.431068   4.737089   3.033725   4.654049
    39  C    4.728953   3.343145   8.531172   3.125473   2.195409
    40  H    4.731584   3.660352   8.519099   3.896327   2.340047
    41  C    2.168336   4.418553   4.555968   4.215162   5.508357
    42  H    2.402516   4.584882   4.435245   4.772689   5.549805
    43  C    3.515833   3.015686   4.911959   2.813806   4.484767
    44  H    3.938589   3.338550   5.177377   2.591406   4.914864
    45  O    5.333534   4.589225   9.755624   4.068419   3.102642
    46  H    6.246896   4.791079  10.468998   4.429547   2.917988
                   21         22         23         24         25
    21  H    0.000000
    22  H    2.463918   0.000000
    23  H    3.742099   1.761739   0.000000
    24  H    4.004275   1.762666   1.777474   0.000000
    25  C    9.402093   7.791460   7.328915   6.137789   0.000000
    26  H    9.504571   7.719296   7.314389   6.013895   1.100057
    27  H   10.252536   8.612093   7.979942   6.940732   1.094546
    28  C    8.089475   6.538932   5.991804   4.941840   1.518634
    29  H    8.041211   6.278885   5.489226   4.618641   2.149402
    30  H    8.246305   6.928997   6.318258   5.464244   2.148419
    31  C    6.924485   5.492852   5.317842   3.997781   2.521346
    32  H    6.845150   5.152133   5.057163   3.552703   2.853358
    33  C    6.750105   5.974305   6.509849   4.984568   4.326308
    34  H    6.818170   5.848170   6.506881   4.835320   4.578490
    35  H    7.465431   6.925776   7.539758   6.040489   4.872670
    36  C    5.370437   4.933740   5.596976   4.272724   5.236243
    37  H    5.632418   5.506723   6.049676   4.952666   5.514918
    38  H    5.041262   4.912223   5.891693   4.565025   6.207707
    39  C    2.188934   2.644235   2.892903   3.463040   8.147484
    40  H    3.011902   3.713615   3.768043   4.306965   8.242911
    41  C    5.645251   4.469557   4.295412   3.240094   3.887689
    42  H    6.012801   5.213538   5.029553   4.191452   4.128477
    43  C    4.563570   3.664554   4.108811   2.830440   5.032470
    44  H    4.610995   3.294364   3.883366   2.284770   5.103157
    45  O    2.568937   2.828574   2.663592   3.883136   9.013467
    46  H    2.467377   3.422545   3.527820   4.703583   9.905832
                   26         27         28         29         30
    26  H    0.000000
    27  H    1.779003   0.000000
    28  C    2.161825   2.173429   0.000000
    29  H    2.476861   2.522533   1.094603   0.000000
    30  H    3.064820   2.468145   1.099776   1.763389   0.000000
    31  C    2.807680   3.479927   1.527873   2.162018   2.157083
    32  H    2.698970   3.853050   2.157473   2.429109   3.057967
    33  C    4.508110   5.361480   3.887368   4.701276   4.222640
    34  H    4.489137   5.663946   4.283867   4.969899   4.848541
    35  H    5.117185   5.851443   4.639492   5.558547   4.852072
    36  C    5.507887   6.221960   4.379807   5.024925   4.545228
    37  H    5.978531   6.403194   4.604077   5.318732   4.503772
    38  H    6.380181   7.225918   5.411052   6.014129   5.629668
    39  C    8.428978   8.859770   6.702788   6.597501   6.666912
    40  H    8.659823   8.893695   6.775876   6.749881   6.561614
    41  C    4.279888   4.697231   2.544790   2.865398   2.683082
    42  H    4.752153   4.827930   2.826662   3.335496   2.532360
    43  C    5.237214   5.970543   3.886231   4.224870   4.145900
    44  H    5.072555   6.092633   4.093477   4.299932   4.608693
    45  O    9.236783   9.655977   7.546302   7.256382   7.545222
    46  H   10.139149  10.565175   8.440652   8.191033   8.411034
                   31         32         33         34         35
    31  C    0.000000
    32  H    1.103803   0.000000
    33  C    2.554235   2.823484   0.000000
    34  H    2.906113   2.737752   1.110491   0.000000
    35  H    3.476460   3.827469   1.093842   1.756539   0.000000
    36  C    2.965083   3.307422   1.527676   2.167495   2.175041
    37  H    3.401523   4.014736   2.165211   3.073354   2.464420
    38  H    3.944763   4.098465   2.145225   2.425292   2.524673
    39  C    5.806360   5.973014   6.214647   6.545756   7.004354
    40  H    5.984803   6.341006   6.370466   6.870733   7.067700
    41  C    1.546145   2.167493   2.932960   3.464918   3.878790
    42  H    2.149322   3.055572   3.123043   3.931963   3.845402
    43  C    2.514523   2.696932   2.531665   2.871049   3.482091
    44  H    2.672986   2.384264   2.752492   2.646814   3.781308
    45  O    6.790450   6.855594   7.469941   7.718714   8.320047
    46  H    7.632861   7.708093   8.116736   8.368363   8.909201
                   36         37         38         39         40
    36  C    0.000000
    37  H    1.098863   0.000000
    38  H    1.091953   1.756429   0.000000
    39  C    4.836541   4.861276   4.953253   0.000000
    40  H    4.961203   4.739112   5.165349   1.099786   0.000000
    41  C    2.486366   2.726499   3.453728   4.334607   4.446137
    42  H    2.594852   2.367933   3.620283   4.527926   4.368933
    43  C    1.528737   2.147913   2.172968   3.773517   4.073289
    44  H    2.146043   3.049738   2.501537   4.171789   4.707513
    45  O    6.158354   6.244615   6.278057   1.422349   2.060212
    46  H    6.734598   6.772370   6.739306   1.947061   2.395266
                   41         42         43         44         45
    41  C    0.000000
    42  H    1.104449   0.000000
    43  C    1.540983   2.137003   0.000000
    44  H    2.163044   3.042158   1.100885   0.000000
    45  O    5.375146   5.659269   4.962035   5.191202   0.000000
    46  H    6.192403   6.413545   5.658448   5.904619   0.964193
                   46
    46  H    0.000000
 Stoichiometry    C18H26O2
 Framework group  C1[X(C18H26O2)]
 Deg. of freedom   132
 Full point group                 C1      NOp   1
 Largest Abelian subgroup         C1      NOp   1
 Largest concise Abelian subgroup C1      NOp   1
                         Standard orientation:                         
 ---------------------------------------------------------------------
 Center     Atomic      Atomic             Coordinates (Angstroms)
 Number     Number       Type             X           Y           Z
 ---------------------------------------------------------------------
      1          6           0        4.657134   -0.163631   -0.128785
      2          8           0        5.878919   -0.138491   -0.417341
      3          6           0        3.830936    0.987372   -0.229616
      4          6           0        2.506854    0.938972    0.092527
      5          6           0       -1.849808    0.759952   -0.250655
      6          6           0       -2.560007   -0.586057    0.004005
      7          6           0       -1.759874   -1.700346   -0.671915
      8          6           0       -0.320397   -1.729432   -0.134992
      9          6           0       -2.846378    1.791340    0.277685
     10          6           0       -4.204917    1.205435   -0.170792
     11          6           0       -2.748208   -0.906586    1.498530
     12          1           0       -1.812910    0.877138   -1.347875
     13          1           0       -1.738665   -1.521732   -1.756920
     14          1           0       -2.234994   -2.676351   -0.513416
     15          1           0       -0.320929   -2.040900    0.919841
     16          1           0        0.240329   -2.498883   -0.680300
     17          1           0       -2.673572    2.799311   -0.101195
     18          1           0        4.321020    1.931410   -0.458419
     19          1           0       -2.777915    1.860022    1.368282
     20          1           0       -4.616669    1.792536   -0.997881
     21          1           0       -4.945155    1.209316    0.637984
     22          1           0       -3.461392   -0.230908    1.977794
     23          1           0       -3.141169   -1.922993    1.606270
     24          1           0       -1.807755   -0.836401    2.054308
     25          6           0        4.072019   -1.442820    0.401136
     26          1           0        4.153696   -1.400148    1.497327
     27          1           0        4.676015   -2.282728    0.043680
     28          6           0        2.617934   -1.586371   -0.012721
     29          1           0        2.193614   -2.486753    0.442714
     30          1           0        2.563347   -1.722223   -1.102708
     31          6           0        1.793745   -0.362824    0.384824
     32          1           0        1.665235   -0.355286    1.481095
     33          6           0        1.722726    2.187083    0.254262
     34          1           0        1.734405    2.378359    1.348094
     35          1           0        2.245182    3.034361   -0.199225
     36          6           0        0.277170    2.108861   -0.233636
     37          1           0        0.249736    2.135064   -1.331844
     38          1           0       -0.259807    2.994275    0.112859
     39          6           0       -3.923022   -0.256893   -0.625703
     40          1           0       -3.808421   -0.281644   -1.719222
     41          6           0        0.395834   -0.374316   -0.275688
     42          1           0        0.545052   -0.214233   -1.358239
     43          6           0       -0.414791    0.830565    0.239847
     44          1           0       -0.404707    0.819587    1.340631
     45          8           0       -4.915010   -1.202701   -0.245591
     46          1           0       -5.776535   -0.832493   -0.470066
 ---------------------------------------------------------------------
 Rotational constants (GHZ):           0.9163327           0.1761639           0.1557718
 Standard basis: 6-31G(d) (6D, 7F)
 There are   352 symmetry adapted cartesian basis functions of A   symmetry.
 There are   352 symmetry adapted basis functions of A   symmetry.
   352 basis functions,   664 primitive gaussians,   352 cartesian basis functions
    75 alpha electrons       75 beta electrons
       nuclear repulsion energy      1665.5380089377 Hartrees.
 NAtoms=   46 NActive=   46 NUniq=   46 SFac= 1.00D+00 NAtFMM=   60 NAOKFM=F Big=F
 Integral buffers will be    131072 words long.
 Raffenetti 2 integral format.
 Two-electron integral symmetry is turned on.
 Nuclear repulsion after empirical dispersion term =     1665.4893879222 Hartrees.
 One-electron integrals computed using PRISM.
 NBasis=   352 RedAO= T EigKep=  1.25D-03  NBF=   352
 NBsUse=   352 1.00D-06 EigRej= -1.00D+00 NBFU=   352
 ExpMin= 1.61D-01 ExpMax= 5.48D+03 ExpMxC= 8.25D+02 IAcc=3 IRadAn=         5 AccDes= 0.00D+00
 Harris functional with IExCor= 4639 and IRadAn=       5 diagonalized for initial guess.
 HarFok:  IExCor= 4639 AccDes= 0.00D+00 IRadAn=         5 IDoV= 1 UseB2=F ITyADJ=14
 ICtDFT=  3500011 ScaDFX=  1.000000  1.000000  1.000000  1.000000
 FoFCou: FMM=F IPFlag=           0 FMFlag=      100000 FMFlg1=           0
         NFxFlg=           0 DoJE=T BraDBF=F KetDBF=T FulRan=T
         wScrn=  0.000000 ICntrl=       500 IOpCl=  0 I1Cent=   200000004 NGrid=           0
         NMat0=    1 NMatS0=      1 NMatT0=    0 NMatD0=    1 NMtDS0=    0 NMtDT0=    0
 Petite list used in FoFCou.
 Requested convergence on RMS density matrix=1.00D-08 within 128 cycles.
 Requested convergence on MAX density matrix=1.00D-06.
 Requested convergence on             energy=1.00D-06.
 No special actions if energy rises.
 Integral accuracy reduced to 1.0D-05 until final iterations.
 Initial convergence to 1.0D-05 achieved.  Increase integral accuracy.
 SCF Done:  E(RwB97XD) =  -851.789196126     A.U. after   15 cycles
            NFock= 15  Conv=0.48D-08     -V/T= 2.0093

 **********************************************************************

            Population analysis using the SCF Density.

 **********************************************************************

 Orbital symmetries:
       Occupied  (A) (A) (A) (A) (A) (A) (A) (A) (A) (A) (A) (A)
                 (A) (A) (A) (A) (A) (A) (A) (A) (A) (A) (A) (A)
                 (A) (A) (A) (A) (A) (A) (A) (A) (A) (A) (A) (A)
                 (A) (A) (A) (A) (A) (A) (A) (A) (A) (A) (A) (A)
                 (A) (A) (A) (A) (A) (A) (A) (A) (A) (A) (A) (A)
                 (A) (A) (A) (A) (A) (A) (A) (A) (A) (A) (A) (A)
                 (A) (A) (A)
       Virtual   (A) (A) (A) (A) (A) (A) (A) (A) (A) (A) (A) (A)
                 (A) (A) (A) (A) (A) (A) (A) (A) (A) (A) (A) (A)
                 (A) (A) (A) (A) (A) (A) (A) (A) (A) (A) (A) (A)
                 (A) (A) (A) (A) (A) (A) (A) (A) (A) (A) (A) (A)
                 (A) (A) (A) (A) (A) (A) (A) (A) (A) (A) (A) (A)
                 (A) (A) (A) (A) (A) (A) (A) (A) (A) (A) (A) (A)
                 (A) (A) (A) (A) (A) (A) (A) (A) (A) (A) (A) (A)
                 (A) (A) (A) (A) (A) (A) (A) (A) (A) (A) (A) (A)
                 (A) (A) (A) (A) (A) (A) (A) (A) (A) (A) (A) (A)
                 (A) (A) (A) (A) (A) (A) (A) (A) (A) (A) (A) (A)
                 (A) (A) (A) (A) (A) (A) (A) (A) (A) (A) (A) (A)
                 (A) (A) (A) (A) (A) (A) (A) (A) (A) (A) (A) (A)
                 (A) (A) (A) (A) (A) (A) (A) (A) (A) (A) (A) (A)
                 (A) (A) (A) (A) (A) (A) (A) (A) (A) (A) (A) (A)
                 (A) (A) (A) (A) (A) (A) (A) (A) (A) (A) (A) (A)
                 (A) (A) (A) (A) (A) (A) (A) (A) (A) (A) (A) (A)
                 (A) (A) (A) (A) (A) (A) (A) (A) (A) (A) (A) (A)
                 (A) (A) (A) (A) (A) (A) (A) (A) (A) (A) (A) (A)
                 (A) (A) (A) (A) (A) (A) (A) (A) (A) (A) (A) (A)
                 (A) (A) (A) (A) (A) (A) (A) (A) (A) (A) (A) (A)
                 (A) (A) (A) (A) (A) (A) (A) (A) (A) (A) (A) (A)
                 (A) (A) (A) (A) (A) (A) (A) (A) (A) (A) (A) (A)
                 (A) (A) (A) (A) (A) (A) (A) (A) (A) (A) (A) (A)
                 (A)
 The electronic state is 1-A.
 Alpha  occ. eigenvalues --  -19.26728 -19.23001 -10.36366 -10.34356 -10.33120
 Alpha  occ. eigenvalues --  -10.31515 -10.30880 -10.30759 -10.30311 -10.30203
 Alpha  occ. eigenvalues --  -10.30144 -10.30000 -10.29774 -10.29684 -10.29595
 Alpha  occ. eigenvalues --  -10.29565 -10.29227 -10.29226 -10.29051 -10.28073
 Alpha  occ. eigenvalues --   -1.11995  -1.09493  -0.98057  -0.95613  -0.90740
 Alpha  occ. eigenvalues --   -0.89993  -0.87043  -0.84164  -0.82561  -0.81045
 Alpha  occ. eigenvalues --   -0.77710  -0.77182  -0.73501  -0.71926  -0.69616
 Alpha  occ. eigenvalues --   -0.67182  -0.66560  -0.65334  -0.62195  -0.60537
 Alpha  occ. eigenvalues --   -0.58988  -0.57876  -0.57082  -0.55406  -0.54840
 Alpha  occ. eigenvalues --   -0.53697  -0.53042  -0.52885  -0.51738  -0.50569
 Alpha  occ. eigenvalues --   -0.50165  -0.49423  -0.48792  -0.47959  -0.47441
 Alpha  occ. eigenvalues --   -0.47162  -0.46355  -0.46224  -0.45081  -0.43948
 Alpha  occ. eigenvalues --   -0.43758  -0.42989  -0.42887  -0.42030  -0.41617
 Alpha  occ. eigenvalues --   -0.41273  -0.40589  -0.39931  -0.39011  -0.38321
 Alpha  occ. eigenvalues --   -0.36659  -0.35954  -0.34686  -0.32296  -0.30518
 Alpha virt. eigenvalues --    0.02372   0.13631   0.14711   0.15560   0.16585
 Alpha virt. eigenvalues --    0.16933   0.17893   0.18587   0.19050   0.20646
 Alpha virt. eigenvalues --    0.20879   0.21092   0.22195   0.22577   0.23628
 Alpha virt. eigenvalues --    0.23719   0.24190   0.24854   0.24917   0.25245
 Alpha virt. eigenvalues --    0.25605   0.26289   0.26534   0.26689   0.26949
 Alpha virt. eigenvalues --    0.27804   0.28115   0.28968   0.29839   0.30632
 Alpha virt. eigenvalues --    0.31048   0.31266   0.32194   0.32511   0.33286
 Alpha virt. eigenvalues --    0.33536   0.34422   0.35061   0.35736   0.36588
 Alpha virt. eigenvalues --    0.36826   0.37928   0.39065   0.39285   0.40531
 Alpha virt. eigenvalues --    0.41777   0.42681   0.44441   0.45510   0.49739
 Alpha virt. eigenvalues --    0.52277   0.58051   0.59032   0.59657   0.60270
 Alpha virt. eigenvalues --    0.61641   0.61695   0.62118   0.62842   0.64814
 Alpha virt. eigenvalues --    0.65914   0.66306   0.66735   0.68434   0.69491
 Alpha virt. eigenvalues --    0.70395   0.71199   0.72265   0.73081   0.73424
 Alpha virt. eigenvalues --    0.73609   0.74159   0.75881   0.76034   0.76611
 Alpha virt. eigenvalues --    0.77977   0.78145   0.78300   0.79902   0.81512
 Alpha virt. eigenvalues --    0.82662   0.83618   0.84617   0.84846   0.86052
 Alpha virt. eigenvalues --    0.87362   0.87525   0.88985   0.89757   0.90608
 Alpha virt. eigenvalues --    0.91637   0.91837   0.93513   0.94113   0.94978
 Alpha virt. eigenvalues --    0.95011   0.95704   0.95812   0.96157   0.96989
 Alpha virt. eigenvalues --    0.97711   0.97830   0.98021   0.99046   0.99354
 Alpha virt. eigenvalues --    1.00076   1.00450   1.00587   1.01404   1.02182
 Alpha virt. eigenvalues --    1.03064   1.03605   1.04173   1.04399   1.05172
 Alpha virt. eigenvalues --    1.05466   1.06072   1.06444   1.07214   1.08190
 Alpha virt. eigenvalues --    1.08679   1.09112   1.10598   1.11629   1.12727
 Alpha virt. eigenvalues --    1.14619   1.15871   1.17028   1.17791   1.20155
 Alpha virt. eigenvalues --    1.21055   1.23312   1.25169   1.26801   1.28877
 Alpha virt. eigenvalues --    1.30828   1.31974   1.35831   1.36679   1.37849
 Alpha virt. eigenvalues --    1.41383   1.41935   1.43322   1.44685   1.48258
 Alpha virt. eigenvalues --    1.50390   1.53414   1.54609   1.55663   1.59319
 Alpha virt. eigenvalues --    1.61375   1.63207   1.64983   1.65497   1.66612
 Alpha virt. eigenvalues --    1.69982   1.71769   1.73356   1.75201   1.77088
 Alpha virt. eigenvalues --    1.78362   1.79312   1.80260   1.81660   1.83512
 Alpha virt. eigenvalues --    1.85643   1.87323   1.87568   1.88035   1.89089
 Alpha virt. eigenvalues --    1.90094   1.90904   1.92292   1.94026   1.94799
 Alpha virt. eigenvalues --    1.95626   1.96214   1.97313   1.98976   1.99840
 Alpha virt. eigenvalues --    2.00378   2.01404   2.01929   2.02179   2.03966
 Alpha virt. eigenvalues --    2.04902   2.06039   2.06580   2.07091   2.07795
 Alpha virt. eigenvalues --    2.09289   2.10040   2.10357   2.10892   2.12719
 Alpha virt. eigenvalues --    2.13260   2.13876   2.15185   2.16000   2.18837
 Alpha virt. eigenvalues --    2.19637   2.20318   2.21841   2.22469   2.25681
 Alpha virt. eigenvalues --    2.25970   2.28273   2.29983   2.30921   2.32580
 Alpha virt. eigenvalues --    2.34892   2.35394   2.36831   2.38777   2.40372
 Alpha virt. eigenvalues --    2.40954   2.42770   2.43343   2.45264   2.46679
 Alpha virt. eigenvalues --    2.47913   2.50003   2.50320   2.52286   2.54005
 Alpha virt. eigenvalues --    2.55303   2.57174   2.57487   2.59783   2.62680
 Alpha virt. eigenvalues --    2.63649   2.63876   2.65288   2.66151   2.67277
 Alpha virt. eigenvalues --    2.68837   2.70463   2.73033   2.74732   2.76802
 Alpha virt. eigenvalues --    2.78330   2.79932   2.81402   2.83475   2.84658
 Alpha virt. eigenvalues --    2.86683   2.90336   2.95251   2.97079   2.98818
 Alpha virt. eigenvalues --    3.00370   3.02544   3.06257   3.07041   3.10990
 Alpha virt. eigenvalues --    3.20433   3.27954   4.00083   4.07790   4.24349
 Alpha virt. eigenvalues --    4.26420   4.31108   4.34022   4.36135   4.38533
 Alpha virt. eigenvalues --    4.42097   4.42886   4.48297   4.54350   4.55782
 Alpha virt. eigenvalues --    4.65270   4.67143   4.74966   4.77211   4.81266
 Alpha virt. eigenvalues --    4.86304   4.91237
          Condensed to atoms (all electrons):
               1          2          3          4          5          6
     1  C    4.444813   0.517080   0.367997   0.000319  -0.000000  -0.000000
     2  O    0.517080   8.129779  -0.060242   0.005078   0.000000   0.000000
     3  C    0.367997  -0.060242   5.290333   0.514679   0.000003   0.000000
     4  C    0.000319   0.005078   0.514679   4.879074   0.000236   0.000001
     5  C   -0.000000   0.000000   0.000003   0.000236   5.098721   0.363911
     6  C   -0.000000   0.000000   0.000000   0.000001   0.363911   5.033933
     7  C    0.000000  -0.000000   0.000001  -0.000081  -0.050266   0.380488
     8  C   -0.000002  -0.000000  -0.000085   0.004115  -0.016855  -0.038835
     9  C   -0.000000  -0.000000  -0.000000  -0.000004   0.358966  -0.054605
    10  C   -0.000000   0.000000  -0.000000   0.000000  -0.061091  -0.064982
    11  C   -0.000000   0.000000   0.000000   0.000001  -0.056889   0.342995
    12  H    0.000000   0.000000  -0.000002  -0.000070   0.379189  -0.053534
    13  H    0.000000   0.000000  -0.000000   0.000003  -0.005928  -0.038407
    14  H    0.000000  -0.000000  -0.000000   0.000001   0.005520  -0.031305
    15  H    0.000000  -0.000000  -0.000003   0.000152  -0.000203  -0.008414
    16  H   -0.000013  -0.000000   0.000018  -0.000171   0.000068   0.004663
    17  H    0.000000  -0.000000   0.000000  -0.000001  -0.026535   0.005231
    18  H   -0.028378   0.000554   0.360438  -0.044417  -0.000000  -0.000000
    19  H    0.000000   0.000000  -0.000000  -0.000000  -0.038611  -0.006469
    20  H    0.000000  -0.000000   0.000000   0.000000   0.000232   0.004104
    21  H    0.000000  -0.000000   0.000000  -0.000000   0.004065  -0.003935
    22  H   -0.000000   0.000000   0.000000   0.000000  -0.003689  -0.030394
    23  H    0.000000  -0.000000  -0.000000  -0.000000   0.004970  -0.028483
    24  H    0.000000  -0.000000  -0.000000   0.000000  -0.006017  -0.033109
    25  C    0.346328  -0.079001  -0.132399   0.003420   0.000002   0.000000
    26  H   -0.029452  -0.000271   0.002647  -0.001943   0.000000  -0.000000
    27  H   -0.027069   0.003688   0.005566  -0.000171  -0.000000  -0.000000
    28  C   -0.026730   0.002421   0.003858  -0.044350  -0.000139   0.000001
    29  H    0.003623  -0.000073  -0.000402   0.004440  -0.000001  -0.000003
    30  H   -0.003101   0.000102   0.003679  -0.004477  -0.000002  -0.000002
    31  C   -0.021787   0.000389  -0.043409   0.380793   0.003967   0.000070
    32  H    0.000708   0.000003  -0.002158  -0.046720   0.000067  -0.000027
    33  C    0.003792  -0.000102  -0.035942   0.356648   0.003810  -0.000123
    34  H   -0.000121   0.000003  -0.007028  -0.041934  -0.000034   0.000002
    35  H    0.000263  -0.000001  -0.002560  -0.039465  -0.000103   0.000001
    36  C   -0.000137   0.000000   0.002411  -0.033848  -0.043326   0.004309
    37  H   -0.000002  -0.000000  -0.000100  -0.002934  -0.005549   0.000018
    38  H    0.000002  -0.000000  -0.000085   0.004137  -0.006097   0.000011
    39  C    0.000000   0.000000  -0.000000   0.000000  -0.066900   0.373777
    40  H    0.000000  -0.000000   0.000000   0.000000  -0.003797  -0.060160
    41  C   -0.000182   0.000001   0.002073  -0.032302  -0.038129  -0.011670
    42  H    0.000054  -0.000000   0.000283  -0.003258  -0.003628  -0.001246
    43  C   -0.000017   0.000000   0.000442  -0.014972   0.374197  -0.028464
    44  H    0.000003  -0.000000  -0.000173  -0.003621  -0.042660  -0.006572
    45  O   -0.000000   0.000000   0.000000   0.000000   0.002430  -0.054910
    46  H    0.000000   0.000000  -0.000000  -0.000000  -0.000314   0.007110
               7          8          9         10         11         12
     1  C    0.000000  -0.000002  -0.000000  -0.000000  -0.000000   0.000000
     2  O   -0.000000  -0.000000  -0.000000   0.000000   0.000000   0.000000
     3  C    0.000001  -0.000085  -0.000000  -0.000000   0.000000  -0.000002
     4  C   -0.000081   0.004115  -0.000004   0.000000   0.000001  -0.000070
     5  C   -0.050266  -0.016855   0.358966  -0.061091  -0.056889   0.379189
     6  C    0.380488  -0.038835  -0.054605  -0.064982   0.342995  -0.053534
     7  C    5.098755   0.352631   0.005624   0.006831  -0.065673  -0.006165
     8  C    0.352631   5.104667   0.000193  -0.000212  -0.004417  -0.000728
     9  C    0.005624   0.000193   5.111627   0.323823  -0.003837  -0.045226
    10  C    0.006831  -0.000212   0.323823   5.249498  -0.009881  -0.003619
    11  C   -0.065673  -0.004417  -0.003837  -0.009881   5.204918   0.006611
    12  H   -0.006165  -0.000728  -0.045226  -0.003619   0.006611   0.627518
    13  H    0.376604  -0.038565   0.000035   0.000028   0.006018   0.005182
    14  H    0.378321  -0.033849  -0.000209   0.000008  -0.005694  -0.000018
    15  H   -0.034208   0.379751  -0.000018   0.000001   0.003486   0.000072
    16  H   -0.033550   0.380032   0.000008   0.000003   0.000056  -0.000062
    17  H   -0.000132  -0.000003   0.376707  -0.026376   0.000117  -0.005887
    18  H   -0.000000   0.000002  -0.000000  -0.000000   0.000000  -0.000000
    19  H    0.000046  -0.000016   0.385330  -0.032582   0.002798   0.005379
    20  H   -0.000145   0.000003  -0.028638   0.370938   0.000203   0.000862
    21  H   -0.000117   0.000003  -0.022660   0.366406   0.001378  -0.000004
    22  H    0.004570   0.000101   0.001192   0.003019   0.379152  -0.000082
    23  H   -0.004010  -0.000764  -0.000128   0.000166   0.379650  -0.000115
    24  H   -0.004264   0.000992  -0.000368  -0.000186   0.373131   0.000019
    25  C   -0.000003   0.000332  -0.000000   0.000000   0.000000  -0.000000
    26  H   -0.000000  -0.000027   0.000000  -0.000000  -0.000000  -0.000000
    27  H   -0.000000  -0.000000   0.000000  -0.000000   0.000000   0.000000
    28  C    0.000191  -0.005033   0.000001  -0.000000  -0.000000   0.000002
    29  H    0.000088   0.003814  -0.000000   0.000000  -0.000002  -0.000000
    30  H   -0.000069  -0.003022   0.000000   0.000000  -0.000000  -0.000001
    31  C    0.003650  -0.040802  -0.000107   0.000002   0.000027   0.000120
    32  H    0.000003  -0.004853  -0.000003   0.000000  -0.000043   0.000001
    33  C   -0.000009   0.000335   0.000068   0.000000   0.000001   0.000158
    34  H    0.000000  -0.000011  -0.000009  -0.000000  -0.000001   0.000003
    35  H   -0.000000   0.000009  -0.000001  -0.000000   0.000000   0.000001
    36  C   -0.000094   0.004218  -0.003568   0.000071   0.000115  -0.007579
    37  H   -0.000006   0.000068  -0.000368  -0.000023  -0.000002   0.005834
    38  H   -0.000003  -0.000126   0.003214  -0.000030  -0.000004  -0.000062
    39  C   -0.041627   0.004301  -0.059233   0.346639  -0.053725  -0.003619
    40  H   -0.009687   0.000052   0.004109  -0.057858   0.007422   0.005472
    41  C   -0.039008   0.364444   0.004359  -0.000199  -0.002225  -0.005257
    42  H   -0.000939  -0.047511  -0.000069   0.000005   0.000064   0.004089
    43  C   -0.010741  -0.038778  -0.035056   0.005073  -0.005255  -0.045565
    44  H    0.000202  -0.002152  -0.005275   0.000029   0.001915   0.006259
    45  O    0.001723  -0.000011   0.003172  -0.042097   0.005319   0.000083
    46  H   -0.000155   0.000003   0.000108  -0.005220  -0.000136  -0.000006
              13         14         15         16         17         18
     1  C    0.000000   0.000000   0.000000  -0.000013   0.000000  -0.028378
     2  O    0.000000  -0.000000  -0.000000  -0.000000  -0.000000   0.000554
     3  C   -0.000000  -0.000000  -0.000003   0.000018   0.000000   0.360438
     4  C    0.000003   0.000001   0.000152  -0.000171  -0.000001  -0.044417
     5  C   -0.005928   0.005520  -0.000203   0.000068  -0.026535  -0.000000
     6  C   -0.038407  -0.031305  -0.008414   0.004663   0.005231  -0.000000
     7  C    0.376604   0.378321  -0.034208  -0.033550  -0.000132  -0.000000
     8  C   -0.038565  -0.033849   0.379751   0.380032  -0.000003   0.000002
     9  C    0.000035  -0.000209  -0.000018   0.000008   0.376707  -0.000000
    10  C    0.000028   0.000008   0.000001   0.000003  -0.026376  -0.000000
    11  C    0.006018  -0.005694   0.003486   0.000056   0.000117   0.000000
    12  H    0.005182  -0.000018   0.000072  -0.000062  -0.005887  -0.000000
    13  H    0.583423  -0.029834   0.004909  -0.004220  -0.000002  -0.000000
    14  H   -0.029834   0.546486  -0.003534  -0.002070   0.000003   0.000000
    15  H    0.004909  -0.003534   0.575598  -0.033259   0.000000  -0.000000
    16  H   -0.004220  -0.002070  -0.033259   0.556933  -0.000000   0.000000
    17  H   -0.000002   0.000003   0.000000  -0.000000   0.552595  -0.000000
    18  H   -0.000000   0.000000  -0.000000   0.000000  -0.000000   0.529907
    19  H   -0.000007   0.000003  -0.000007  -0.000000  -0.035121   0.000000
    20  H   -0.000011  -0.000000   0.000000  -0.000000  -0.007016   0.000000
    21  H   -0.000000   0.000001  -0.000000  -0.000000   0.002199   0.000000
    22  H   -0.000135  -0.000007  -0.000024  -0.000001   0.000047  -0.000000
    23  H    0.000074   0.004589   0.000565  -0.000044  -0.000001   0.000000
    24  H   -0.000093  -0.000124   0.001238   0.000050  -0.000027  -0.000000
    25  C   -0.000000  -0.000000  -0.000067   0.000136   0.000000   0.006081
    26  H    0.000000   0.000000   0.000005   0.000006   0.000000  -0.000171
    27  H    0.000000   0.000000   0.000000   0.000001  -0.000000  -0.000100
    28  C   -0.000029   0.000003  -0.002291   0.004347  -0.000000  -0.000366
    29  H    0.000007   0.000002   0.001504  -0.000665  -0.000000   0.000012
    30  H    0.000006   0.000001   0.000253   0.001565   0.000000  -0.000060
    31  C    0.000050  -0.000096  -0.002307  -0.007069   0.000000   0.004345
    32  H    0.000003   0.000000   0.003867  -0.000035   0.000000  -0.000198
    33  C    0.000000  -0.000000  -0.000016  -0.000008  -0.000020  -0.007122
    34  H   -0.000000  -0.000000  -0.000001   0.000000   0.000005   0.000244
    35  H   -0.000000   0.000000  -0.000000  -0.000000   0.000001   0.005038
    36  C   -0.000048   0.000009  -0.000015  -0.000122   0.001256   0.000184
    37  H   -0.000012   0.000000  -0.000000  -0.000005   0.000237  -0.000003
    38  H    0.000001  -0.000000   0.000003   0.000002   0.001262  -0.000007
    39  C   -0.006201  -0.003732  -0.000027  -0.000085   0.002297  -0.000000
    40  H    0.005671   0.000030  -0.000001  -0.000005  -0.000183   0.000000
    41  C   -0.004432   0.004092  -0.043670  -0.029947  -0.000069  -0.000077
    42  H    0.003848  -0.000062   0.005663  -0.005567   0.000001  -0.000027
    43  C   -0.000438   0.000003  -0.003450   0.004122  -0.001486  -0.000002
    44  H    0.000044  -0.000002   0.001587  -0.000084  -0.000136  -0.000001
    45  O   -0.000095   0.002046  -0.000001   0.000000  -0.000040   0.000000
    46  H   -0.000007  -0.000084   0.000000  -0.000000  -0.000003  -0.000000
              19         20         21         22         23         24
     1  C    0.000000   0.000000   0.000000  -0.000000   0.000000   0.000000
     2  O    0.000000  -0.000000  -0.000000   0.000000  -0.000000  -0.000000
     3  C   -0.000000   0.000000   0.000000   0.000000  -0.000000  -0.000000
     4  C   -0.000000   0.000000  -0.000000   0.000000  -0.000000   0.000000
     5  C   -0.038611   0.000232   0.004065  -0.003689   0.004970  -0.006017
     6  C   -0.006469   0.004104  -0.003935  -0.030394  -0.028483  -0.033109
     7  C    0.000046  -0.000145  -0.000117   0.004570  -0.004010  -0.004264
     8  C   -0.000016   0.000003   0.000003   0.000101  -0.000764   0.000992
     9  C    0.385330  -0.028638  -0.022660   0.001192  -0.000128  -0.000368
    10  C   -0.032582   0.370938   0.366406   0.003019   0.000166  -0.000186
    11  C    0.002798   0.000203   0.001378   0.379152   0.379650   0.373131
    12  H    0.005379   0.000862  -0.000004  -0.000082  -0.000115   0.000019
    13  H   -0.000007  -0.000011  -0.000000  -0.000135   0.000074  -0.000093
    14  H    0.000003  -0.000000   0.000001  -0.000007   0.004589  -0.000124
    15  H   -0.000007   0.000000  -0.000000  -0.000024   0.000565   0.001238
    16  H   -0.000000  -0.000000  -0.000000  -0.000001  -0.000044   0.000050
    17  H   -0.035121  -0.007016   0.002199   0.000047  -0.000001  -0.000027
    18  H    0.000000   0.000000   0.000000  -0.000000   0.000000  -0.000000
    19  H    0.562591   0.003876  -0.008881   0.000545   0.000003   0.000335
    20  H    0.003876   0.554418  -0.030408  -0.000009  -0.000005  -0.000001
    21  H   -0.008881  -0.030408   0.550124   0.000781   0.000042   0.000031
    22  H    0.000545  -0.000009   0.000781   0.541189  -0.024382  -0.029889
    23  H    0.000003  -0.000005   0.000042  -0.024382   0.513860  -0.028338
    24  H    0.000335  -0.000001   0.000031  -0.029889  -0.028338   0.562612
    25  C   -0.000000  -0.000000  -0.000000   0.000000  -0.000000  -0.000000
    26  H   -0.000000   0.000000  -0.000000   0.000000   0.000000   0.000000
    27  H    0.000000   0.000000   0.000000   0.000000  -0.000000   0.000000
    28  C    0.000000   0.000000   0.000000  -0.000000   0.000000   0.000003
    29  H   -0.000000   0.000000   0.000000   0.000000  -0.000000  -0.000003
    30  H   -0.000000  -0.000000   0.000000   0.000000   0.000000   0.000000
    31  C    0.000001  -0.000000  -0.000000  -0.000001  -0.000003   0.000024
    32  H   -0.000003  -0.000000  -0.000000   0.000001   0.000001   0.000054
    33  C   -0.000020  -0.000000  -0.000000  -0.000000  -0.000000   0.000008
    34  H   -0.000003  -0.000000   0.000000   0.000000   0.000000  -0.000002
    35  H    0.000000   0.000000   0.000000  -0.000000   0.000000  -0.000000
    36  C   -0.000366  -0.000005   0.000001  -0.000013   0.000000  -0.000047
    37  H    0.000049  -0.000001   0.000000   0.000000   0.000000  -0.000000
    38  H    0.000304   0.000002   0.000002   0.000000  -0.000000   0.000001
    39  C    0.001130  -0.027451  -0.032127  -0.006226  -0.005040   0.005385
    40  H   -0.000195  -0.006186   0.005089   0.000121  -0.000007  -0.000078
    41  C    0.000065   0.000004   0.000003   0.000010   0.000113  -0.000260
    42  H    0.000003  -0.000000  -0.000000   0.000001   0.000002  -0.000013
    43  C   -0.004231  -0.000074  -0.000145  -0.000018  -0.000021   0.002083
    44  H    0.004642   0.000001  -0.000008   0.000009  -0.000026   0.002987
    45  O   -0.000003   0.001774   0.002259   0.000756   0.003962   0.000348
    46  H    0.000002   0.000798   0.001328  -0.000145  -0.000161  -0.000001
              25         26         27         28         29         30
     1  C    0.346328  -0.029452  -0.027069  -0.026730   0.003623  -0.003101
     2  O   -0.079001  -0.000271   0.003688   0.002421  -0.000073   0.000102
     3  C   -0.132399   0.002647   0.005566   0.003858  -0.000402   0.003679
     4  C    0.003420  -0.001943  -0.000171  -0.044350   0.004440  -0.004477
     5  C    0.000002   0.000000  -0.000000  -0.000139  -0.000001  -0.000002
     6  C    0.000000  -0.000000  -0.000000   0.000001  -0.000003  -0.000002
     7  C   -0.000003  -0.000000  -0.000000   0.000191   0.000088  -0.000069
     8  C    0.000332  -0.000027  -0.000000  -0.005033   0.003814  -0.003022
     9  C   -0.000000   0.000000   0.000000   0.000001  -0.000000   0.000000
    10  C    0.000000  -0.000000  -0.000000  -0.000000   0.000000   0.000000
    11  C    0.000000  -0.000000   0.000000  -0.000000  -0.000002  -0.000000
    12  H   -0.000000  -0.000000   0.000000   0.000002  -0.000000  -0.000001
    13  H   -0.000000   0.000000   0.000000  -0.000029   0.000007   0.000006
    14  H   -0.000000   0.000000   0.000000   0.000003   0.000002   0.000001
    15  H   -0.000067   0.000005   0.000000  -0.002291   0.001504   0.000253
    16  H    0.000136   0.000006   0.000001   0.004347  -0.000665   0.001565
    17  H    0.000000   0.000000  -0.000000  -0.000000  -0.000000   0.000000
    18  H    0.006081  -0.000171  -0.000100  -0.000366   0.000012  -0.000060
    19  H   -0.000000  -0.000000   0.000000   0.000000  -0.000000  -0.000000
    20  H   -0.000000   0.000000   0.000000   0.000000   0.000000  -0.000000
    21  H   -0.000000  -0.000000   0.000000   0.000000   0.000000   0.000000
    22  H    0.000000   0.000000   0.000000  -0.000000   0.000000   0.000000
    23  H   -0.000000   0.000000  -0.000000   0.000000  -0.000000   0.000000
    24  H   -0.000000   0.000000   0.000000   0.000003  -0.000003   0.000000
    25  C    5.342067   0.367105   0.369316   0.285246  -0.030794  -0.041192
    26  H    0.367105   0.537501  -0.020603  -0.037660  -0.005015   0.004976
    27  H    0.369316  -0.020603   0.506863  -0.030661  -0.002326  -0.003466
    28  C    0.285246  -0.037660  -0.030661   5.152653   0.376574   0.386665
    29  H   -0.030794  -0.005015  -0.002326   0.376574   0.551114  -0.031214
    30  H   -0.041192   0.004976  -0.003466   0.386665  -0.031214   0.557877
    31  C   -0.036855  -0.002712   0.004119   0.346880  -0.028307  -0.043388
    32  H   -0.004005   0.004068  -0.000178  -0.033722  -0.004103   0.005313
    33  C   -0.000141  -0.000052   0.000008   0.005300  -0.000109  -0.000052
    34  H   -0.000089   0.000010  -0.000001   0.000124   0.000009   0.000001
    35  H    0.000012   0.000000   0.000000  -0.000138   0.000002   0.000001
    36  C    0.000039  -0.000001   0.000000  -0.000251  -0.000007  -0.000034
    37  H   -0.000003   0.000000  -0.000000   0.000010   0.000001  -0.000005
    38  H   -0.000000   0.000000   0.000000   0.000011   0.000000   0.000000
    39  C   -0.000000  -0.000000  -0.000000   0.000000   0.000000  -0.000000
    40  H   -0.000000  -0.000000   0.000000  -0.000000   0.000000   0.000000
    41  C    0.004463   0.000030  -0.000065  -0.047918  -0.007981  -0.002727
    42  H   -0.000175   0.000008  -0.000002  -0.004021   0.000104   0.004883
    43  C   -0.000091   0.000003   0.000001   0.004163  -0.000116   0.000197
    44  H   -0.000012  -0.000001   0.000000   0.000193   0.000003   0.000008
    45  O    0.000000  -0.000000   0.000000   0.000000   0.000000  -0.000000
    46  H   -0.000000   0.000000   0.000000   0.000000  -0.000000  -0.000000
              31         32         33         34         35         36
     1  C   -0.021787   0.000708   0.003792  -0.000121   0.000263  -0.000137
     2  O    0.000389   0.000003  -0.000102   0.000003  -0.000001   0.000000
     3  C   -0.043409  -0.002158  -0.035942  -0.007028  -0.002560   0.002411
     4  C    0.380793  -0.046720   0.356648  -0.041934  -0.039465  -0.033848
     5  C    0.003967   0.000067   0.003810  -0.000034  -0.000103  -0.043326
     6  C    0.000070  -0.000027  -0.000123   0.000002   0.000001   0.004309
     7  C    0.003650   0.000003  -0.000009   0.000000  -0.000000  -0.000094
     8  C   -0.040802  -0.004853   0.000335  -0.000011   0.000009   0.004218
     9  C   -0.000107  -0.000003   0.000068  -0.000009  -0.000001  -0.003568
    10  C    0.000002   0.000000   0.000000  -0.000000  -0.000000   0.000071
    11  C    0.000027  -0.000043   0.000001  -0.000001   0.000000   0.000115
    12  H    0.000120   0.000001   0.000158   0.000003   0.000001  -0.007579
    13  H    0.000050   0.000003   0.000000  -0.000000  -0.000000  -0.000048
    14  H   -0.000096   0.000000  -0.000000  -0.000000   0.000000   0.000009
    15  H   -0.002307   0.003867  -0.000016  -0.000001  -0.000000  -0.000015
    16  H   -0.007069  -0.000035  -0.000008   0.000000  -0.000000  -0.000122
    17  H    0.000000   0.000000  -0.000020   0.000005   0.000001   0.001256
    18  H    0.004345  -0.000198  -0.007122   0.000244   0.005038   0.000184
    19  H    0.000001  -0.000003  -0.000020  -0.000003   0.000000  -0.000366
    20  H   -0.000000  -0.000000  -0.000000  -0.000000   0.000000  -0.000005
    21  H   -0.000000  -0.000000  -0.000000   0.000000   0.000000   0.000001
    22  H   -0.000001   0.000001  -0.000000   0.000000  -0.000000  -0.000013
    23  H   -0.000003   0.000001  -0.000000   0.000000   0.000000   0.000000
    24  H    0.000024   0.000054   0.000008  -0.000002  -0.000000  -0.000047
    25  C   -0.036855  -0.004005  -0.000141  -0.000089   0.000012   0.000039
    26  H   -0.002712   0.004068  -0.000052   0.000010   0.000000  -0.000001
    27  H    0.004119  -0.000178   0.000008  -0.000001   0.000000   0.000000
    28  C    0.346880  -0.033722   0.005300   0.000124  -0.000138  -0.000251
    29  H   -0.028307  -0.004103  -0.000109   0.000009   0.000002  -0.000007
    30  H   -0.043388   0.005313  -0.000052   0.000001   0.000001  -0.000034
    31  C    5.089535   0.364860  -0.068363  -0.000049   0.004164  -0.011097
    32  H    0.364860   0.591289   0.000176   0.002162  -0.000109  -0.000643
    33  C   -0.068363   0.000176   5.158603   0.376967   0.379424   0.334861
    34  H   -0.000049   0.002162   0.376967   0.557420  -0.026223  -0.039557
    35  H    0.004164  -0.000109   0.379424  -0.026223   0.529804  -0.030684
    36  C   -0.011097  -0.000643   0.334861  -0.039557  -0.030684   5.101034
    37  H    0.000341   0.000100  -0.035429   0.004824  -0.003556   0.379403
    38  H   -0.000044  -0.000024  -0.032050  -0.005545  -0.001410   0.378498
    39  C    0.000004  -0.000000   0.000002  -0.000000  -0.000000  -0.000156
    40  H   -0.000000  -0.000000  -0.000000  -0.000000   0.000000   0.000006
    41  C    0.364369  -0.041440  -0.014959  -0.000866  -0.000153  -0.043449
    42  H   -0.043943   0.005992  -0.000331   0.000155  -0.000087  -0.006903
    43  C   -0.037535  -0.006453  -0.041902  -0.003673   0.003937   0.370213
    44  H   -0.003022   0.006424   0.000617   0.003839   0.000001  -0.047551
    45  O   -0.000000   0.000000  -0.000000  -0.000000   0.000000   0.000000
    46  H    0.000000  -0.000000   0.000000  -0.000000  -0.000000  -0.000000
              37         38         39         40         41         42
     1  C   -0.000002   0.000002   0.000000   0.000000  -0.000182   0.000054
     2  O   -0.000000  -0.000000   0.000000  -0.000000   0.000001  -0.000000
     3  C   -0.000100  -0.000085  -0.000000   0.000000   0.002073   0.000283
     4  C   -0.002934   0.004137   0.000000   0.000000  -0.032302  -0.003258
     5  C   -0.005549  -0.006097  -0.066900  -0.003797  -0.038129  -0.003628
     6  C    0.000018   0.000011   0.373777  -0.060160  -0.011670  -0.001246
     7  C   -0.000006  -0.000003  -0.041627  -0.009687  -0.039008  -0.000939
     8  C    0.000068  -0.000126   0.004301   0.000052   0.364444  -0.047511
     9  C   -0.000368   0.003214  -0.059233   0.004109   0.004359  -0.000069
    10  C   -0.000023  -0.000030   0.346639  -0.057858  -0.000199   0.000005
    11  C   -0.000002  -0.000004  -0.053725   0.007422  -0.002225   0.000064
    12  H    0.005834  -0.000062  -0.003619   0.005472  -0.005257   0.004089
    13  H   -0.000012   0.000001  -0.006201   0.005671  -0.004432   0.003848
    14  H    0.000000  -0.000000  -0.003732   0.000030   0.004092  -0.000062
    15  H   -0.000000   0.000003  -0.000027  -0.000001  -0.043670   0.005663
    16  H   -0.000005   0.000002  -0.000085  -0.000005  -0.029947  -0.005567
    17  H    0.000237   0.001262   0.002297  -0.000183  -0.000069   0.000001
    18  H   -0.000003  -0.000007  -0.000000   0.000000  -0.000077  -0.000027
    19  H    0.000049   0.000304   0.001130  -0.000195   0.000065   0.000003
    20  H   -0.000001   0.000002  -0.027451  -0.006186   0.000004  -0.000000
    21  H    0.000000   0.000002  -0.032127   0.005089   0.000003  -0.000000
    22  H    0.000000   0.000000  -0.006226   0.000121   0.000010   0.000001
    23  H    0.000000  -0.000000  -0.005040  -0.000007   0.000113   0.000002
    24  H   -0.000000   0.000001   0.005385  -0.000078  -0.000260  -0.000013
    25  C   -0.000003  -0.000000  -0.000000  -0.000000   0.004463  -0.000175
    26  H    0.000000   0.000000  -0.000000  -0.000000   0.000030   0.000008
    27  H   -0.000000   0.000000  -0.000000   0.000000  -0.000065  -0.000002
    28  C    0.000010   0.000011   0.000000  -0.000000  -0.047918  -0.004021
    29  H    0.000001   0.000000   0.000000   0.000000  -0.007981   0.000104
    30  H   -0.000005   0.000000  -0.000000   0.000000  -0.002727   0.004883
    31  C    0.000341  -0.000044   0.000004  -0.000000   0.364369  -0.043943
    32  H    0.000100  -0.000024  -0.000000  -0.000000  -0.041440   0.005992
    33  C   -0.035429  -0.032050   0.000002  -0.000000  -0.014959  -0.000331
    34  H    0.004824  -0.005545  -0.000000  -0.000000  -0.000866   0.000155
    35  H   -0.003556  -0.001410  -0.000000   0.000000  -0.000153  -0.000087
    36  C    0.379403   0.378498  -0.000156   0.000006  -0.043449  -0.006903
    37  H    0.566015  -0.031862  -0.000007  -0.000005  -0.008309   0.006328
    38  H   -0.031862   0.556027  -0.000008  -0.000000   0.005057   0.000108
    39  C   -0.000007  -0.000008   4.815925   0.387738   0.000230  -0.000063
    40  H   -0.000005  -0.000000   0.387738   0.634298   0.000004  -0.000005
    41  C   -0.008309   0.005057   0.000230   0.000004   5.045899   0.375910
    42  H    0.006328   0.000108  -0.000063  -0.000005   0.375910   0.612629
    43  C   -0.039053  -0.032714   0.004570  -0.000293   0.369126  -0.048061
    44  H    0.005563  -0.003112   0.000037  -0.000009  -0.049645   0.006097
    45  O    0.000000   0.000000   0.247076  -0.042051  -0.000001   0.000000
    46  H   -0.000000   0.000000  -0.025514  -0.001206   0.000000  -0.000000
              43         44         45         46
     1  C   -0.000017   0.000003  -0.000000   0.000000
     2  O    0.000000  -0.000000   0.000000   0.000000
     3  C    0.000442  -0.000173   0.000000  -0.000000
     4  C   -0.014972  -0.003621   0.000000  -0.000000
     5  C    0.374197  -0.042660   0.002430  -0.000314
     6  C   -0.028464  -0.006572  -0.054910   0.007110
     7  C   -0.010741   0.000202   0.001723  -0.000155
     8  C   -0.038778  -0.002152  -0.000011   0.000003
     9  C   -0.035056  -0.005275   0.003172   0.000108
    10  C    0.005073   0.000029  -0.042097  -0.005220
    11  C   -0.005255   0.001915   0.005319  -0.000136
    12  H   -0.045565   0.006259   0.000083  -0.000006
    13  H   -0.000438   0.000044  -0.000095  -0.000007
    14  H    0.000003  -0.000002   0.002046  -0.000084
    15  H   -0.003450   0.001587  -0.000001   0.000000
    16  H    0.004122  -0.000084   0.000000  -0.000000
    17  H   -0.001486  -0.000136  -0.000040  -0.000003
    18  H   -0.000002  -0.000001   0.000000  -0.000000
    19  H   -0.004231   0.004642  -0.000003   0.000002
    20  H   -0.000074   0.000001   0.001774   0.000798
    21  H   -0.000145  -0.000008   0.002259   0.001328
    22  H   -0.000018   0.000009   0.000756  -0.000145
    23  H   -0.000021  -0.000026   0.003962  -0.000161
    24  H    0.002083   0.002987   0.000348  -0.000001
    25  C   -0.000091  -0.000012   0.000000  -0.000000
    26  H    0.000003  -0.000001  -0.000000   0.000000
    27  H    0.000001   0.000000   0.000000   0.000000
    28  C    0.004163   0.000193   0.000000   0.000000
    29  H   -0.000116   0.000003   0.000000  -0.000000
    30  H    0.000197   0.000008  -0.000000  -0.000000
    31  C   -0.037535  -0.003022  -0.000000   0.000000
    32  H   -0.006453   0.006424   0.000000  -0.000000
    33  C   -0.041902   0.000617  -0.000000   0.000000
    34  H   -0.003673   0.003839  -0.000000  -0.000000
    35  H    0.003937   0.000001   0.000000  -0.000000
    36  C    0.370213  -0.047551   0.000000  -0.000000
    37  H   -0.039053   0.005563   0.000000  -0.000000
    38  H   -0.032714  -0.003112   0.000000   0.000000
    39  C    0.004570   0.000037   0.247076  -0.025514
    40  H   -0.000293  -0.000009  -0.042051  -0.001206
    41  C    0.369126  -0.049645  -0.000001   0.000000
    42  H   -0.048061   0.006097   0.000000  -0.000000
    43  C    5.007990   0.380260  -0.000054   0.000003
    44  H    0.380260   0.608699   0.000000  -0.000000
    45  O   -0.000054   0.000000   8.284236   0.244242
    46  H    0.000003  -0.000000   0.244242   0.371223
 Mulliken charges:
               1
     1  C    0.452009
     2  O   -0.519409
     3  C   -0.269840
     4  C    0.161643
     5  C   -0.123591
     6  C    0.035027
     7  C   -0.308775
     8  C   -0.323407
     9  C   -0.319152
    10  C   -0.368182
    11  C   -0.507592
    12  H    0.130748
    13  H    0.142556
    14  H    0.169504
    15  H    0.152861
    16  H    0.164973
    17  H    0.161076
    18  H    0.174125
    19  H    0.159413
    20  H    0.162734
    21  H    0.164574
    22  H    0.163519
    23  H    0.183533
    24  H    0.153519
    25  C   -0.399719
    26  H    0.181550
    27  H    0.195079
    28  C   -0.335335
    29  H    0.169822
    30  H    0.167284
    31  C   -0.176813
    32  H    0.159623
    33  C   -0.384026
    34  H    0.179377
    35  H    0.181832
    36  C   -0.307128
    37  H    0.158442
    38  H    0.164544
    39  C    0.142627
    40  H    0.131715
    41  C   -0.115311
    42  H    0.139688
    43  C   -0.127726
    44  H    0.134642
    45  O   -0.660165
    46  H    0.408135
 Sum of Mulliken charges =  -0.00000
 Mulliken charges with hydrogens summed into heavy atoms:
               1
     1  C    0.452009
     2  O   -0.519409
     3  C   -0.095715
     4  C    0.161643
     5  C    0.007157
     6  C    0.035027
     7  C    0.003285
     8  C   -0.005573
     9  C    0.001337
    10  C   -0.040874
    11  C   -0.007021
    25  C   -0.023090
    28  C    0.001770
    31  C   -0.017190
    33  C   -0.022817
    36  C    0.015858
    39  C    0.274343
    41  C    0.024376
    43  C    0.006915
    45  O   -0.252030
 Electronic spatial extent (au):  <R**2>=           6869.0599
 Charge=              0.0000 electrons
 Dipole moment (field-independent basis, Debye):
    X=             -5.4682    Y=              1.5543    Z=              0.5439  Tot=              5.7107
 Quadrupole moment (field-independent basis, Debye-Ang):
   XX=           -152.9512   YY=           -118.1428   ZZ=           -119.2314
   XY=             -6.0297   XZ=              8.5683   YZ=             -0.2398
 Traceless Quadrupole moment (field-independent basis, Debye-Ang):
   XX=            -22.8427   YY=             11.9657   ZZ=             10.8771
   XY=             -6.0297   XZ=              8.5683   YZ=             -0.2398
 Octapole moment (field-independent basis, Debye-Ang**2):
  XXX=           -356.5999  YYY=              1.3862  ZZZ=             -1.8064  XYY=             23.8319
  XXY=             26.0787  XXZ=             11.2655  XZZ=             -3.8997  YZZ=             -1.6885
  YYZ=             -0.9632  XYZ=             -1.2433
 Hexadecapole moment (field-independent basis, Debye-Ang**3):
 XXXX=          -8320.9894 YYYY=          -1421.9987 ZZZZ=           -411.9778 XXXY=            -55.1195
 XXXZ=            281.0998 YYYX=             11.5284 YYYZ=             -5.4605 ZZZX=             11.2371
 ZZZY=              4.4475 XXYY=          -1428.5333 XXZZ=          -1235.0999 YYZZ=           -310.6465
 XXYZ=             -5.0567 YYXZ=             -7.9647 ZZXY=             -2.9813
 N-N= 1.665489387922D+03 E-N=-5.308189136148D+03  KE= 8.439510494183D+02

 **********************************************************************

            Electrostatic Properties Using The SCF Density.

 **********************************************************************

       Atomic Center    1 is at   4.657134 -0.163631 -0.128785
       Atomic Center    2 is at   5.878919 -0.138491 -0.417341
       Atomic Center    3 is at   3.830936  0.987372 -0.229616
       Atomic Center    4 is at   2.506854  0.938972  0.092527
       Atomic Center    5 is at  -1.849808  0.759952 -0.250655
       Atomic Center    6 is at  -2.560007 -0.586057  0.004005
       Atomic Center    7 is at  -1.759874 -1.700346 -0.671915
       Atomic Center    8 is at  -0.320397 -1.729432 -0.134992
       Atomic Center    9 is at  -2.846378  1.791340  0.277685
       Atomic Center   10 is at  -4.204917  1.205435 -0.170792
       Atomic Center   11 is at  -2.748208 -0.906586  1.498530
       Atomic Center   12 is at  -1.812910  0.877138 -1.347875
       Atomic Center   13 is at  -1.738665 -1.521732 -1.756920
       Atomic Center   14 is at  -2.234994 -2.676351 -0.513416
       Atomic Center   15 is at  -0.320929 -2.040900  0.919841
       Atomic Center   16 is at   0.240329 -2.498883 -0.680300
       Atomic Center   17 is at  -2.673572  2.799311 -0.101195
       Atomic Center   18 is at   4.321020  1.931410 -0.458419
       Atomic Center   19 is at  -2.777915  1.860022  1.368282
       Atomic Center   20 is at  -4.616669  1.792536 -0.997881
       Atomic Center   21 is at  -4.945155  1.209316  0.637984
       Atomic Center   22 is at  -3.461392 -0.230908  1.977794
       Atomic Center   23 is at  -3.141169 -1.922993  1.606270
       Atomic Center   24 is at  -1.807755 -0.836401  2.054308
       Atomic Center   25 is at   4.072019 -1.442820  0.401136
       Atomic Center   26 is at   4.153696 -1.400148  1.497327
       Atomic Center   27 is at   4.676015 -2.282728  0.043680
       Atomic Center   28 is at   2.617934 -1.586371 -0.012721
       Atomic Center   29 is at   2.193614 -2.486753  0.442714
       Atomic Center   30 is at   2.563347 -1.722223 -1.102708
       Atomic Center   31 is at   1.793745 -0.362824  0.384824
       Atomic Center   32 is at   1.665235 -0.355286  1.481095
       Atomic Center   33 is at   1.722726  2.187083  0.254262
       Atomic Center   34 is at   1.734405  2.378359  1.348094
       Atomic Center   35 is at   2.245182  3.034361 -0.199225
       Atomic Center   36 is at   0.277170  2.108861 -0.233636
       Atomic Center   37 is at   0.249736  2.135064 -1.331844
       Atomic Center   38 is at  -0.259807  2.994275  0.112859
       Atomic Center   39 is at  -3.923022 -0.256893 -0.625703
       Atomic Center   40 is at  -3.808421 -0.281644 -1.719222
       Atomic Center   41 is at   0.395834 -0.374316 -0.275688
       Atomic Center   42 is at   0.545052 -0.214233 -1.358239
       Atomic Center   43 is at  -0.414791  0.830565  0.239847
       Atomic Center   44 is at  -0.404707  0.819587  1.340631
       Atomic Center   45 is at  -4.915010 -1.202701 -0.245591
       Atomic Center   46 is at  -5.776535 -0.832493 -0.470066
 -----------------------------------------------------------------

              Electrostatic Properties (Atomic Units)

 -----------------------------------------------------------------
    Center     Electric         -------- Electric Field --------
               Potential          X             Y             Z
 -----------------------------------------------------------------
    1 Atom    -14.677191      0.006141     -0.003390     -0.001495
    2 Atom    -22.358335      0.099765      0.001629     -0.023942
    3 Atom    -14.748329     -0.010287      0.000512      0.002538
    4 Atom    -14.709790      0.012632     -0.000556     -0.004172
    5 Atom    -14.738557     -0.000109     -0.002191      0.002799
    6 Atom    -14.733793      0.000095      0.000550     -0.001384
    7 Atom    -14.744148     -0.002506      0.001667      0.001235
    8 Atom    -14.738421     -0.000673     -0.000394     -0.000011
    9 Atom    -14.738364      0.002370     -0.000711      0.000469
   10 Atom    -14.738043     -0.000703     -0.001629      0.000111
   11 Atom    -14.753581     -0.001296     -0.001044     -0.001265
   12 Atom     -1.124211      0.001418      0.003297     -0.030469
   13 Atom     -1.127255     -0.000674      0.002513     -0.029670
   14 Atom     -1.129907     -0.014810     -0.025038      0.002804
   15 Atom     -1.123943     -0.000616     -0.010087      0.027144
   16 Atom     -1.124460      0.014482     -0.020150     -0.013150
   17 Atom     -1.122477      0.004581      0.029204     -0.012639
   18 Atom     -1.105888      0.015359      0.027187     -0.007636
   19 Atom     -1.123604      0.001254      0.001437      0.030585
   20 Atom     -1.119953     -0.013063      0.016331     -0.021485
   21 Atom     -1.117011     -0.018905      0.000249      0.022207
   22 Atom     -1.127255     -0.021014      0.015570      0.013964
   23 Atom     -1.129935     -0.013191     -0.024845      0.002968
   24 Atom     -1.124864      0.024087      0.000397      0.016147
   25 Atom    -14.743511      0.001155     -0.001160     -0.002687
   26 Atom     -1.108261      0.003768     -0.002694      0.029899
   27 Atom     -1.120421      0.019933     -0.019195     -0.008231
   28 Atom    -14.734321     -0.000246     -0.001219      0.000050
   29 Atom     -1.119752     -0.012259     -0.025025      0.010714
   30 Atom     -1.119381     -0.001789     -0.004632     -0.028842
   31 Atom    -14.719760     -0.002111     -0.003690     -0.001842
   32 Atom     -1.105144     -0.007457     -0.005776      0.031250
   33 Atom    -14.725765     -0.001417      0.002502     -0.000470
   34 Atom     -1.100452     -0.002836      0.009324      0.024401
   35 Atom     -1.109079      0.014957      0.023664     -0.012762
   36 Atom    -14.732599     -0.002760     -0.001948     -0.000261
   37 Atom     -1.117492     -0.000494      0.002337     -0.029782
   38 Atom     -1.117805     -0.017148      0.025944      0.009530
   39 Atom    -14.690355      0.019046      0.012160     -0.004214
   40 Atom     -1.130637      0.003518     -0.002756     -0.032146
   41 Atom    -14.727270     -0.002247      0.000454      0.000296
   42 Atom     -1.121328      0.004823      0.003628     -0.029655
   43 Atom    -14.731840     -0.001002     -0.000809     -0.001527
   44 Atom     -1.119908     -0.001869     -0.000845      0.031219
   45 Atom    -22.313151      0.024956     -0.099934      0.048023
   46 Atom     -0.997212     -0.042227      0.013421     -0.009610
 -----------------------------------------------------------------
 -----------------------------------------------------
    Center         ---- Electric Field Gradient ----
                     XX            YY            ZZ
 -----------------------------------------------------
    1 Atom     -493.322646   -493.252685   -493.899857
    2 Atom    -1217.266090  -1214.759839  -1217.508554
    3 Atom     -493.101115   -493.155682   -493.377682
    4 Atom     -493.210905   -493.284189   -493.840523
    5 Atom     -492.920300   -492.935644   -492.925874
    6 Atom     -492.894139   -492.881013   -492.914749
    7 Atom     -492.698784   -492.654510   -492.683706
    8 Atom     -492.620032   -492.627615   -492.592500
    9 Atom     -492.668817   -492.605936   -492.593603
   10 Atom     -492.703995   -492.702985   -492.673204
   11 Atom     -492.534833   -492.525839   -492.590241
   12 Atom       -1.648203     -1.644556     -2.040113
   13 Atom       -1.625912     -1.635658     -2.034403
   14 Atom       -1.698174     -1.958035     -1.628019
   15 Atom       -1.623179     -1.654969     -2.009305
   16 Atom       -1.740544     -1.835391     -1.730077
   17 Atom       -1.641527     -2.008902     -1.684173
   18 Atom       -1.690234     -1.940362     -1.607718
   19 Atom       -1.628561     -1.626694     -2.055981
   20 Atom       -1.689373     -1.752812     -1.877219
   21 Atom       -1.810839     -1.612760     -1.849210
   22 Atom       -1.793630     -1.780188     -1.698059
   23 Atom       -1.646677     -1.973829     -1.605289
   24 Atom       -1.939245     -1.610859     -1.726405
   25 Atom     -492.704650   -492.716678   -492.718239
   26 Atom       -1.601041     -1.600353     -2.019092
   27 Atom       -1.733185     -1.860058     -1.648899
   28 Atom     -492.618248   -492.600109   -492.582845
   29 Atom       -1.694725     -1.919158     -1.700299
   30 Atom       -1.622711     -1.623141     -2.029591
   31 Atom     -492.745896   -492.791760   -492.769815
   32 Atom       -1.623747     -1.621110     -2.020613
   33 Atom     -492.579357   -492.609727   -492.598785
   34 Atom       -1.596081     -1.609950     -1.980161
   35 Atom       -1.721886     -1.878966     -1.690158
   36 Atom     -492.686024   -492.629568   -492.640996
   37 Atom       -1.623764     -1.622213     -2.042944
   38 Atom       -1.739038     -1.918811     -1.672337
   39 Atom     -492.832519   -492.833494   -492.626714
   40 Atom       -1.683605     -1.674385     -2.081101
   41 Atom     -492.823580   -492.782618   -492.794074
   42 Atom       -1.642231     -1.644835     -2.020827
   43 Atom     -492.759289   -492.784759   -492.773704
   44 Atom       -1.636739     -1.634664     -2.048948
   45 Atom    -1215.955428  -1214.185470  -1212.871350
   46 Atom       -1.999558     -1.556085     -1.459496
 -----------------------------------------------------
 -----------------------------------------------------
    Center         ---- Electric Field Gradient ----
                     XY            XZ            YZ
 -----------------------------------------------------
    1 Atom       -0.055996     -0.133339     -0.192801
    2 Atom       -0.198399     -0.025369     -0.769696
    3 Atom       -0.020524     -0.060638     -0.036358
    4 Atom       -0.012273     -0.135291     -0.038202
    5 Atom        0.016534     -0.005758      0.000222
    6 Atom       -0.001648     -0.002424      0.014449
    7 Atom        0.009683     -0.014534     -0.018212
    8 Atom       -0.021989     -0.011177      0.011307
    9 Atom       -0.013498     -0.011353     -0.020171
   10 Atom       -0.008457     -0.012313     -0.032167
   11 Atom        0.004415      0.002075      0.014431
   12 Atom       -0.002681      0.013066      0.042148
   13 Atom        0.001095      0.008313      0.068419
   14 Atom       -0.163343      0.027187      0.055058
   15 Atom       -0.001862     -0.000624      0.113794
   16 Atom        0.151368      0.108447     -0.148988
   17 Atom       -0.065596      0.023464      0.145725
   18 Atom       -0.168444      0.044303      0.083420
   19 Atom       -0.002227     -0.025608     -0.025665
   20 Atom        0.085979     -0.125526      0.175388
   21 Atom       -0.001720      0.213784     -0.003092
   22 Atom        0.182060      0.126228     -0.116898
   23 Atom       -0.144012      0.018878      0.040213
   24 Atom       -0.024506     -0.189535     -0.013399
   25 Atom       -0.013471     -0.034168      0.004969
   26 Atom       -0.003081     -0.029522     -0.014633
   27 Atom        0.181555      0.076021     -0.108612
   28 Atom        0.021917     -0.002933     -0.022757
   29 Atom       -0.136760      0.069961      0.148037
   30 Atom       -0.000411     -0.021704     -0.051975
   31 Atom       -0.028022     -0.013428      0.001429
   32 Atom        0.000922      0.050706      0.000862
   33 Atom        0.019556     -0.024172     -0.010334
   34 Atom        0.002818     -0.001182     -0.068932
   35 Atom       -0.157734      0.086652      0.141359
   36 Atom       -0.008012     -0.018489      0.022660
   37 Atom       -0.002529     -0.010630      0.009378
   38 Atom        0.174461      0.068469     -0.114650
   39 Atom       -0.204346      0.101133      0.080886
   40 Atom       -0.004904      0.043067     -0.007290
   41 Atom       -0.006272     -0.022405     -0.010109
   42 Atom       -0.008510      0.053138      0.057539
   43 Atom       -0.003867      0.010113     -0.001738
   44 Atom       -0.000361     -0.004090      0.005265
   45 Atom       -0.334566     -0.047202      0.798553
   46 Atom        0.222965     -0.139797      0.079723
 -----------------------------------------------------
 -----------------------------------------------------
    Center         ---- Electric Field Gradient ----
                   ----       Eigenvalues       ----
 -----------------------------------------------------
    1 Atom     -493.984060   -493.295006   -493.196122
    2 Atom    -1217.721930  -1217.266238  -1214.546316
    3 Atom     -493.396970   -493.151575   -493.085934
    4 Atom     -493.871075   -493.281666   -493.182877
    5 Atom     -492.946732   -492.926648   -492.908438
    6 Atom     -492.920203   -492.894332   -492.875367
    7 Atom     -492.707653   -492.687643   -492.641704
    8 Atom     -492.646181   -492.613443   -492.580523
    9 Atom     -492.674597   -492.615097   -492.578662
   10 Atom     -492.730735   -492.697487   -492.651962
   11 Atom     -492.593348   -492.536459   -492.521106
   12 Atom       -2.044998     -1.647973     -1.639901
   13 Atom       -2.045969     -1.627563     -1.622440
   14 Atom       -2.045845     -1.619786     -1.618596
   15 Atom       -2.042702     -1.624496     -1.620255
   16 Atom       -2.052056     -1.629446     -1.624510
   17 Atom       -2.075876     -1.631186     -1.627540
   18 Atom       -2.045466     -1.605728     -1.587120
   19 Atom       -2.059044     -1.627261     -1.624932
   20 Atom       -2.063046     -1.630344     -1.626013
   21 Atom       -2.044671     -1.617672     -1.610466
   22 Atom       -2.052560     -1.615479     -1.603838
   23 Atom       -2.032779     -1.601933     -1.591084
   24 Atom       -2.051960     -1.615560     -1.608989
   25 Atom     -492.747079   -492.720067   -492.672421
   26 Atom       -2.021687     -1.601492     -1.597307
   27 Atom       -2.034516     -1.604780     -1.602846
   28 Atom     -492.635270   -492.603175   -492.562758
   29 Atom       -2.058659     -1.630036     -1.625487
   30 Atom       -2.037257     -1.622485     -1.615701
   31 Atom     -492.805629   -492.773195   -492.728647
   32 Atom       -2.026990     -1.621370     -1.617110
   33 Atom     -492.619563   -492.614021   -492.554285
   34 Atom       -1.992580     -1.599875     -1.593736
   35 Atom       -2.052501     -1.624266     -1.614243
   36 Atom     -492.692643   -492.656127   -492.607817
   37 Atom       -2.043419     -1.625615     -1.619887
   38 Atom       -2.070018     -1.632918     -1.627251
   39 Atom     -493.074386   -492.633083   -492.585258
   40 Atom       -2.085823     -1.682757     -1.670510
   41 Atom     -492.837611   -492.787188   -492.775472
   42 Atom       -2.036774     -1.636423     -1.634694
   43 Atom     -492.785341   -492.778907   -492.753504
   44 Atom       -2.049055     -1.636777     -1.634519
   45 Atom    -1216.019906  -1214.508085  -1212.484257
   46 Atom       -2.130323     -1.470941     -1.413875
 -----------------------------------------------------
 -----------------------------------------------------
    Center         ---- Electric Field Gradient ----
                       ( tensor representation )
                   3XX-RR        3YY-RR        3ZZ-RR
 -----------------------------------------------------
    1 Atom        0.169083      0.239044     -0.408127
    2 Atom       -0.754596      1.751656     -0.997060
    3 Atom        0.110378      0.055811     -0.166189
    4 Atom        0.234301      0.161017     -0.395317
    5 Atom        0.006973     -0.008372      0.001399
    6 Atom        0.002495      0.015620     -0.018115
    7 Atom       -0.019784      0.024490     -0.004706
    8 Atom       -0.006650     -0.014233      0.020883
    9 Atom       -0.046031      0.016849      0.029182
   10 Atom       -0.010600     -0.009590      0.020190
   11 Atom        0.015471      0.024466     -0.039936
   12 Atom        0.129421      0.133068     -0.262489
   13 Atom        0.139412      0.129667     -0.269079
   14 Atom        0.063236     -0.196625      0.133390
   15 Atom        0.139305      0.107515     -0.246821
   16 Atom        0.028127     -0.066720      0.038594
   17 Atom        0.136673     -0.230701      0.094028
   18 Atom        0.055871     -0.194258      0.138387
   19 Atom        0.141851      0.143718     -0.285569
   20 Atom        0.083762      0.020322     -0.104084
   21 Atom       -0.053236      0.144843     -0.091607
   22 Atom       -0.036338     -0.022896      0.059233
   23 Atom        0.095254     -0.231897      0.136643
   24 Atom       -0.180409      0.147978      0.032431
   25 Atom        0.008539     -0.003488     -0.005050
   26 Atom        0.139121      0.139809     -0.278930
   27 Atom        0.014196     -0.112677      0.098481
   28 Atom       -0.017847      0.000291      0.017556
   29 Atom        0.076669     -0.147764      0.071095
   30 Atom        0.135770      0.135340     -0.271110
   31 Atom        0.023261     -0.022603     -0.000658
   32 Atom        0.131409      0.134047     -0.265456
   33 Atom        0.016600     -0.013771     -0.002829
   34 Atom        0.132650      0.118781     -0.251430
   35 Atom        0.041784     -0.115296      0.073512
   36 Atom       -0.033828      0.022628      0.011200
   37 Atom        0.139210      0.140760     -0.279970
   38 Atom        0.037690     -0.142082      0.104392
   39 Atom       -0.068276     -0.069252      0.137528
   40 Atom        0.129425      0.138645     -0.268070
   41 Atom       -0.023490      0.017473      0.006017
   42 Atom        0.127067      0.124463     -0.251529
   43 Atom        0.013295     -0.012175     -0.001120
   44 Atom        0.136711      0.138786     -0.275498
   45 Atom       -1.618012      0.151946      1.466066
   46 Atom       -0.327845      0.115628      0.212217
 -----------------------------------------------------
 -----------------------------------------------------
    Center         ---- Electric Field Gradient ----
                       ( tensor representation )
                   ----       Eigenvalues       ----
 -----------------------------------------------------
    1 Atom       -0.492330      0.196723      0.295607
    2 Atom       -1.210435     -0.754743      1.965179
    3 Atom       -0.185477      0.059918      0.125559
    4 Atom       -0.425869      0.163540      0.262329
    5 Atom       -0.019459      0.000625      0.018835
    6 Atom       -0.023569      0.002302      0.021267
    7 Atom       -0.028653     -0.008643      0.037296
    8 Atom       -0.032799     -0.000060      0.032859
    9 Atom       -0.051811      0.007688      0.044123
   10 Atom       -0.037340     -0.004092      0.041432
   11 Atom       -0.043043      0.013845      0.029198
   12 Atom       -0.267374      0.129651      0.137723
   13 Atom       -0.280645      0.137761      0.142884
   14 Atom       -0.284436      0.141623      0.142813
   15 Atom       -0.280218      0.137988      0.142229
   16 Atom       -0.283385      0.139224      0.144161
   17 Atom       -0.297675      0.147015      0.150660
   18 Atom       -0.299361      0.140376      0.158985
   19 Atom       -0.288632      0.143151      0.145480
   20 Atom       -0.289912      0.142790      0.147121
   21 Atom       -0.287068      0.139931      0.147137
   22 Atom       -0.295268      0.141813      0.153454
   23 Atom       -0.290847      0.139999      0.150848
   24 Atom       -0.293124      0.143276      0.149847
   25 Atom       -0.033890     -0.006878      0.040768
   26 Atom       -0.281525      0.138671      0.142855
   27 Atom       -0.287136      0.142601      0.144535
   28 Atom       -0.034869     -0.002774      0.037643
   29 Atom       -0.287265      0.141358      0.145907
   30 Atom       -0.278776      0.135996      0.142780
   31 Atom       -0.036472     -0.004038      0.040510
   32 Atom       -0.271833      0.133787      0.138047
   33 Atom       -0.023607     -0.018065      0.041672
   34 Atom       -0.263850      0.128855      0.134995
   35 Atom       -0.288831      0.139404      0.149427
   36 Atom       -0.040447     -0.003931      0.044379
   37 Atom       -0.280445      0.137359      0.143086
   38 Atom       -0.293289      0.143811      0.149478
   39 Atom       -0.310144      0.131159      0.178985
   40 Atom       -0.272793      0.130273      0.142520
   41 Atom       -0.037521      0.012902      0.024618
   42 Atom       -0.267477      0.132874      0.134603
   43 Atom       -0.012756     -0.006323      0.019080
   44 Atom       -0.275605      0.136674      0.138931
   45 Atom       -1.682490     -0.170669      1.853159
   46 Atom       -0.458610      0.200772      0.257838
 -----------------------------------------------------
 Unable to Open any file for archive entry.
 1\1\GINC-MIKE066\SP\RwB97XD\6-31G(d)\C18H26O2\ARKANIL\24-May-2026\0\\#
  wb97xd/6-31g(d) prop=efg\\19NT_md_min_distance_cutoff8_nowat\\0,1\C,0
 ,2.171614,-1.912416,-0.264612\O,0,2.90602,-2.39131,-1.16348\C,0,2.1876
 55,-0.532496,0.071755\C,0,1.384323,-0.033789,1.054231\C,0,-1.908104,1.
 989297,3.102981\C,0,-3.033292,1.134999,3.723546\C,0,-3.400479,0.018717
 ,2.744869\C,0,-2.16888,-0.843481,2.427056\C,0,-1.79093,3.172057,4.0639
 21\C,0,-3.26669,3.458797,4.424414\C,0,-2.662306,0.533287,5.091784\H,0,
 -2.316533,2.380964,2.154947\H,0,-3.780247,0.465504,1.814415\H,0,-4.200
 481,-0.612289,3.151409\H,0,-1.862047,-1.402102,3.323427\H,0,-2.452447,
 -1.595898,1.680538\H,0,-1.284207,4.036231,3.632815\H,0,2.948394,0.0847
 55,-0.401551\H,0,-1.209059,2.886778,4.946445\H,0,-3.60459,4.378418,3.9
 36127\H,0,-3.412685,3.584745,5.503724\H,0,-2.567028,1.299028,5.866012\
 H,0,-3.450512,-0.156043,5.412196\H,0,-1.714995,-0.014028,5.055509\C,0,
 1.295863,-2.84887,0.519998\H,0,1.875075,-3.163676,1.400643\H,0,1.08886
 3,-3.733893,-0.089852\C,0,0.014387,-2.158346,0.952715\H,0,-0.573225,-2
 .834968,1.581246\H,0,-0.594757,-1.935746,0.064514\C,0,0.298728,-0.8606
 ,1.707302\H,0,0.71198,-1.104579,2.701323\C,0,1.60294,1.332316,1.587861
 \H,0,2.214636,1.175178,2.501276\H,0,2.230421,1.917461,0.90936\C,0,0.32
 9935,2.094179,1.952302\H,0,-0.174212,2.441046,1.039603\H,0,0.603888,2.
 988273,2.516135\C,0,-4.087497,2.236868,3.916497\H,0,-4.518733,2.472364
 ,2.932573\C,0,-0.9826,-0.016853,1.899277\H,0,-1.282284,0.35286,0.90262
 8\C,0,-0.645478,1.22538,2.746528\H,0,-0.143817,0.898714,3.670418\O,0,-
 5.130277,1.814156,4.786555\H,0,-5.627808,2.596255,5.051984\\Version=ES
 64L-G16RevC.01\State=1-A\HF=-851.7891961\RMSD=4.762e-09\Dipole=-1.0635
 094,1.4725288,1.3223506\Quadrupole=-3.3615441,8.3235984,-4.9620543,4.5
 967591,12.8616187,-6.1674587\PG=C01 [X(C18H26O2)]\\@
 The archive entry for this job was punched.


 READER, WHETHER YOU BE DILETTANTE OR PROFESSOR ... SHOW YOURSELF TO BE
 MORE HUMAN THAN CRITICAL, AND THEN YOUR PLEASURE WILL INCREASE.
                                           -- DOMENICO SCARLATTI (1738)
 Job cpu time:       0 days  0 hours 16 minutes 57.5 seconds.
 Elapsed time:       0 days  0 hours  0 minutes 16.2 seconds.
 File lengths (MBytes):  RWF=     71 Int=      0 D2E=      0 Chk=      8 Scr=      1
 Normal termination of Gaussian 16 at Sun May 24 21:36:30 2026.
