 Entering Gaussian System, Link 0=g16
 Initial command:
 /cm/shared/apps/spack/cpu/opt/spack/linux-centos8-zen/gcc-8.3.1/gaussian-16.C.01-po5bqktfeugvmjyga3v7eigbecnokxng/g16/l1.exe "/scratch/hklem/job_32090254/Gau-205413.inp" -scrdir="/scratch/hklem/job_32090254/"
 Entering Link 1 = /cm/shared/apps/spack/cpu/opt/spack/linux-centos8-zen/gcc-8.3.1/gaussian-16.C.01-po5bqktfeugvmjyga3v7eigbecnokxng/g16/l1.exe PID=    205414.
  
 Copyright (c) 1988-2019, Gaussian, Inc.  All Rights Reserved.
  
 This is part of the Gaussian(R) 16 program.  It is based on
 the Gaussian(R) 09 system (copyright 2009, Gaussian, Inc.),
 the Gaussian(R) 03 system (copyright 2003, Gaussian, Inc.),
 the Gaussian(R) 98 system (copyright 1998, Gaussian, Inc.),
 the Gaussian(R) 94 system (copyright 1995, Gaussian, Inc.),
 the Gaussian 92(TM) system (copyright 1992, Gaussian, Inc.),
 the Gaussian 90(TM) system (copyright 1990, Gaussian, Inc.),
 the Gaussian 88(TM) system (copyright 1988, Gaussian, Inc.),
 the Gaussian 86(TM) system (copyright 1986, Carnegie Mellon
 University), and the Gaussian 82(TM) system (copyright 1983,
 Carnegie Mellon University). Gaussian is a federally registered
 trademark of Gaussian, Inc.
  
 This software contains proprietary and confidential information,
 including trade secrets, belonging to Gaussian, Inc.
  
 This software is provided under written license and may be
 used, copied, transmitted, or stored only in accord with that
 written license.
  
 The following legend is applicable only to US Government
 contracts under FAR:
  
                    RESTRICTED RIGHTS LEGEND
  
 Use, reproduction and disclosure by the US Government is
 subject to restrictions as set forth in subparagraphs (a)
 and (c) of the Commercial Computer Software - Restricted
 Rights clause in FAR 52.227-19.
  
 Gaussian, Inc.
 340 Quinnipiac St., Bldg. 40, Wallingford CT 06492
  
  
 ---------------------------------------------------------------
 Warning -- This program may not be used in any manner that
 competes with the business of Gaussian, Inc. or will provide
 assistance to any competitor of Gaussian, Inc.  The licensee
 of this program is prohibited from giving any competitor of
 Gaussian, Inc. access to this program.  By using this program,
 the user acknowledges that Gaussian, Inc. is engaged in the
 business of creating and licensing software in the field of
 computational chemistry and represents and warrants to the
 licensee that it is not a competitor of Gaussian, Inc. and that
 it will not use this program in any manner prohibited above.
 ---------------------------------------------------------------
  

 Cite this work as:
 Gaussian 16, Revision C.01,
 M. J. Frisch, G. W. Trucks, H. B. Schlegel, G. E. Scuseria, 
 M. A. Robb, J. R. Cheeseman, G. Scalmani, V. Barone, 
 G. A. Petersson, H. Nakatsuji, X. Li, M. Caricato, A. V. Marenich, 
 J. Bloino, B. G. Janesko, R. Gomperts, B. Mennucci, H. P. Hratchian, 
 J. V. Ortiz, A. F. Izmaylov, J. L. Sonnenberg, D. Williams-Young, 
 F. Ding, F. Lipparini, F. Egidi, J. Goings, B. Peng, A. Petrone, 
 T. Henderson, D. Ranasinghe, V. G. Zakrzewski, J. Gao, N. Rega, 
 G. Zheng, W. Liang, M. Hada, M. Ehara, K. Toyota, R. Fukuda, 
 J. Hasegawa, M. Ishida, T. Nakajima, Y. Honda, O. Kitao, H. Nakai, 
 T. Vreven, K. Throssell, J. A. Montgomery, Jr., J. E. Peralta, 
 F. Ogliaro, M. J. Bearpark, J. J. Heyd, E. N. Brothers, K. N. Kudin, 
 V. N. Staroverov, T. A. Keith, R. Kobayashi, J. Normand, 
 K. Raghavachari, A. P. Rendell, J. C. Burant, S. S. Iyengar, 
 J. Tomasi, M. Cossi, J. M. Millam, M. Klene, C. Adamo, R. Cammi, 
 J. W. Ochterski, R. L. Martin, K. Morokuma, O. Farkas, 
 J. B. Foresman, and D. J. Fox, Gaussian, Inc., Wallingford CT, 2019.
 
 ******************************************
 Gaussian 16:  ES64L-G16RevC.01  3-Jul-2019
                11-Jul-2024 
 ******************************************
 %nprocshared=32
 Will use up to   32 processors via shared memory.
 %mem=64GB
 --------------------------
 # wb97xd/6-31G(d) prop=efg
 --------------------------
 1/38=1,172=1/1;
 2/12=2,17=6,18=5,40=1/2;
 3/5=1,6=6,7=1,11=2,25=1,30=1,74=-58/1,2,3;
 4//1;
 5/5=2,38=5/2;
 6/7=2,8=2,9=2,10=2,14=1,28=1/1,2;
 99/5=1,9=1/99;
 ---------------------------------------------
 19nt_mm_min_distance_cutoff5_nowat_xtb_conf_1
 ---------------------------------------------
 Symbolic Z-matrix:
 Charge = -1 Multiplicity = 1
 H                     46.9812   33.7592   30.9406 
 C                     46.354    34.588    30.601 
 H                     45.8964   34.3178   29.6503 
 C                     45.2668   34.8786   31.6411 
 H                     44.6881   33.963    31.7971 
 H                     45.7248   35.1523   32.5945 
 C                     44.3537   35.9825   31.185 
 C                     43.513    35.8029   30.0936 
 H                     43.5016   34.8543   29.576 
 C                     42.6819   36.8149   29.6601 
 H                     42.0304   36.6658   28.8129 
 C                     42.6741   38.0391   30.3238 
 O                     41.8411   39.0166   29.8835 
 H                     41.8998   39.8041   30.4867 
 C                     43.5123   38.2284   31.4151 
 H                     43.5083   39.178    31.9288 
 C                     44.3405   37.206    31.8348 
 H                     44.9832   37.3587   32.6889 
 C                     47.2565   35.8039   30.3187 
 O                     47.2511   36.3552   29.236 
 N                     48.0784   36.1947   31.323 
 H                     48.0608   35.6982   32.1999 
 C                     49.06     37.273    31.205 
 H                     48.7642   37.8573   30.3326 
 C                     49.1423   38.1501   32.4549 
 H                     49.4641   37.5199   33.2946 
 C                     50.205    39.2261   32.2385 
 H                     50.2532   39.8821   33.1039 
 H                     49.97     39.8279   31.3656 
 H                     51.1833   38.7737   32.087 
 C                     47.7924   38.7624   32.8467 
 H                     47.136    37.9572   33.1831 
 H                     47.9563   39.4213   33.702 
 C                     47.0993   39.541    31.737 
 H                     46.2138   40.0351   32.1298 
 H                     46.7888   38.8802   30.9328 
 H                     47.7521   40.3116   31.3366 
 H                     50.0463   36.8338   31.0061 
 H                     48.0949   38.1651   26.6575 
 C                     48.063    39.251    26.62 
 H                     47.4615   39.5489   25.764 
 C                     47.4571   39.7929   27.9127 
 H                     48.073    39.4431   28.7478 
 C                     47.4588   41.3186   27.9216 
 H                     48.4637   41.707    27.7701 
 H                     46.8228   41.6981   27.1278 
 H                     47.0858   41.6948   28.8721 
 C                     46.0422   39.2505   28.099 
 H                     45.57     39.6969   28.9717 
 H                     46.0711   38.1732   28.2391 
 H                     45.4304   39.4713   27.2259 
 H                     49.0759   39.6251   26.4801 
 H                     36.2693   46.0993   32.6087 
 C                     37.164    46.712    32.465 
 H                     37.7711   46.6681   33.3669 
 C                     37.9707   46.1616   31.2833 
 H                     37.5982   46.5689   30.3423 
 H                     37.8753   45.0723   31.2356 
 C                     39.4949   46.4461   31.3781 
 O                     39.9639   46.6289   32.5264 
 O                     40.1381   46.4171   30.3232 
 C                     36.6831   48.1142   32.1447 
 O                     35.9329   48.3336   31.2039 
 N                     37.0911   49.1284   32.9336 
 C                     36.6898   50.4916   32.621 
 H                     37.1775   50.811    31.6929 
 H                     35.6091   50.5339   32.4624 
 C                     37.1657   51.3137   33.814 
 H                     37.4005   52.3403   33.5395 
 H                     36.4017   51.3255   34.5936 
 C                     38.3884   50.532    34.2889 
 H                     38.6626   50.7485   35.3198 
 H                     39.2451   50.7475   33.6495 
 C                     37.95     49.082    34.098 
 H                     38.8022   48.4205   33.9337 
 H                     37.3857   48.7265   34.9715 
 H                     39.6899   42.6299   23.3082 
 C                     40.763    42.802    23.272 
 H                     41.0468   43.3605   24.1617 
 C                     41.5124   41.4701   23.2222 
 H                     41.2383   40.9381   22.3081 
 H                     42.587    41.6639   23.1945 
 C                     41.178    40.6267   24.4215 
 C                     40.0904   39.7629   24.4009 
 H                     39.4988   39.6723   23.5001 
 C                     39.7507   39.017    25.5109 
 H                     38.9033   38.3493   25.4956 
 C                     40.5046   39.1147   26.6789 
 O                     40.1414   38.3722   27.7469 
 H                     40.7268   38.5718   28.5046 
 C                     41.6032   39.9686   26.7018 
 H                     42.2088   40.0297   27.5943 
 C                     41.9224   40.7212   25.5886 
 H                     42.7683   41.3916   25.6287 
 H                     40.9878   43.4014   22.3895 
 H                     40.0268   47.819    20.5913 
 C                     40.928    47.267    20.313 
 H                     40.7021   46.2005   20.3523 
 C                     41.3835   47.6894   18.9199 
 H                     42.1685   47.0145   18.5724 
 H                     41.8183   48.6877   19. 
 C                     40.2295   47.6847   17.9157 
 H                     39.8109   46.6808   17.8345 
 H                     39.4443   48.368    18.2461 
 C                     40.7153   48.1059   16.5397 
 O                     40.8192   47.3504   15.6006 
 N                     41.0212   49.4216   16.4475 
 H                     41.0029   50.028    17.2475 
 H                     41.4158   49.7694   15.5898 
 C                     42.0057   47.6384   21.3556 
 O                     42.6832   48.6351   21.2348 
 N                     42.155    46.796    22.4183 
 H                     41.5188   46.0213   22.5267 
 C                     43.019    47.115    23.555 
 H                     42.5804   46.7195   24.4724 
 H                     43.0922   48.2032   23.6335 
 C                     44.4665   46.5915   23.4548 
 O                     45.3376   47.0951   24.1378 
 N                     44.6864   45.5563   22.6263 
 H                     43.9203   45.203    22.074 
 C                     45.983    44.912    22.455 
 H                     46.6844   45.4506   23.0914 
 C                     45.938    43.4309   22.8185 
 H                     45.2993   42.9046   22.1031 
 H                     46.9491   43.0324   22.7132 
 C                     45.4314   43.1441   24.2373 
 H                     44.3865   43.4695   24.3077 
 C                     45.4956   41.6385   24.4868 
 H                     45.1087   41.3927   25.4723 
 H                     44.9144   41.0902   23.7475 
 H                     46.527    41.2962   24.4299 
 C                     46.2393   43.8928   25.2931 
 H                     47.2929   43.6314   25.2238 
 H                     46.1364   44.9675   25.1797 
 H                     45.8872   43.6321   26.2881 
 H                     46.2991   45.026    21.4124 
 H                     51.5926   46.0455   23.7023 
 C                     51.26     46.169    24.731 
 H                     51.6291   47.1238   25.0993 
 C                     49.7335   46.1234   24.8137 
 H                     49.3972   45.1487   24.44 
 C                     49.267    46.2715   26.259 
 H                     49.6738   45.4764   26.8802 
 H                     49.5908   47.2271   26.6651 
 H                     48.1818   46.2272   26.3109 
 C                     49.1112   47.2144   23.9452 
 H                     49.4726   48.1932   24.2535 
 H                     49.3698   47.0703   22.8978 
 H                     48.0275   47.2127   24.0399 
 H                     51.6998   45.376    25.3322 
 H                     53.0402   42.2786   29.6202 
 C                     52.152    42.334    30.246 
 H                     52.1341   43.3107   30.7248 
 C                     50.8957   42.1201   29.4162 
 H                     50.0084   42.174    30.0433 
 H                     50.9143   41.1437   28.9367 
 H                     50.8157   42.8806   28.6417 
 H                     52.2293   41.5753   31.0219 
 H                     45.4672   38.1282   40.432 
 C                     46.435    38.561    40.187 
 H                     47.1716   38.1767   40.8885 
 C                     46.8298   38.2139   38.7568 
 H                     46.9064   37.1305   38.6438 
 H                     47.8088   38.64     38.5275 
 C                     45.812    38.7467   37.7634 
 H                     45.7399   39.8344   37.8292 
 H                     44.8274   38.3097   37.9425 
 S                     46.3007   38.3339   36.0512 
 C                     44.9329   39.1545   35.1939 
 H                     44.0125   38.5984   35.3538 
 H                     44.8381   40.1711   35.5602 
 H                     45.1782   39.1751   34.1394 
 H                     46.3689   39.6396   40.3134 
 H                     49.3323   43.1452   37.6048 
 C                     50.213    42.685    37.162 
 H                     50.869    42.3467   37.9614 
 C                     49.805    41.5117   36.2667 
 H                     50.7044   41.0587   35.8412 
 H                     49.2983   40.755    36.8696 
 C                     48.8935   41.9668   35.1602 
 C                     49.4161   42.5137   33.9953 
 H                     50.4887   42.5919   33.8762 
 C                     48.5791   42.9587   32.9879 
 H                     49.0026   43.3865   32.0909 
 C                     47.2058   42.8598   33.1302 
 H                     46.5516   43.2058   32.3432 
 C                     46.672    42.3158   34.2859 
 H                     45.6014   42.2364   34.4015 
 C                     47.514    41.8779   35.2932 
 H                     47.099    41.4578   36.1982 
 H                     50.7345   43.4412   36.5794 
 H                     50.2875   46.3893   32.2915 
 C                     50.84     46.417    31.354 
 H                     51.2949   45.4411   31.1965 
 C                     49.9058   46.7683   30.1984 
 H                     50.4905   46.779    29.2712 
 C                     48.7978   45.7272   30.0616 
 H                     48.2095   45.679    30.9763 
 H                     49.2155   44.7421   29.8656 
 H                     48.1339   45.9832   29.2384 
 C                     49.3053   48.1539   30.4092 
 H                     48.708    48.1674   31.3192 
 H                     48.6603   48.42     29.5743 
 H                     50.0909   48.9011   30.496 
 H                     51.6332   47.1561   31.4419 
 H                     53.026    50.9218   26.9796 
 C                     52.401    50.618    26.143 
 H                     52.971    49.9419   25.5097 
 C                     51.1398   49.9339   26.6565 
 H                     51.414    49.0348   27.2129 
 H                     50.5131   49.6361   25.8117 
 C                     50.314    50.8368   27.5576 
 H                     50.1089   51.7922   27.0718 
 H                     49.37     50.3599   27.8234 
 S                     51.1946   51.1935   29.1222 
 C                     49.8647   52.0759   29.9804 
 H                     49.5716   52.9466   29.4005 
 H                     49.0171   51.4111   30.1234 
 H                     50.2612   52.3862   30.9412 
 H                     52.1455   51.5022   25.5626 
 H                     50.3369   51.2422   33.3992 
 C                     49.755    50.767    34.187 
 H                     49.7705   51.4206   35.0558 
 C                     48.3322   50.5048   33.7107 
 H                     48.3759   49.9461   32.7732 
 H                     47.8318   51.4528   33.4996 
 C                     47.4904   49.7118   34.7149 
 H                     48.0482   48.8091   34.9929 
 C                     47.2157   50.5176   35.9818 
 H                     48.1402   50.8104   36.4738 
 H                     46.6514   51.4165   35.7407 
 H                     46.6352   49.9236   36.6835 
 C                     46.1743   49.2892   34.0678 
 H                     46.3581   48.6402   33.2143 
 H                     45.6169   50.1588   33.7254 
 H                     45.5519   48.75     34.7747 
 H                     50.2445   49.8317   34.4507 
 H                     47.102    46.9692   36.8281 
 C                     46.253    46.438    37.253 
 H                     45.4199   47.133    37.3337 
 C                     45.8657   45.2506   36.3732 
 H                     46.7174   44.5617   36.3184 
 C                     44.6743   44.5036   36.9672 
 H                     44.3865   43.6758   36.3233 
 H                     44.9162   44.1104   37.9536 
 H                     43.8219   45.1735   37.0667 
 C                     45.5391   45.72     34.9596 
 H                     45.2702   44.8722   34.3355 
 H                     46.3982   46.2146   34.5125 
 H                     44.7068   46.4211   34.9738 
 H                     46.5199   46.1071   38.2553 
 H                     43.2454   40.64     37.6048 
 C                     42.317    41.201    37.522 
 H                     42.5643   42.2556   37.434 
 C                     41.5222   40.7528   36.3077 
 H                     41.3154   39.6813   36.336 
 H                     40.5585   41.2691   36.2694 
 C                     42.2139   41.0638   34.9988 
 O                     43.1697   41.7932   34.8766 
 O                     41.6346   40.4337   33.9965 
 H                     41.9647   40.724    33.0953 
 H                     41.7385   41.0499   38.4303 
 H                     35.4923   38.6722   34.8022 
 C                     36.5      39.053    34.953 
 H                     37.0622   38.3269   35.5366 
 C                     37.1877   39.3075   33.6176 
 H                     37.29     38.3688   33.0664 
 H                     36.5771   39.9836   33.0145 
 C                     38.5698   39.9108   33.8137 
 H                     39.1398   39.3372   34.5428 
 H                     39.1343   39.9477   32.8841 
 S                     38.5006   41.6191   34.4569 
 C                     38.5706   42.5427   32.9005 
 H                     37.6902   42.3226   32.3023 
 H                     39.4766   42.27     32.3662 
 H                     38.5999   43.597    33.1542 
 H                     36.4429   39.9794   35.5203 
 H                     38.9779   44.294    35.7007 
 C                     39.963    44.652    35.992 
 H                     40.287    44.073    36.8561 
 C                     40.9444   44.5078   34.8427 
 H                     41.9478   44.7891   35.1553 
 H                     40.6479   45.1381   34.0084 
 H                     40.974    43.4756   34.5061 
 H                     39.8719   45.6946   36.2924 
 H                     41.7385   49.3712   37.9282 
 C                     42.518    50.112    37.763 
 H                     43.0426   50.281    38.7023 
 C                     43.4841   49.6323   36.6809 
 H                     44.2672   50.3788   36.5422 
 H                     43.9532   48.7036   37.018 
 C                     42.789    49.3961   35.3793 
 C                     42.0861   48.2788   35.0157 
 H                     41.9207   47.3758   35.5723 
 N                     41.5675   48.4194   33.7668 
 H                     40.9901   47.7287   33.2708 
 C                     41.9253   49.6358   33.2847 
 C                     41.648    50.2262   32.0567 
 H                     41.0646   49.6998   31.3159 
 C                     42.1443   51.4905   31.8299 
 H                     41.9496   51.9832   30.8873 
 C                     42.8992   52.1587   32.8008 
 H                     43.2649   53.1527   32.5838 
 C                     43.1815   51.5791   34.0167 
 H                     43.7652   52.1094   34.7571 
 C                     42.6968   50.2968   34.2779 
 H                     42.0439   51.0427   37.4574 
 H                     49.5456   54.9435   36.1731 
 C                     49.23     55.22     35.169 
 H                     50.0175   54.9307   34.4781 
 C                     47.9145   54.5329   34.8226 
 H                     47.187    54.7537   35.6081 
 H                     48.0662   53.4525   34.8079 
 C                     47.3261   54.9741   33.4782 
 H                     47.2396   56.0678   33.4822 
 C                     48.2145   54.5613   32.3071 
 H                     48.3583   53.4833   32.3062 
 H                     47.7494   54.842    31.3645 
 H                     49.1878   55.0423   32.3599 
 C                     45.9309   54.3788   33.2999 
 H                     45.9779   53.2921   33.2841 
 H                     45.2733   54.6812   34.1122 
 H                     45.4915   54.7114   32.362 
 H                     49.1184   56.3021   35.132 
 C                     42.169    42.2895   31.0459 
 O                     42.0898   41.1283   31.5006 
 C                     42.6459   43.3921   31.7986 
 C                     42.8087   44.6281   31.256 
 C                     42.7115   44.881    29.7915 
 C                     42.6369   43.5783   28.9924 
 C                     41.6774   42.6054   29.6624 
 C                     42.9819   45.8199   32.107 
 C                     44.02     46.819    31.6041 
 C                     43.8391   47.108    30.1163 
 C                     43.8821   45.7799   29.3405 
 C                     44.9542   48.0112   29.6003 
 C                     44.8783   48.2647   28.0883 
 C                     44.9975   46.9243   27.374 
 C                     43.8709   45.9946   27.8234 
 C                     45.1116   49.4188   30.1767 
 C                     46.0104   50.1313   29.1462 
 C                     46.0898   49.2041   27.9146 
 C                     43.6122   49.0015   27.643 
 O                     46.1074   49.9614   26.7293 
 H                     42.8283   43.2351   32.8531 
 H                     41.7714   45.4479   29.6623 
 H                     43.6315   43.1233   28.9344 
 H                     42.2882   43.7731   27.9783 
 H                     40.6983   43.0859   29.7611 
 H                     41.5507   41.693    29.0774 
 H                     43.1868   45.5398   33.1393 
 H                     41.9883   46.2993   32.0858 
 H                     45.0208   46.4097   31.7748 
 H                     43.9358   47.7432   32.1765 
 H                     42.8632   47.5766   29.9725 
 H                     44.8215   45.269    29.5962 
 H                     45.8992   47.4799   29.7812 
 H                     45.9573   46.4632   27.628 
 H                     44.9693   47.0548   26.2911 
 H                     42.9051   46.4038   27.5264 
 H                     43.9984   45.0365   27.317 
 H                     45.5682   49.4108   31.164 
 H                     44.1414   49.9053   30.267 
 H                     47.0044   50.3194   29.5512 
 H                     45.5977   51.0892   28.8335 
 H                     47.0111   48.5951   27.961 
 H                     42.7174   48.5419   28.0487 
 H                     43.6379   50.0385   27.9613 
 H                     43.5463   48.9875   26.5561 
 H                     45.9897   49.3541   25.9888 
 
 Stoichiometry    C123H225N6O13S3(1-)
 Framework group  C1[X(C123H225N6O13S3)]
 Deg. of freedom  1104
 Full point group                 C1      NOp   1
 Largest Abelian subgroup         C1      NOp   1
 Largest concise Abelian subgroup C1      NOp   1
                         Standard orientation:                         
 ---------------------------------------------------------------------
 Center     Atomic      Atomic             Coordinates (Angstroms)
 Number     Number       Type             X           Y           Z
 ---------------------------------------------------------------------
      1          1           0        8.010719   -7.032204   -3.784915
      2          6           0        7.198419   -6.781229   -3.097312
      3          1           0        6.713959   -7.701074   -2.772628
      4          6           0        7.756186   -6.027641   -1.885181
      5          1           0        8.516175   -6.656069   -1.410790
      6          1           0        8.240127   -5.103398   -2.209563
      7          6           0        6.672747   -5.708173   -0.892974
      8          6           0        6.030190   -6.721589   -0.192763
      9          1           0        6.322636   -7.750121   -0.349225
     10          6           0        5.025860   -6.438408    0.709413
     11          1           0        4.533823   -7.231730    1.250682
     12          6           0        4.645730   -5.117548    0.933139
     13          8           0        3.660661   -4.863691    1.832281
     14          1           0        3.541263   -3.882106    1.930705
     15          6           0        5.281478   -4.097755    0.236579
     16          1           0        4.985778   -3.073633    0.407986
     17          6           0        6.283244   -4.398267   -0.665375
     18          1           0        6.777837   -3.599017   -1.196830
     19          6           0        6.133365   -5.977622   -3.867043
     20          8           0        4.973746   -6.338635   -3.901021
     21          7           0        6.566371   -4.878503   -4.531352
     22          1           0        7.540823   -4.624804   -4.488276
     23          6           0        5.713770   -4.045852   -5.379855
     24          1           0        4.685996   -4.283731   -5.102221
     25          6           0        5.994110   -2.550119   -5.229790
     26          1           0        7.030152   -2.363134   -5.541971
     27          6           0        5.071476   -1.774416   -6.168389
     28          1           0        5.231682   -0.705840   -6.049830
     29          1           0        4.030193   -1.990761   -5.948694
     30          1           0        5.264141   -2.044583   -7.205008
     31          6           0        5.867355   -2.059352   -3.782817
     32          1           0        6.680485   -2.497374   -3.200299
     33          1           0        6.016542   -0.977557   -3.779152
     34          6           0        4.540155   -2.386735   -3.112444
     35          1           0        4.489584   -1.905714   -2.138484
     36          1           0        4.431094   -3.457537   -2.966525
     37          1           0        3.705458   -2.017934   -3.701986
     38          1           0        5.863180   -4.338240   -6.427439
     39          1           0        1.851858   -6.713595   -4.766827
     40          6           0        1.067022   -5.978988   -4.605619
     41          1           0        0.255700   -6.455417   -4.059676
     42          6           0        1.622630   -4.797986   -3.812917
     43          1           0        2.455031   -4.370341   -4.381523
     44          6           0        0.563281   -3.715959   -3.626268
     45          1           0        0.168246   -3.389193   -4.585853
     46          1           0       -0.260011   -4.097256   -3.030081
     47          1           0        0.986243   -2.851893   -3.117741
     48          6           0        2.156392   -5.273604   -2.463942
     49          1           0        2.476173   -4.429427   -1.856524
     50          1           0        3.008672   -5.931658   -2.610987
     51          1           0        1.386846   -5.817831   -1.918991
     52          1           0        0.690154   -5.653026   -5.573714
     53          1           0        0.748298    1.139833    8.473979
     54          6           0        0.203856    1.612826    7.651544
     55          1           0        0.870515    2.300947    7.135815
     56          6           0       -0.269466    0.534119    6.670484
     57          1           0       -1.221515    0.111972    6.995330
     58          1           0        0.458732   -0.281792    6.626142
     59          6           0       -0.423642    1.039493    5.209683
     60          8           0        0.263066    2.036177    4.882540
     61          8           0       -1.167942    0.390405    4.466673
     62          6           0       -0.997386    2.304354    8.267034
     63          8           0       -1.812276    1.690593    8.941788
     64          7           0       -1.147608    3.629022    8.066741
     65          6           0       -2.317316    4.310875    8.599597
     66          1           0       -3.211876    3.970697    8.065483
     67          1           0       -2.443827    4.061377    9.656291
     68          6           0       -2.045279    5.790259    8.348605
     69          1           0       -2.962330    6.361004    8.215732
     70          1           0       -1.484085    6.217855    9.181571
     71          6           0       -1.178173    5.759536    7.092116
     72          1           0       -0.596023    6.668205    6.949869
     73          1           0       -1.799244    5.603701    6.209397
     74          6           0       -0.295242    4.536456    7.328009
     75          1           0        0.036246    4.090230    6.388956
     76          1           0        0.586640    4.801397    7.927932
     77          1           0       -3.534671   -7.201667    3.750412
     78          6           0       -3.697171   -6.936942    2.708305
     79          1           0       -3.455075   -5.883317    2.584636
     80          6           0       -2.813923   -7.792738    1.799721
     81          1           0       -3.092135   -8.843034    1.914654
     82          1           0       -2.985522   -7.506600    0.759639
     83          6           0       -1.361663   -7.610344    2.144888
     84          6           0       -0.756432   -8.404272    3.110715
     85          1           0       -1.328593   -9.184021    3.594721
     86          6           0        0.563916   -8.215735    3.464265
     87          1           0        1.032296   -8.830047    4.217515
     88          6           0        1.319809   -7.220703    2.847279
     89          8           0        2.608092   -7.062506    3.220301
     90          1           0        3.001831   -6.305858    2.741661
     91          6           0        0.722970   -6.430437    1.869601
     92          1           0        1.309585   -5.675028    1.367325
     93          6           0       -0.604034   -6.619681    1.536801
     94          1           0       -1.056534   -5.986549    0.787816
     95          1           0       -4.750669   -7.089449    2.472710
     96          1           0       -9.108184   -5.369606    3.786651
     97          6           0       -8.935490   -5.809790    2.801394
     98          1           0       -8.158980   -6.569939    2.897322
     99          6           0      -10.234189   -6.404015    2.265757
    100          1           0      -10.023386   -6.996942    1.373305
    101          1           0      -10.880828   -5.576577    1.966969
    102          6           0      -10.931740   -7.282994    3.305457
    103          1           0      -10.282224   -8.112598    3.587452
    104          1           0      -11.160642   -6.696004    4.197448
    105          6           0      -12.217829   -7.861483    2.741443
    106          8           0      -12.363587   -9.027305    2.453176
    107          7           0      -13.207474   -6.949680    2.591903
    108          1           0      -13.058397   -5.971743    2.763571
    109          1           0      -14.070081   -7.235759    2.160173
    110          6           0       -8.465439   -4.657708    1.885888
    111          8           0       -9.258401   -3.932252    1.327378
    112          7           0       -7.118996   -4.493164    1.740025
    113          1           0       -6.490601   -5.064206    2.283802
    114          6           0       -6.541755   -3.346484    1.038412
    115          1           0       -5.602445   -3.059650    1.513633
    116          1           0       -7.246810   -2.513530    1.107586
    117          6           0       -6.269890   -3.557650   -0.465200
    118          8           0       -6.146301   -2.593506   -1.196001
    119          7           0       -6.142922   -4.825956   -0.891445
    120          1           0       -6.279589   -5.577263   -0.232942
    121          6           0       -5.835244   -5.195145   -2.267916
    122          1           0       -5.766850   -4.265192   -2.831447
    123          6           0       -4.539951   -5.994963   -2.369509
    124          1           0       -4.674414   -6.961042   -1.874193
    125          1           0       -4.352381   -6.190029   -3.427328
    126          6           0       -3.316800   -5.295386   -1.764212
    127          1           0       -3.477762   -5.181298   -0.685447
    128          6           0       -2.087623   -6.174183   -1.987920
    129          1           0       -1.204945   -5.726596   -1.538626
    130          1           0       -2.224698   -7.163276   -1.554450
    131          1           0       -1.904991   -6.292967   -3.054095
    132          6           0       -3.096725   -3.910530   -2.365632
    133          1           0       -2.979812   -3.977372   -3.445016
    134          1           0       -3.926956   -3.247458   -2.143193
    135          1           0       -2.197374   -3.461415   -1.951595
    136          1           0       -6.665632   -5.786254   -2.669133
    137          1           0       -5.820278   -2.652889   -7.544743
    138          6           0       -5.165474   -1.906548   -7.099426
    139          1           0       -5.574531   -0.920762   -7.310188
    140          6           0       -5.051140   -2.121096   -5.589454
    141          1           0       -4.632548   -3.119499   -5.414061
    142          6           0       -4.113417   -1.090297   -4.967702
    143          1           0       -3.119818   -1.157344   -5.405682
    144          1           0       -4.495297   -0.084913   -5.129895
    145          1           0       -4.028767   -1.255965   -3.896393
    146          6           0       -6.425063   -2.050307   -4.926766
    147          1           0       -6.893694   -1.090307   -5.132907
    148          1           0       -7.077726   -2.835719   -5.303388
    149          1           0       -6.339571   -2.156105   -3.847473
    150          1           0       -4.188156   -1.980768   -7.571713
    151          1           0        1.022750   -0.988313   -8.851945
    152          6           0        1.445350   -0.655846   -7.906181
    153          1           0        1.105965    0.361062   -7.721170
    154          6           0        1.020263   -1.577746   -6.773922
    155          1           0        1.444827   -1.245296   -5.829102
    156          1           0        1.358927   -2.594816   -6.959657
    157          1           0       -0.063839   -1.589823   -6.678060
    158          1           0        2.529237   -0.641955   -7.999017
    159          1           0       11.772784    2.374798   -0.814692
    160          6           0       11.280408    2.662374   -1.741430
    161          1           0       12.039480    2.992240   -2.446673
    162          6           0       10.493583    1.490471   -2.315335
    163          1           0       11.168315    0.660552   -2.535256
    164          1           0       10.016949    1.785940   -3.252404
    165          6           0        9.426240    1.019272   -1.343026
    166          1           0        8.714667    1.820284   -1.131687
    167          1           0        9.874657    0.680520   -0.406729
    168         16           0        8.482114   -0.379250   -2.045608
    169          6           0        7.316463   -0.608357   -0.678863
    170          1           0        7.833353   -1.034276    0.177506
    171          1           0        6.869893    0.346801   -0.424134
    172          1           0        6.543881   -1.284655   -1.022819
    173          1           0       10.618456    3.499824   -1.531143
    174          1           0        6.186680    4.563027   -4.294554
    175          6           0        6.177872    4.070571   -5.264553
    176          1           0        6.976087    4.487926   -5.874874
    177          6           0        6.363100    2.560149   -5.094327
    178          1           0        6.361355    2.087669   -6.080196
    179          1           0        7.330736    2.364135   -4.627328
    180          6           0        5.267488    1.972635   -4.247715
    181          6           0        4.044068    1.634542   -4.811754
    182          1           0        3.887853    1.775654   -5.873100
    183          6           0        3.025274    1.120141   -4.030154
    184          1           0        2.078229    0.867817   -4.484479
    185          6           0        3.217139    0.933284   -2.672120
    186          1           0        2.422390    0.530216   -2.061405
    187          6           0        4.432122    1.265300   -2.097574
    188          1           0        4.586641    1.121235   -1.038697
    189          6           0        5.445809    1.785422   -2.883250
    190          1           0        6.393070    2.050042   -2.435581
    191          1           0        5.224883    4.282596   -5.744220
    192          1           0        0.104689    3.325182   -5.364542
    193          6           0       -0.593836    2.783028   -5.999414
    194          1           0       -0.031808    2.057496   -6.584093
    195          6           0       -1.651726    2.084813   -5.147994
    196          1           0       -2.331499    1.542852   -5.815732
    197          6           0       -1.005476    1.082321   -4.195293
    198          1           0       -0.308398    1.588635   -3.529842
    199          1           0       -0.463999    0.317837   -4.748174
    200          1           0       -1.763112    0.589244   -3.589636
    201          6           0       -2.459569    3.113190   -4.363931
    202          1           0       -1.808813    3.658339   -3.682477
    203          1           0       -3.232919    2.622108   -3.776853
    204          1           0       -2.931381    3.823300   -5.039317
    205          1           0       -1.059318    3.489381   -6.683192
    206          1           0       -6.903476    3.276522   -8.037083
    207          6           0       -7.280277    2.385629   -7.539942
    208          1           0       -7.269828    1.560442   -8.248488
    209          6           0       -6.415789    2.060539   -6.327804
    210          1           0       -5.393883    1.854542   -6.654027
    211          1           0       -6.802621    1.167938   -5.829057
    212          6           0       -6.389151    3.190686   -5.312317
    213          1           0       -7.400926    3.496048   -5.040432
    214          1           0       -5.851454    2.890141   -4.412442
    215         16           0       -5.532354    4.662498   -5.983385
    216          6           0       -5.514390    5.669398   -4.476866
    217          1           0       -6.532983    5.836153   -4.137792
    218          1           0       -4.934776    5.166584   -3.707412
    219          1           0       -5.049780    6.614909   -4.735289
    220          1           0       -8.309231    2.567457   -7.236388
    221          1           0       -2.493275    7.520306   -4.707579
    222          6           0       -1.588829    7.638825   -4.113455
    223          1           0       -1.424015    8.702928   -3.962564
    224          6           0       -1.724724    6.901232   -2.787764
    225          1           0       -2.005881    5.865810   -2.992247
    226          1           0       -2.530285    7.345018   -2.198024
    227          6           0       -0.439503    6.904579   -1.954643
    228          1           0        0.381403    6.548009   -2.588884
    229          6           0       -0.091745    8.305770   -1.459124
    230          1           0        0.041619    8.997582   -2.287439
    231          1           0       -0.883498    8.684162   -0.815283
    232          1           0        0.834060    8.281207   -0.889492
    233          6           0       -0.587189    5.952523   -0.770909
    234          1           0       -0.747314    4.933527   -1.116529
    235          1           0       -1.431056    6.241280   -0.147497
    236          1           0        0.304699    5.963613   -0.152654
    237          1           0       -0.754340    7.238661   -4.685670
    238          1           0        2.994013    6.371659   -1.699134
    239          6           0        3.682016    6.157782   -0.884012
    240          1           0        3.267025    6.572803    0.032030
    241          6           0        3.887866    4.651390   -0.734426
    242          1           0        4.316843    4.261502   -1.665526
    243          6           0        4.852817    4.348588    0.409016
    244          1           0        4.974744    3.274483    0.527850
    245          1           0        5.829493    4.791577    0.219357
    246          1           0        4.469103    4.755887    1.342891
    247          6           0        2.553616    3.953363   -0.494001
    248          1           0        2.703391    2.881819   -0.394331
    249          1           0        1.875141    4.127667   -1.325788
    250          1           0        2.086774    4.326816    0.415425
    251          1           0        4.626170    6.659613   -1.089132
    252          1           0        8.029512    1.841488    1.408390
    253          6           0        7.592598    2.034000    2.385911
    254          1           0        6.789230    2.755436    2.262574
    255          6           0        7.049026    0.753426    2.995645
    256          1           0        7.820867   -0.014858    3.071010
    257          1           0        6.675711    0.939662    4.006933
    258          6           0        5.884773    0.175974    2.221402
    259          8           0        5.273265    0.755699    1.355095
    260          8           0        5.616642   -1.052388    2.616944
    261          1           0        4.764061   -1.419213    2.237542
    262          1           0        8.356822    2.464882    3.028410
    263          1           0        7.517292   -2.701075    8.545624
    264          6           0        7.343805   -2.170149    7.612228
    265          1           0        8.259933   -2.190166    7.025553
    266          6           0        6.200118   -2.806390    6.832374
    267          1           0        6.459873   -3.833334    6.561529
    268          1           0        5.305703   -2.842706    7.458772
    269          6           0        5.897909   -2.028507    5.561078
    270          1           0        6.811496   -1.839156    4.999822
    271          1           0        5.198427   -2.556828    4.916268
    272         16           0        5.165910   -0.390176    5.902886
    273          6           0        3.406180   -0.804511    5.793359
    274          1           0        3.145380   -1.511599    6.576558
    275          1           0        3.200554   -1.224094    4.812367
    276          1           0        2.850822    0.118827    5.919040
    277          1           0        7.103470   -1.133646    7.838519
    278          1           0        4.180102    2.430771    5.883170
    279          6           0        4.123407    3.039250    4.983180
    280          1           0        5.141110    3.279551    4.677530
    281          6           0        3.386869    2.296740    3.882716
    282          1           0        3.398709    2.868750    2.957338
    283          1           0        2.354235    2.117531    4.170460
    284          1           0        3.866580    1.340892    3.693391
    285          1           0        3.611472    3.967740    5.230935
    286          1           0        2.185222    7.984058    4.001128
    287          6           0        1.537680    8.514408    3.306064
    288          1           0        2.083648    9.365540    2.901658
    289          6           0        1.083799    7.579450    2.186132
    290          1           0        0.451180    8.132712    1.490834
    291          1           0        1.966504    7.231503    1.642130
    292          6           0        0.328165    6.403604    2.714829
    293          6           0        0.859188    5.254114    3.235713
    294          1           0        1.890675    4.976507    3.343130
    295          7           0       -0.124630    4.408061    3.641623
    296          1           0        0.011773    3.487447    4.077900
    297          6           0       -1.324662    4.988338    3.390083
    298          6           0       -2.611394    4.511719    3.615041
    299          1           0       -2.764805    3.536682    4.053226
    300          6           0       -3.664344    5.324077    3.257861
    301          1           0       -4.679905    4.988936    3.417466
    302          6           0       -3.447973    6.585143    2.690493
    303          1           0       -4.303114    7.193221    2.430038
    304          6           0       -2.177518    7.061792    2.460728
    305          1           0       -2.027122    8.039348    2.022686
    306          6           0       -1.087561    6.262357    2.807643
    307          1           0        0.676190    8.884767    3.858364
    308          1           0       -3.081925   11.923999   -3.197188
    309          6           0       -3.988625   11.374927   -2.950839
    310          1           0       -4.292886   10.816732   -3.832336
    311          6           0       -3.736431   10.444467   -1.770465
    312          1           0       -3.317559   11.029216   -0.947280
    313          1           0       -2.994614    9.696439   -2.054459
    314          6           0       -4.997476    9.733328   -1.268139
    315          1           0       -5.757235   10.493567   -1.047953
    316          6           0       -5.560575    8.771783   -2.311923
    317          1           0       -4.810439    8.033751   -2.586456
    318          1           0       -6.423925    8.244743   -1.911348
    319          1           0       -5.873639    9.300170   -3.208728
    320          6           0       -4.687919    8.971340    0.018836
    321          1           0       -3.940888    8.201675   -0.162651
    322          1           0       -4.307936    9.643123    0.785670
    323          1           0       -5.584551    8.488173    0.400873
    324          1           0       -4.769232   12.094691   -2.711346
    325          6           0        2.201198   -1.700908    2.025518
    326          8           0        3.338815   -2.217491    2.006016
    327          6           0        1.962278   -0.328141    1.764469
    328          6           0        0.708249    0.193503    1.701916
    329          6           0       -0.514698   -0.656353    1.684180
    330          6           0       -0.175350   -2.139135    1.518791
    331          6           0        0.998223   -2.512232    2.412995
    332          6           0        0.481990    1.649473    1.761445
    333          6           0       -0.591531    2.168949    0.809364
    334          6           0       -1.855085    1.315291    0.876412
    335          6           0       -1.483122   -0.150825    0.594078
    336          6           0       -2.872169    1.770184   -0.164782
    337          6           0       -4.129844    0.891242   -0.208174
    338          6           0       -3.706453   -0.529049   -0.561186
    339          6           0       -2.718332   -1.050492    0.481524
    340          6           0       -3.445384    3.185890   -0.090287
    341          6           0       -4.694064    3.116547   -0.992185
    342          6           0       -4.928786    1.623531   -1.306273
    343          6           0       -4.943748    0.903971    1.088581
    344          8           0       -6.306051    1.340395   -1.347798
    345          1           0        2.823602    0.319128    1.669318
    346          1           0       -0.988751   -0.493609    2.669393
    347          1           0        0.085777   -2.343909    0.475001
    348          1           0       -1.031632   -2.757916    1.786800
    349          1           0        0.748166   -2.258898    3.448636
    350          1           0        1.218922   -3.579956    2.368174
    351          1           0        1.413072    2.198135    1.626756
    352          1           0        0.147141    1.816829    2.799415
    353          1           0       -0.198795    2.155542   -0.212323
    354          1           0       -0.826267    3.203174    1.062650
    355          1           0       -2.270376    1.393017    1.883456
    356          1           0       -0.957668   -0.186707   -0.371056
    357          1           0       -2.386067    1.669064   -1.145348
    358          1           0       -3.217312   -0.527797   -1.540515
    359          1           0       -4.571940   -1.190440   -0.624369
    360          1           0       -3.201894   -1.119015    1.456150
    361          1           0       -2.413359   -2.056173    0.187840
    362          1           0       -2.740403    3.934763   -0.444545
    363          1           0       -3.705778    3.439040    0.936472
    364          1           0       -4.550873    3.685283   -1.910596
    365          1           0       -5.580569    3.510808   -0.497877
    366          1           0       -4.484278    1.370889   -2.286279
    367          1           0       -4.318794    0.720104    1.955828
    368          1           0       -5.440749    1.859226    1.222078
    369          1           0       -5.710589    0.132025    1.044477
    370          1           0       -6.409852    0.381628   -1.379395
 ---------------------------------------------------------------------
 Rotational constants (GHZ):           0.0064596           0.0058481           0.0050278
 Standard basis: 6-31G(d) (6D, 7F)
 There are  2637 symmetry adapted cartesian basis functions of A   symmetry.
 There are  2637 symmetry adapted basis functions of A   symmetry.
  2637 basis functions,  5032 primitive gaussians,  2637 cartesian basis functions
   579 alpha electrons      579 beta electrons
       nuclear repulsion energy     42773.9982572924 Hartrees.
 NAtoms=  370 NActive=  370 NUniq=  370 SFac= 1.00D+00 NAtFMM=   60 NAOKFM=T Big=T
 Integral buffers will be    131072 words long.
 Raffenetti 2 integral format.
 Two-electron integral symmetry is turned on.
 Nuclear repulsion after empirical dispersion term =    42773.5677671811 Hartrees.
 One-electron integrals computed using PRISM.
 NBasis=  2637 RedAO= T EigKep=  3.33D-04  NBF=  2637
 NBsUse=  2637 1.00D-06 EigRej= -1.00D+00 NBFU=  2637
 ExpMin= 1.17D-01 ExpMax= 2.19D+04 ExpMxC= 3.30D+03 IAcc=3 IRadAn=         5 AccDes= 0.00D+00
 Harris functional with IExCor= 4639 and IRadAn=       5 diagonalized for initial guess.
 HarFok:  IExCor= 4639 AccDes= 0.00D+00 IRadAn=         5 IDoV= 1 UseB2=F ITyADJ=14
 ICtDFT=  3500011 ScaDFX=  1.000000  1.000000  1.000000  1.000000
 FoFCou: FMM=F IPFlag=           0 FMFlag=      100000 FMFlg1=        2001
         NFxFlg=           0 DoJE=T BraDBF=F KetDBF=T FulRan=T
         wScrn=  0.000000 ICntrl=       500 IOpCl=  0 I1Cent=   200000004 NGrid=           0
         NMat0=    1 NMatS0=      1 NMatT0=    0 NMatD0=    1 NMtDS0=    0 NMtDT0=    0
 Petite list used in FoFCou.
 Requested convergence on RMS density matrix=1.00D-08 within 128 cycles.
 Requested convergence on MAX density matrix=1.00D-06.
 Requested convergence on             energy=1.00D-06.
 No special actions if energy rises.
 Integral accuracy reduced to 1.0D-05 until final iterations.
 Initial convergence to 1.0D-05 achieved.  Increase integral accuracy.
 SCF Done:  E(RwB97XD) =  -7322.24278218     A.U. after   15 cycles
            NFock= 15  Conv=0.37D-08     -V/T= 2.0080
 Hyperfine terms turned off by default for NAtoms > 100.

 **********************************************************************

            Population analysis using the SCF Density.

 **********************************************************************

 Orbital symmetries:
       Occupied  (A) (A) (A) (A) (A) (A) (A) (A) (A) (A) (A) (A)
                 (A) (A) (A) (A) (A) (A) (A) (A) (A) (A) (A) (A)
                 (A) (A) (A) (A) (A) (A) (A) (A) (A) (A) (A) (A)
                 (A) (A) (A) (A) (A) (A) (A) (A) (A) (A) (A) (A)
                 (A) (A) (A) (A) (A) (A) (A) (A) (A) (A) (A) (A)
                 (A) (A) (A) (A) (A) (A) (A) (A) (A) (A) (A) (A)
                 (A) (A) (A) (A) (A) (A) (A) (A) (A) (A) (A) (A)
                 (A) (A) (A) (A) (A) (A) (A) (A) (A) (A) (A) (A)
                 (A) (A) (A) (A) (A) (A) (A) (A) (A) (A) (A) (A)
                 (A) (A) (A) (A) (A) (A) (A) (A) (A) (A) (A) (A)
                 (A) (A) (A) (A) (A) (A) (A) (A) (A) (A) (A) (A)
                 (A) (A) (A) (A) (A) (A) (A) (A) (A) (A) (A) (A)
                 (A) (A) (A) (A) (A) (A) (A) (A) (A) (A) (A) (A)
                 (A) (A) (A) (A) (A) (A) (A) (A) (A) (A) (A) (A)
                 (A) (A) (A) (A) (A) (A) (A) (A) (A) (A) (A) (A)
                 (A) (A) (A) (A) (A) (A) (A) (A) (A) (A) (A) (A)
                 (A) (A) (A) (A) (A) (A) (A) (A) (A) (A) (A) (A)
                 (A) (A) (A) (A) (A) (A) (A) (A) (A) (A) (A) (A)
                 (A) (A) (A) (A) (A) (A) (A) (A) (A) (A) (A) (A)
                 (A) (A) (A) (A) (A) (A) (A) (A) (A) (A) (A) (A)
                 (A) (A) (A) (A) (A) (A) (A) (A) (A) (A) (A) (A)
                 (A) (A) (A) (A) (A) (A) (A) (A) (A) (A) (A) (A)
                 (A) (A) (A) (A) (A) (A) (A) (A) (A) (A) (A) (A)
                 (A) (A) (A) (A) (A) (A) (A) (A) (A) (A) (A) (A)
                 (A) (A) (A) (A) (A) (A) (A) (A) (A) (A) (A) (A)
                 (A) (A) (A) (A) (A) (A) (A) (A) (A) (A) (A) (A)
                 (A) (A) (A) (A) (A) (A) (A) (A) (A) (A) (A) (A)
                 (A) (A) (A) (A) (A) (A) (A) (A) (A) (A) (A) (A)
                 (A) (A) (A) (A) (A) (A) (A) (A) (A) (A) (A) (A)
                 (A) (A) (A) (A) (A) (A) (A) (A) (A) (A) (A) (A)
                 (A) (A) (A) (A) (A) (A) (A) (A) (A) (A) (A) (A)
                 (A) (A) (A) (A) (A) (A) (A) (A) (A) (A) (A) (A)
                 (A) (A) (A) (A) (A) (A) (A) (A) (A) (A) (A) (A)
                 (A) (A) (A) (A) (A) (A) (A) (A) (A) (A) (A) (A)
                 (A) (A) (A) (A) (A) (A) (A) (A) (A) (A) (A) (A)
                 (A) (A) (A) (A) (A) (A) (A) (A) (A) (A) (A) (A)
                 (A) (A) (A) (A) (A) (A) (A) (A) (A) (A) (A) (A)
                 (A) (A) (A) (A) (A) (A) (A) (A) (A) (A) (A) (A)
                 (A) (A) (A) (A) (A) (A) (A) (A) (A) (A) (A) (A)
                 (A) (A) (A) (A) (A) (A) (A) (A) (A) (A) (A) (A)
                 (A) (A) (A) (A) (A) (A) (A) (A) (A) (A) (A) (A)
                 (A) (A) (A) (A) (A) (A) (A) (A) (A) (A) (A) (A)
                 (A) (A) (A) (A) (A) (A) (A) (A) (A) (A) (A) (A)
                 (A) (A) (A) (A) (A) (A) (A) (A) (A) (A) (A) (A)
                 (A) (A) (A) (A) (A) (A) (A) (A) (A) (A) (A) (A)
                 (A) (A) (A) (A) (A) (A) (A) (A) (A) (A) (A) (A)
                 (A) (A) (A) (A) (A) (A) (A) (A) (A) (A) (A) (A)
                 (A) (A) (A) (A) (A) (A) (A) (A) (A) (A) (A) (A)
                 (A) (A) (A)
       Virtual   (A) (A) (A) (A) (A) (A) (A) (A) (A) (A) (A) (A)
                 (A) (A) (A) (A) (A) (A) (A) (A) (A) (A) (A) (A)
                 (A) (A) (A) (A) (A) (A) (A) (A) (A) (A) (A) (A)
                 (A) (A) (A) (A) (A) (A) (A) (A) (A) (A) (A) (A)
                 (A) (A) (A) (A) (A) (A) (A) (A) (A) (A) (A) (A)
                 (A) (A) (A) (A) (A) (A) (A) (A) (A) (A) (A) (A)
                 (A) (A) (A) (A) (A) (A) (A) (A) (A) (A) (A) (A)
                 (A) (A) (A) (A) (A) (A) (A) (A) (A) (A) (A) (A)
                 (A) (A) (A) (A) (A) (A) (A) (A) (A) (A) (A) (A)
                 (A) (A) (A) (A) (A) (A) (A) (A) (A) (A) (A) (A)
                 (A) (A) (A) (A) (A) (A) (A) (A) (A) (A) (A) (A)
                 (A) (A) (A) (A) (A) (A) (A) (A) (A) (A) (A) (A)
                 (A) (A) (A) (A) (A) (A) (A) (A) (A) (A) (A) (A)
                 (A) (A) (A) (A) (A) (A) (A) (A) (A) (A) (A) (A)
                 (A) (A) (A) (A) (A) (A) (A) (A) (A) (A) (A) (A)
                 (A) (A) (A) (A) (A) (A) (A) (A) (A) (A) (A) (A)
                 (A) (A) (A) (A) (A) (A) (A) (A) (A) (A) (A) (A)
                 (A) (A) (A) (A) (A) (A) (A) (A) (A) (A) (A) (A)
                 (A) (A) (A) (A) (A) (A) (A) (A) (A) (A) (A) (A)
                 (A) (A) (A) (A) (A) (A) (A) (A) (A) (A) (A) (A)
                 (A) (A) (A) (A) (A) (A) (A) (A) (A) (A) (A) (A)
                 (A) (A) (A) (A) (A) (A) (A) (A) (A) (A) (A) (A)
                 (A) (A) (A) (A) (A) (A) (A) (A) (A) (A) (A) (A)
                 (A) (A) (A) (A) (A) (A) (A) (A) (A) (A) (A) (A)
                 (A) (A) (A) (A) (A) (A) (A) (A) (A) (A) (A) (A)
                 (A) (A) (A) (A) (A) (A) (A) (A) (A) (A) (A) (A)
                 (A) (A) (A) (A) (A) (A) (A) (A) (A) (A) (A) (A)
                 (A) (A) (A) (A) (A) (A) (A) (A) (A) (A) (A) (A)
                 (A) (A) (A) (A) (A) (A) (A) (A) (A) (A) (A) (A)
                 (A) (A) (A) (A) (A) (A) (A) (A) (A) (A) (A) (A)
                 (A) (A) (A) (A) (A) (A) (A) (A) (A) (A) (A) (A)
                 (A) (A) (A) (A) (A) (A) (A) (A) (A) (A) (A) (A)
                 (A) (A) (A) (A) (A) (A) (A) (A) (A) (A) (A) (A)
                 (A) (A) (A) (A) (A) (A) (A) (A) (A) (A) (A) (A)
                 (A) (A) (A) (A) (A) (A) (A) (A) (A) (A) (A) (A)
                 (A) (A) (A) (A) (A) (A) (A) (A) (A) (A) (A) (A)
                 (A) (A) (A) (A) (A) (A) (A) (A) (A) (A) (A) (A)
                 (A) (A) (A) (A) (A) (A) (A) (A) (A) (A) (A) (A)
                 (A) (A) (A) (A) (A) (A) (A) (A) (A) (A) (A) (A)
                 (A) (A) (A) (A) (A) (A) (A) (A) (A) (A) (A) (A)
                 (A) (A) (A) (A) (A) (A) (A) (A) (A) (A) (A) (A)
                 (A) (A) (A) (A) (A) (A) (A) (A) (A) (A) (A) (A)
                 (A) (A) (A) (A) (A) (A) (A) (A) (A) (A) (A) (A)
                 (A) (A) (A) (A) (A) (A) (A) (A) (A) (A) (A) (A)
                 (A) (A) (A) (A) (A) (A) (A) (A) (A) (A) (A) (A)
                 (A) (A) (A) (A) (A) (A) (A) (A) (A) (A) (A) (A)
                 (A) (A) (A) (A) (A) (A) (A) (A) (A) (A) (A) (A)
                 (A) (A) (A) (A) (A) (A) (A) (A) (A) (A) (A) (A)
                 (A) (A) (A) (A) (A) (A) (A) (A) (A) (A) (A) (A)
                 (A) (A) (A) (A) (A) (A) (A) (A) (A) (A) (A) (A)
                 (A) (A) (A) (A) (A) (A) (A) (A) (A) (A) (A) (A)
                 (A) (A) (A) (A) (A) (A) (A) (A) (A) (A) (A) (A)
                 (A) (A) (A) (A) (A) (A) (A) (A) (A) (A) (A) (A)
                 (A) (A) (A) (A) (A) (A) (A) (A) (A) (A) (A) (A)
                 (A) (A) (A) (A) (A) (A) (A) (A) (A) (A) (A) (A)
                 (A) (A) (A) (A) (A) (A) (A) (A) (A) (A) (A) (A)
                 (A) (A) (A) (A) (A) (A) (A) (A) (A) (A) (A) (A)
                 (A) (A) (A) (A) (A) (A) (A) (A) (A) (A) (A) (A)
                 (A) (A) (A) (A) (A) (A) (A) (A) (A) (A) (A) (A)
                 (A) (A) (A) (A) (A) (A) (A) (A) (A) (A) (A) (A)
                 (A) (A) (A) (A) (A) (A) (A) (A) (A) (A) (A) (A)
                 (A) (A) (A) (A) (A) (A) (A) (A) (A) (A) (A) (A)
                 (A) (A) (A) (A) (A) (A) (A) (A) (A) (A) (A) (A)
                 (A) (A) (A) (A) (A) (A) (A) (A) (A) (A) (A) (A)
                 (A) (A) (A) (A) (A) (A) (A) (A) (A) (A) (A) (A)
                 (A) (A) (A) (A) (A) (A) (A) (A) (A) (A) (A) (A)
                 (A) (A) (A) (A) (A) (A) (A) (A) (A) (A) (A) (A)
                 (A) (A) (A) (A) (A) (A) (A) (A) (A) (A) (A) (A)
                 (A) (A) (A) (A) (A) (A) (A) (A) (A) (A) (A) (A)
                 (A) (A) (A) (A) (A) (A) (A) (A) (A) (A) (A) (A)
                 (A) (A) (A) (A) (A) (A) (A) (A) (A) (A) (A) (A)
                 (A) (A) (A) (A) (A) (A) (A) (A) (A) (A) (A) (A)
                 (A) (A) (A) (A) (A) (A) (A) (A) (A) (A) (A) (A)
                 (A) (A) (A) (A) (A) (A) (A) (A) (A) (A) (A) (A)
                 (A) (A) (A) (A) (A) (A) (A) (A) (A) (A) (A) (A)
                 (A) (A) (A) (A) (A) (A) (A) (A) (A) (A) (A) (A)
                 (A) (A) (A) (A) (A) (A) (A) (A) (A) (A) (A) (A)
                 (A) (A) (A) (A) (A) (A) (A) (A) (A) (A) (A) (A)
                 (A) (A) (A) (A) (A) (A) (A) (A) (A) (A) (A) (A)
                 (A) (A) (A) (A) (A) (A) (A) (A) (A) (A) (A) (A)
                 (A) (A) (A) (A) (A) (A) (A) (A) (A) (A) (A) (A)
                 (A) (A) (A) (A) (A) (A) (A) (A) (A) (A) (A) (A)
                 (A) (A) (A) (A) (A) (A) (A) (A) (A) (A) (A) (A)
                 (A) (A) (A) (A) (A) (A) (A) (A) (A) (A) (A) (A)
                 (A) (A) (A) (A) (A) (A) (A) (A) (A) (A) (A) (A)
                 (A) (A) (A) (A) (A) (A) (A) (A) (A) (A) (A) (A)
                 (A) (A) (A) (A) (A) (A) (A) (A) (A) (A) (A) (A)
                 (A) (A) (A) (A) (A) (A) (A) (A) (A) (A) (A) (A)
                 (A) (A) (A) (A) (A) (A) (A) (A) (A) (A) (A) (A)
                 (A) (A) (A) (A) (A) (A) (A) (A) (A) (A) (A) (A)
                 (A) (A) (A) (A) (A) (A) (A) (A) (A) (A) (A) (A)
                 (A) (A) (A) (A) (A) (A) (A) (A) (A) (A) (A) (A)
                 (A) (A) (A) (A) (A) (A) (A) (A) (A) (A) (A) (A)
                 (A) (A) (A) (A) (A) (A) (A) (A) (A) (A) (A) (A)
                 (A) (A) (A) (A) (A) (A) (A) (A) (A) (A) (A) (A)
                 (A) (A) (A) (A) (A) (A) (A) (A) (A) (A) (A) (A)
                 (A) (A) (A) (A) (A) (A) (A) (A) (A) (A) (A) (A)
                 (A) (A) (A) (A) (A) (A) (A) (A) (A) (A) (A) (A)
                 (A) (A) (A) (A) (A) (A) (A) (A) (A) (A) (A) (A)
                 (A) (A) (A) (A) (A) (A) (A) (A) (A) (A) (A) (A)
                 (A) (A) (A) (A) (A) (A) (A) (A) (A) (A) (A) (A)
                 (A) (A) (A) (A) (A) (A) (A) (A) (A) (A) (A) (A)
                 (A) (A) (A) (A) (A) (A) (A) (A) (A) (A) (A) (A)
                 (A) (A) (A) (A) (A) (A) (A) (A) (A) (A) (A) (A)
                 (A) (A) (A) (A) (A) (A) (A) (A) (A) (A) (A) (A)
                 (A) (A) (A) (A) (A) (A) (A) (A) (A) (A) (A) (A)
                 (A) (A) (A) (A) (A) (A) (A) (A) (A) (A) (A) (A)
                 (A) (A) (A) (A) (A) (A) (A) (A) (A) (A) (A) (A)
                 (A) (A) (A) (A) (A) (A) (A) (A) (A) (A) (A) (A)
                 (A) (A) (A) (A) (A) (A) (A) (A) (A) (A) (A) (A)
                 (A) (A) (A) (A) (A) (A) (A) (A) (A) (A) (A) (A)
                 (A) (A) (A) (A) (A) (A) (A) (A) (A) (A) (A) (A)
                 (A) (A) (A) (A) (A) (A) (A) (A) (A) (A) (A) (A)
                 (A) (A) (A) (A) (A) (A) (A) (A) (A) (A) (A) (A)
                 (A) (A) (A) (A) (A) (A) (A) (A) (A) (A) (A) (A)
                 (A) (A) (A) (A) (A) (A) (A) (A) (A) (A) (A) (A)
                 (A) (A) (A) (A) (A) (A) (A) (A) (A) (A) (A) (A)
                 (A) (A) (A) (A) (A) (A) (A) (A) (A) (A) (A) (A)
                 (A) (A) (A) (A) (A) (A) (A) (A) (A) (A) (A) (A)
                 (A) (A) (A) (A) (A) (A) (A) (A) (A) (A) (A) (A)
                 (A) (A) (A) (A) (A) (A) (A) (A) (A) (A) (A) (A)
                 (A) (A) (A) (A) (A) (A) (A) (A) (A) (A) (A) (A)
                 (A) (A) (A) (A) (A) (A) (A) (A) (A) (A) (A) (A)
                 (A) (A) (A) (A) (A) (A) (A) (A) (A) (A) (A) (A)
                 (A) (A) (A) (A) (A) (A) (A) (A) (A) (A) (A) (A)
                 (A) (A) (A) (A) (A) (A) (A) (A) (A) (A) (A) (A)
                 (A) (A) (A) (A) (A) (A) (A) (A) (A) (A) (A) (A)
                 (A) (A) (A) (A) (A) (A) (A) (A) (A) (A) (A) (A)
                 (A) (A) (A) (A) (A) (A) (A) (A) (A) (A) (A) (A)
                 (A) (A) (A) (A) (A) (A) (A) (A) (A) (A) (A) (A)
                 (A) (A) (A) (A) (A) (A) (A) (A) (A) (A) (A) (A)
                 (A) (A) (A) (A) (A) (A) (A) (A) (A) (A) (A) (A)
                 (A) (A) (A) (A) (A) (A) (A) (A) (A) (A) (A) (A)
                 (A) (A) (A) (A) (A) (A) (A) (A) (A) (A) (A) (A)
                 (A) (A) (A) (A) (A) (A) (A) (A) (A) (A) (A) (A)
                 (A) (A) (A) (A) (A) (A) (A) (A) (A) (A) (A) (A)
                 (A) (A) (A) (A) (A) (A) (A) (A) (A) (A) (A) (A)
                 (A) (A) (A) (A) (A) (A) (A) (A) (A) (A) (A) (A)
                 (A) (A) (A) (A) (A) (A) (A) (A) (A) (A) (A) (A)
                 (A) (A) (A) (A) (A) (A) (A) (A) (A) (A) (A) (A)
                 (A) (A) (A) (A) (A) (A) (A) (A) (A) (A) (A) (A)
                 (A) (A) (A) (A) (A) (A) (A) (A) (A) (A) (A) (A)
                 (A) (A) (A) (A) (A) (A) (A) (A) (A) (A) (A) (A)
                 (A) (A) (A) (A) (A) (A) (A) (A) (A) (A) (A) (A)
                 (A) (A) (A) (A) (A) (A) (A) (A) (A) (A) (A) (A)
                 (A) (A) (A) (A) (A) (A) (A) (A) (A) (A) (A) (A)
                 (A) (A) (A) (A) (A) (A) (A) (A) (A) (A) (A) (A)
                 (A) (A) (A) (A) (A) (A) (A) (A) (A) (A) (A) (A)
                 (A) (A) (A) (A) (A) (A) (A) (A) (A) (A) (A) (A)
                 (A) (A) (A) (A) (A) (A) (A) (A) (A) (A) (A) (A)
                 (A) (A) (A) (A) (A) (A) (A) (A) (A) (A) (A) (A)
                 (A) (A) (A) (A) (A) (A) (A) (A) (A) (A) (A) (A)
                 (A) (A) (A) (A) (A) (A) (A) (A) (A) (A) (A) (A)
                 (A) (A) (A) (A) (A) (A) (A) (A) (A) (A) (A) (A)
                 (A) (A) (A) (A) (A) (A) (A) (A) (A) (A) (A) (A)
                 (A) (A) (A) (A) (A) (A) (A) (A) (A) (A) (A) (A)
                 (A) (A) (A) (A) (A) (A) (A) (A) (A) (A) (A) (A)
                 (A) (A) (A) (A) (A) (A) (A) (A) (A) (A) (A) (A)
                 (A) (A) (A) (A) (A) (A) (A) (A) (A) (A) (A) (A)
                 (A) (A) (A) (A) (A) (A) (A) (A) (A) (A) (A) (A)
                 (A) (A) (A) (A) (A) (A) (A) (A) (A) (A) (A) (A)
                 (A) (A) (A) (A) (A) (A) (A) (A) (A) (A) (A) (A)
                 (A) (A) (A) (A) (A) (A) (A) (A) (A) (A) (A) (A)
                 (A) (A) (A) (A) (A) (A) (A) (A) (A) (A) (A) (A)
                 (A) (A) (A) (A) (A) (A) (A) (A) (A) (A) (A) (A)
                 (A) (A) (A) (A) (A) (A) (A) (A) (A) (A) (A) (A)
                 (A) (A) (A) (A) (A) (A) (A) (A) (A) (A) (A) (A)
                 (A) (A) (A) (A) (A) (A) (A) (A) (A) (A) (A) (A)
                 (A) (A) (A) (A) (A) (A) (A) (A) (A) (A) (A) (A)
                 (A) (A) (A) (A) (A) (A) (A) (A) (A) (A) (A) (A)
                 (A) (A) (A) (A) (A) (A) (A) (A) (A) (A) (A) (A)
                 (A) (A) (A) (A) (A) (A)
 The electronic state is 1-A.
 Alpha  occ. eigenvalues --  -88.97588 -88.97398 -88.95972 -19.23496 -19.23026
 Alpha  occ. eigenvalues --  -19.22163 -19.21872 -19.20573 -19.19789 -19.19374
 Alpha  occ. eigenvalues --  -19.19215 -19.18898 -19.17307 -19.13104 -19.11444
 Alpha  occ. eigenvalues --  -19.10196 -14.45521 -14.44094 -14.43730 -14.42046
 Alpha  occ. eigenvalues --  -14.38822 -14.38579 -10.37240 -10.36361 -10.36260
 Alpha  occ. eigenvalues --  -10.35953 -10.34059 -10.33468 -10.30746 -10.29779
 Alpha  occ. eigenvalues --  -10.29682 -10.29259 -10.28926 -10.28185 -10.27956
 Alpha  occ. eigenvalues --  -10.27318 -10.27277 -10.27156 -10.27042 -10.26596
 Alpha  occ. eigenvalues --  -10.26577 -10.26511 -10.26249 -10.25580 -10.25557
 Alpha  occ. eigenvalues --  -10.25458 -10.25343 -10.25324 -10.25276 -10.25173
 Alpha  occ. eigenvalues --  -10.25019 -10.24767 -10.24714 -10.24664 -10.24600
 Alpha  occ. eigenvalues --  -10.24503 -10.24498 -10.24496 -10.24482 -10.24428
 Alpha  occ. eigenvalues --  -10.24398 -10.24386 -10.24033 -10.23970 -10.23926
 Alpha  occ. eigenvalues --  -10.23863 -10.23831 -10.23829 -10.23810 -10.23797
 Alpha  occ. eigenvalues --  -10.23786 -10.23755 -10.23748 -10.23728 -10.23648
 Alpha  occ. eigenvalues --  -10.23559 -10.23531 -10.23498 -10.23422 -10.23392
 Alpha  occ. eigenvalues --  -10.23364 -10.23363 -10.23358 -10.23334 -10.23298
 Alpha  occ. eigenvalues --  -10.23250 -10.23248 -10.23210 -10.23182 -10.23033
 Alpha  occ. eigenvalues --  -10.22957 -10.22933 -10.22910 -10.22833 -10.22825
 Alpha  occ. eigenvalues --  -10.22653 -10.22620 -10.22550 -10.22516 -10.22481
 Alpha  occ. eigenvalues --  -10.22463 -10.22409 -10.22406 -10.22404 -10.22396
 Alpha  occ. eigenvalues --  -10.22381 -10.22270 -10.22229 -10.22202 -10.22192
 Alpha  occ. eigenvalues --  -10.22122 -10.21962 -10.21948 -10.21939 -10.21871
 Alpha  occ. eigenvalues --  -10.21854 -10.21681 -10.21636 -10.21536 -10.21444
 Alpha  occ. eigenvalues --  -10.21395 -10.21344 -10.21337 -10.21313 -10.21303
 Alpha  occ. eigenvalues --  -10.21263 -10.21123 -10.21120 -10.21119 -10.21090
 Alpha  occ. eigenvalues --  -10.20996 -10.20881 -10.20789 -10.20671 -10.20590
 Alpha  occ. eigenvalues --  -10.20563 -10.20412 -10.20293 -10.20210 -10.20179
 Alpha  occ. eigenvalues --  -10.20159 -10.20099 -10.19737 -10.19198 -10.18624
 Alpha  occ. eigenvalues --   -7.99469  -7.99316  -7.97839  -5.94511  -5.94359
 Alpha  occ. eigenvalues --   -5.94144  -5.93986  -5.93444  -5.93286  -5.92890
 Alpha  occ. eigenvalues --   -5.92503  -5.91822  -1.13324  -1.11347  -1.10330
 Alpha  occ. eigenvalues --   -1.10191  -1.10056  -1.08922  -1.08259  -1.07855
 Alpha  occ. eigenvalues --   -1.04942  -1.04144  -1.04083  -1.03031  -0.99948
 Alpha  occ. eigenvalues --   -0.99412  -0.98267  -0.97167  -0.96503  -0.95717
 Alpha  occ. eigenvalues --   -0.93621  -0.90525  -0.90234  -0.90167  -0.89856
 Alpha  occ. eigenvalues --   -0.88353  -0.87791  -0.86890  -0.86842  -0.86332
 Alpha  occ. eigenvalues --   -0.86113  -0.86058  -0.85737  -0.85027  -0.84995
 Alpha  occ. eigenvalues --   -0.84840  -0.84392  -0.83883  -0.83680  -0.83326
 Alpha  occ. eigenvalues --   -0.83309  -0.83234  -0.83199  -0.82618  -0.82287
 Alpha  occ. eigenvalues --   -0.81881  -0.81843  -0.81676  -0.81551  -0.81015
 Alpha  occ. eigenvalues --   -0.80519  -0.79581  -0.79481  -0.79440  -0.78931
 Alpha  occ. eigenvalues --   -0.78640  -0.78392  -0.78230  -0.77881  -0.77661
 Alpha  occ. eigenvalues --   -0.77355  -0.77169  -0.77065  -0.76976  -0.76848
 Alpha  occ. eigenvalues --   -0.76671  -0.76398  -0.76032  -0.75487  -0.75376
 Alpha  occ. eigenvalues --   -0.74932  -0.74053  -0.73546  -0.73543  -0.73153
 Alpha  occ. eigenvalues --   -0.73023  -0.72802  -0.72720  -0.72705  -0.72357
 Alpha  occ. eigenvalues --   -0.72228  -0.72034  -0.71724  -0.71299  -0.71235
 Alpha  occ. eigenvalues --   -0.71084  -0.70562  -0.70462  -0.70358  -0.70125
 Alpha  occ. eigenvalues --   -0.69702  -0.69514  -0.68876  -0.68545  -0.67809
 Alpha  occ. eigenvalues --   -0.67355  -0.67351  -0.67273  -0.66884  -0.66425
 Alpha  occ. eigenvalues --   -0.66409  -0.66081  -0.65850  -0.65772  -0.65691
 Alpha  occ. eigenvalues --   -0.65336  -0.65307  -0.65109  -0.65044  -0.64361
 Alpha  occ. eigenvalues --   -0.64205  -0.63994  -0.63901  -0.63410  -0.63215
 Alpha  occ. eigenvalues --   -0.62828  -0.62619  -0.62365  -0.62225  -0.61643
 Alpha  occ. eigenvalues --   -0.61526  -0.61221  -0.61131  -0.61037  -0.60974
 Alpha  occ. eigenvalues --   -0.60763  -0.60053  -0.59980  -0.59861  -0.59804
 Alpha  occ. eigenvalues --   -0.59793  -0.59471  -0.59176  -0.59026  -0.58517
 Alpha  occ. eigenvalues --   -0.58362  -0.58053  -0.58011  -0.57984  -0.57340
 Alpha  occ. eigenvalues --   -0.57090  -0.56848  -0.56443  -0.55618  -0.55556
 Alpha  occ. eigenvalues --   -0.55513  -0.54739  -0.54488  -0.54334  -0.53961
 Alpha  occ. eigenvalues --   -0.53804  -0.53495  -0.52738  -0.52454  -0.52189
 Alpha  occ. eigenvalues --   -0.52168  -0.51995  -0.51832  -0.51757  -0.51667
 Alpha  occ. eigenvalues --   -0.51577  -0.51061  -0.50994  -0.50714  -0.50640
 Alpha  occ. eigenvalues --   -0.50600  -0.50430  -0.50220  -0.50171  -0.50030
 Alpha  occ. eigenvalues --   -0.49959  -0.49828  -0.49713  -0.49565  -0.49434
 Alpha  occ. eigenvalues --   -0.49389  -0.49260  -0.49189  -0.49133  -0.49077
 Alpha  occ. eigenvalues --   -0.48941  -0.48890  -0.48814  -0.48737  -0.48648
 Alpha  occ. eigenvalues --   -0.48329  -0.48313  -0.48282  -0.48148  -0.47992
 Alpha  occ. eigenvalues --   -0.47960  -0.47844  -0.47678  -0.47652  -0.47625
 Alpha  occ. eigenvalues --   -0.47570  -0.47319  -0.47261  -0.47239  -0.47161
 Alpha  occ. eigenvalues --   -0.46968  -0.46727  -0.46716  -0.46611  -0.46555
 Alpha  occ. eigenvalues --   -0.46456  -0.46423  -0.46346  -0.46202  -0.46099
 Alpha  occ. eigenvalues --   -0.46045  -0.45874  -0.45792  -0.45725  -0.45681
 Alpha  occ. eigenvalues --   -0.45602  -0.45526  -0.45402  -0.45393  -0.45304
 Alpha  occ. eigenvalues --   -0.45176  -0.45135  -0.45097  -0.45040  -0.44953
 Alpha  occ. eigenvalues --   -0.44895  -0.44742  -0.44691  -0.44635  -0.44592
 Alpha  occ. eigenvalues --   -0.44578  -0.44549  -0.44542  -0.44481  -0.44425
 Alpha  occ. eigenvalues --   -0.44359  -0.44113  -0.44029  -0.43983  -0.43896
 Alpha  occ. eigenvalues --   -0.43774  -0.43757  -0.43750  -0.43575  -0.43476
 Alpha  occ. eigenvalues --   -0.43422  -0.43385  -0.43329  -0.43289  -0.43220
 Alpha  occ. eigenvalues --   -0.43131  -0.42897  -0.42866  -0.42807  -0.42761
 Alpha  occ. eigenvalues --   -0.42703  -0.42650  -0.42513  -0.42391  -0.42203
 Alpha  occ. eigenvalues --   -0.42137  -0.42065  -0.41964  -0.41929  -0.41787
 Alpha  occ. eigenvalues --   -0.41747  -0.41673  -0.41552  -0.41469  -0.41437
 Alpha  occ. eigenvalues --   -0.41361  -0.41274  -0.41202  -0.41063  -0.41010
 Alpha  occ. eigenvalues --   -0.40914  -0.40872  -0.40677  -0.40640  -0.40588
 Alpha  occ. eigenvalues --   -0.40480  -0.40363  -0.40317  -0.40295  -0.40210
 Alpha  occ. eigenvalues --   -0.40158  -0.40122  -0.40066  -0.39985  -0.39958
 Alpha  occ. eigenvalues --   -0.39922  -0.39711  -0.39567  -0.39528  -0.39453
 Alpha  occ. eigenvalues --   -0.39449  -0.39240  -0.39224  -0.39115  -0.39113
 Alpha  occ. eigenvalues --   -0.39047  -0.39046  -0.38954  -0.38809  -0.38652
 Alpha  occ. eigenvalues --   -0.38640  -0.38526  -0.38459  -0.38368  -0.38215
 Alpha  occ. eigenvalues --   -0.38072  -0.38054  -0.38024  -0.37852  -0.37789
 Alpha  occ. eigenvalues --   -0.37707  -0.37679  -0.37669  -0.37639  -0.37539
 Alpha  occ. eigenvalues --   -0.37509  -0.37496  -0.37364  -0.37342  -0.37259
 Alpha  occ. eigenvalues --   -0.37214  -0.37099  -0.36890  -0.36777  -0.36663
 Alpha  occ. eigenvalues --   -0.36640  -0.36546  -0.36442  -0.36365  -0.36332
 Alpha  occ. eigenvalues --   -0.36325  -0.36223  -0.36137  -0.36086  -0.35965
 Alpha  occ. eigenvalues --   -0.35776  -0.35679  -0.35623  -0.35495  -0.35415
 Alpha  occ. eigenvalues --   -0.35396  -0.35317  -0.35236  -0.35228  -0.35054
 Alpha  occ. eigenvalues --   -0.35041  -0.35037  -0.35014  -0.34841  -0.34775
 Alpha  occ. eigenvalues --   -0.34694  -0.34650  -0.34508  -0.34483  -0.34424
 Alpha  occ. eigenvalues --   -0.34408  -0.34362  -0.34343  -0.34226  -0.34148
 Alpha  occ. eigenvalues --   -0.34116  -0.34017  -0.33985  -0.33965  -0.33785
 Alpha  occ. eigenvalues --   -0.33651  -0.33563  -0.33438  -0.33403  -0.33238
 Alpha  occ. eigenvalues --   -0.33197  -0.33129  -0.33113  -0.33041  -0.33036
 Alpha  occ. eigenvalues --   -0.33007  -0.32976  -0.32932  -0.32631  -0.32598
 Alpha  occ. eigenvalues --   -0.32553  -0.32340  -0.32288  -0.32112  -0.32081
 Alpha  occ. eigenvalues --   -0.31945  -0.31366  -0.31171  -0.30684  -0.30644
 Alpha  occ. eigenvalues --   -0.30522  -0.29567  -0.29517  -0.29158  -0.29133
 Alpha  occ. eigenvalues --   -0.28681  -0.28305  -0.27576  -0.27439  -0.27093
 Alpha  occ. eigenvalues --   -0.27062  -0.26741  -0.26648  -0.26615  -0.26491
 Alpha  occ. eigenvalues --   -0.25630  -0.25516  -0.24119  -0.24025  -0.23603
 Alpha  occ. eigenvalues --   -0.22926  -0.22918  -0.22581  -0.22409  -0.22281
 Alpha  occ. eigenvalues --   -0.21659  -0.20983  -0.20400  -0.18586
 Alpha virt. eigenvalues --    0.07318   0.12842   0.12878   0.12920   0.13090
 Alpha virt. eigenvalues --    0.13126   0.13770   0.13786   0.14367   0.14547
 Alpha virt. eigenvalues --    0.15100   0.15882   0.16028   0.16146   0.16171
 Alpha virt. eigenvalues --    0.16243   0.16307   0.17547   0.17780   0.17970
 Alpha virt. eigenvalues --    0.18023   0.18278   0.18527   0.18672   0.19149
 Alpha virt. eigenvalues --    0.19205   0.19291   0.19396   0.19852   0.19954
 Alpha virt. eigenvalues --    0.20175   0.20555   0.20566   0.20669   0.20809
 Alpha virt. eigenvalues --    0.21108   0.21265   0.21464   0.21637   0.21770
 Alpha virt. eigenvalues --    0.21810   0.22014   0.22074   0.22456   0.22704
 Alpha virt. eigenvalues --    0.22759   0.22919   0.23055   0.23178   0.23244
 Alpha virt. eigenvalues --    0.23367   0.23559   0.23589   0.23647   0.23674
 Alpha virt. eigenvalues --    0.23760   0.23783   0.23896   0.23997   0.24122
 Alpha virt. eigenvalues --    0.24236   0.24325   0.24425   0.24519   0.24633
 Alpha virt. eigenvalues --    0.24686   0.24746   0.24838   0.24973   0.25028
 Alpha virt. eigenvalues --    0.25048   0.25235   0.25423   0.25464   0.25618
 Alpha virt. eigenvalues --    0.25718   0.25811   0.25862   0.26044   0.26126
 Alpha virt. eigenvalues --    0.26244   0.26344   0.26370   0.26472   0.26586
 Alpha virt. eigenvalues --    0.26717   0.26794   0.26843   0.26953   0.27078
 Alpha virt. eigenvalues --    0.27152   0.27173   0.27315   0.27414   0.27495
 Alpha virt. eigenvalues --    0.27559   0.27657   0.27698   0.27800   0.27838
 Alpha virt. eigenvalues --    0.27926   0.27953   0.28022   0.28074   0.28191
 Alpha virt. eigenvalues --    0.28302   0.28346   0.28369   0.28507   0.28643
 Alpha virt. eigenvalues --    0.28755   0.28789   0.28875   0.28911   0.29011
 Alpha virt. eigenvalues --    0.29086   0.29098   0.29113   0.29240   0.29292
 Alpha virt. eigenvalues --    0.29334   0.29419   0.29459   0.29570   0.29680
 Alpha virt. eigenvalues --    0.29733   0.29810   0.29888   0.29919   0.30057
 Alpha virt. eigenvalues --    0.30095   0.30129   0.30225   0.30293   0.30356
 Alpha virt. eigenvalues --    0.30429   0.30536   0.30615   0.30657   0.30688
 Alpha virt. eigenvalues --    0.30757   0.30811   0.30838   0.30952   0.31032
 Alpha virt. eigenvalues --    0.31053   0.31124   0.31194   0.31240   0.31268
 Alpha virt. eigenvalues --    0.31296   0.31383   0.31412   0.31513   0.31553
 Alpha virt. eigenvalues --    0.31730   0.31782   0.31831   0.31883   0.32021
 Alpha virt. eigenvalues --    0.32068   0.32087   0.32130   0.32220   0.32261
 Alpha virt. eigenvalues --    0.32328   0.32423   0.32470   0.32511   0.32548
 Alpha virt. eigenvalues --    0.32654   0.32729   0.32787   0.32816   0.32918
 Alpha virt. eigenvalues --    0.32947   0.32985   0.33075   0.33114   0.33280
 Alpha virt. eigenvalues --    0.33298   0.33382   0.33465   0.33573   0.33626
 Alpha virt. eigenvalues --    0.33676   0.33716   0.33779   0.33875   0.33889
 Alpha virt. eigenvalues --    0.34035   0.34116   0.34173   0.34218   0.34243
 Alpha virt. eigenvalues --    0.34296   0.34432   0.34530   0.34576   0.34623
 Alpha virt. eigenvalues --    0.34707   0.34753   0.34859   0.34984   0.35065
 Alpha virt. eigenvalues --    0.35136   0.35236   0.35272   0.35321   0.35472
 Alpha virt. eigenvalues --    0.35542   0.35562   0.35708   0.35795   0.35857
 Alpha virt. eigenvalues --    0.35921   0.35994   0.36102   0.36143   0.36225
 Alpha virt. eigenvalues --    0.36363   0.36402   0.36507   0.36570   0.36614
[...]
  220 Atom       -0.304947      0.148658      0.156289
  221 Atom       -0.305786      0.150692      0.155094
  222 Atom       -0.016068      0.004532      0.011536
  223 Atom       -0.306593      0.151126      0.155466
  224 Atom       -0.032421     -0.000047      0.032468
  225 Atom       -0.292159      0.142910      0.149249
  226 Atom       -0.294260      0.144290      0.149970
  227 Atom       -0.025440     -0.000737      0.026177
  228 Atom       -0.284391      0.141193      0.143198
  229 Atom       -0.018787      0.005854      0.012933
  230 Atom       -0.307109      0.151421      0.155688
  231 Atom       -0.304497      0.149438      0.155059
  232 Atom       -0.304610      0.150103      0.154508
  233 Atom       -0.043110      0.010454      0.032656
  234 Atom       -0.305435      0.149633      0.155802
  235 Atom       -0.299470      0.146205      0.153265
  236 Atom       -0.306803      0.149671      0.157132
  237 Atom       -0.305049      0.149902      0.155147
  238 Atom       -0.305939      0.150623      0.155316
  239 Atom       -0.009672      0.000093      0.009580
  240 Atom       -0.305873      0.150150      0.155722
  241 Atom       -0.031503     -0.008683      0.040186
  242 Atom       -0.281456      0.140005      0.141451
  243 Atom       -0.029467     -0.011588      0.041055
  244 Atom       -0.294831      0.144409      0.150422
  245 Atom       -0.305847      0.150142      0.155706
  246 Atom       -0.304839      0.148757      0.156081
  247 Atom       -0.028589      0.007616      0.020973
  248 Atom       -0.306425      0.149745      0.156680
  249 Atom       -0.306815      0.149702      0.157114
  250 Atom       -0.300504      0.147155      0.153349
  251 Atom       -0.305718      0.150691      0.155026
  252 Atom       -0.305982      0.148261      0.157721
  253 Atom       -0.058980      0.010431      0.048549
  254 Atom       -0.302442      0.146431      0.156010
  255 Atom       -0.075620      0.011669      0.063951
  256 Atom       -0.295384      0.143115      0.152270
  257 Atom       -0.280466      0.137703      0.142763
  258 Atom       -0.407718      0.041967      0.365751
  259 Atom       -0.775208     -0.680752      1.455960
  260 Atom       -1.308641      0.465976      0.842665
  261 Atom       -0.284353      0.128125      0.156228
  262 Atom       -0.306570      0.150015      0.156554
  263 Atom       -0.307030      0.150635      0.156395
  264 Atom       -0.039813      0.001483      0.038330
  265 Atom       -0.305793      0.149315      0.156479
  266 Atom       -0.035444     -0.003333      0.038777
  267 Atom       -0.292379      0.143573      0.148806
  268 Atom       -0.292891      0.142073      0.150818
  269 Atom       -0.220353      0.095440      0.124913
  270 Atom       -0.298714      0.143302      0.155412
  271 Atom       -0.297989      0.141856      0.156133
  272 Atom       -2.287548     -0.528964      2.816512
  273 Atom       -0.223794      0.105644      0.118150
  274 Atom       -0.304425      0.147670      0.156755
  275 Atom       -0.304135      0.146970      0.157165
  276 Atom       -0.302672      0.143870      0.158802
  277 Atom       -0.299782      0.148406      0.151376
  278 Atom       -0.305632      0.149130      0.156502
  279 Atom       -0.014494      0.002331      0.012163
  280 Atom       -0.305080      0.150498      0.154582
  281 Atom       -0.074360     -0.012096      0.086456
  282 Atom       -0.306518      0.148299      0.158219
  283 Atom       -0.280859      0.139229      0.141631
  284 Atom       -0.308968      0.151377      0.157591
  285 Atom       -0.305212      0.150218      0.154995
  286 Atom       -0.304628      0.148816      0.155812
  287 Atom       -0.034396      0.011410      0.022986
  288 Atom       -0.304757      0.150068      0.154689
  289 Atom       -0.034037     -0.002293      0.036331
  290 Atom       -0.295725      0.146110      0.149615
  291 Atom       -0.293178      0.145378      0.147799
  292 Atom       -0.079477      0.016069      0.063408
  293 Atom       -0.115384     -0.090089      0.205474
  294 Atom       -0.325906      0.150352      0.175553
  295 Atom       -0.413256     -0.105062      0.518317
  296 Atom       -0.280670      0.116182      0.164489
  297 Atom       -0.149122     -0.077397      0.226519
  298 Atom       -0.214951      0.079224      0.135727
  299 Atom       -0.311541      0.146438      0.165103
  300 Atom       -0.217878      0.083662      0.134217
  301 Atom       -0.314602      0.146902      0.167700
  302 Atom       -0.204372      0.074546      0.129826
  303 Atom       -0.315244      0.146440      0.168804
  304 Atom       -0.224934      0.075544      0.149390
  305 Atom       -0.315035      0.148819      0.166215
  306 Atom       -0.195657      0.080990      0.114668
  307 Atom       -0.304180      0.148981      0.155199
  308 Atom       -0.305291      0.150629      0.154662
  309 Atom       -0.022057      0.008032      0.014025
  310 Atom       -0.306799      0.151293      0.155506
  311 Atom       -0.030186     -0.003045      0.033231
  312 Atom       -0.292226      0.142218      0.150008
  313 Atom       -0.293712      0.143541      0.150171
  314 Atom       -0.018126      0.000366      0.017761
  315 Atom       -0.284183      0.141563      0.142620
  316 Atom       -0.021616      0.008867      0.012748
  317 Atom       -0.304265      0.148708      0.155557
  318 Atom       -0.305004      0.149522      0.155482
  319 Atom       -0.307346      0.151531      0.155815
  320 Atom       -0.026943      0.008531      0.018412
  321 Atom       -0.302322      0.148141      0.154181
  322 Atom       -0.305368      0.149661      0.155707
  323 Atom       -0.305378      0.149207      0.156171
  324 Atom       -0.304996      0.149965      0.155032
  325 Atom       -0.570815      0.154022      0.416793
  326 Atom       -0.909029     -0.454276      1.363305
  327 Atom       -0.113672      0.013936      0.099736
  328 Atom       -0.602014      0.282230      0.319784
  329 Atom       -0.085571     -0.030671      0.116242
  330 Atom       -0.061950      0.015982      0.045968
  331 Atom       -0.052474      0.000408      0.052066
  332 Atom       -0.097578     -0.003354      0.100931
  333 Atom       -0.043489     -0.014478      0.057967
  334 Atom       -0.029776     -0.006340      0.036115
  335 Atom       -0.039899      0.004816      0.035083
  336 Atom       -0.020506      0.000505      0.020001
  337 Atom       -0.034515      0.006507      0.028008
  338 Atom       -0.042284     -0.015584      0.057868
  339 Atom       -0.016529     -0.002226      0.018755
  340 Atom       -0.069754      0.015034      0.054721
  341 Atom       -0.041128     -0.002330      0.043458
  342 Atom       -0.300766      0.146552      0.154214
  343 Atom       -0.037210      0.004943      0.032267
  344 Atom       -1.635579     -0.141687      1.777266
  345 Atom       -0.299258      0.134992      0.164266
  346 Atom       -0.235087      0.114845      0.120242
  347 Atom       -0.287005      0.139981      0.147025
  348 Atom       -0.296690      0.145328      0.151363
  349 Atom       -0.284289      0.138543      0.145746
  350 Atom       -0.290653      0.141442      0.149211
  351 Atom       -0.296353      0.140576      0.155777
  352 Atom       -0.244848      0.116042      0.128806
  353 Atom       -0.290023      0.142253      0.147770
  354 Atom       -0.291652      0.143525      0.148128
  355 Atom       -0.283940      0.140368      0.143572
  356 Atom       -0.277173      0.137235      0.139939
  357 Atom       -0.275740      0.135068      0.140671
  358 Atom       -0.290550      0.142600      0.147950
  359 Atom       -0.278479      0.135898      0.142581
  360 Atom       -0.296358      0.147418      0.148940
  361 Atom       -0.296314      0.146292      0.150022
  362 Atom       -0.301042      0.148348      0.152694
  363 Atom       -0.294814      0.145297      0.149517
  364 Atom       -0.302240      0.149127      0.153113
  365 Atom       -0.300499      0.148927      0.151572
  366 Atom       -0.265934      0.127160      0.138775
  367 Atom       -0.306434      0.150655      0.155779
  368 Atom       -0.308709      0.148026      0.160683
  369 Atom       -0.304947      0.148020      0.156927
  370 Atom       -0.448161      0.196201      0.251959
 -----------------------------------------------------
 Unable to Open any file for archive entry.
 1\1\GINC-EXP-5-02\SP\RwB97XD\6-31G(d)\C123H225N6O13S3(1-)\HKLEM\11-Jul
 -2024\0\\# wb97xd/6-31G(d) prop=efg\\19nt_mm_min_distance_cutoff5_nowa
 t_xtb_conf_1\\-1,1\H,0,46.9812,33.7592,30.9406\C,0,46.354,34.588,30.60
 1\H,0,45.8964,34.3178,29.6503\C,0,45.2668,34.8786,31.6411\H,0,44.6881,
 33.963,31.7971\H,0,45.7248,35.1523,32.5945\C,0,44.3537,35.9825,31.185\
 C,0,43.513,35.8029,30.0936\H,0,43.5016,34.8543,29.576\C,0,42.6819,36.8
 149,29.6601\H,0,42.0304,36.6658,28.8129\C,0,42.6741,38.0391,30.3238\O,
 0,41.8411,39.0166,29.8835\H,0,41.8998,39.8041,30.4867\C,0,43.5123,38.2
 284,31.4151\H,0,43.5083,39.178,31.9288\C,0,44.3405,37.206,31.8348\H,0,
 44.9832,37.3587,32.6889\C,0,47.2565,35.8039,30.3187\O,0,47.2511,36.355
 2,29.236\N,0,48.0784,36.1947,31.323\H,0,48.0608,35.6982,32.1999\C,0,49
 .06,37.273,31.205\H,0,48.7642,37.8573,30.3326\C,0,49.1423,38.1501,32.4
 549\H,0,49.4641,37.5199,33.2946\C,0,50.205,39.2261,32.2385\H,0,50.2532
 ,39.8821,33.1039\H,0,49.97,39.8279,31.3656\H,0,51.1833,38.7737,32.087\
 C,0,47.7924,38.7624,32.8467\H,0,47.136,37.9572,33.1831\H,0,47.9563,39.
 4213,33.702\C,0,47.0993,39.541,31.737\H,0,46.2138,40.0351,32.1298\H,0,
 46.7888,38.8802,30.9328\H,0,47.7521,40.3116,31.3366\H,0,50.0463,36.833
 8,31.0061\H,0,48.0949,38.1651,26.6575\C,0,48.063,39.251,26.62\H,0,47.4
 615,39.5489,25.764\C,0,47.4571,39.7929,27.9127\H,0,48.073,39.4431,28.7
 478\C,0,47.4588,41.3186,27.9216\H,0,48.4637,41.707,27.7701\H,0,46.8228
 ,41.6981,27.1278\H,0,47.0858,41.6948,28.8721\C,0,46.0422,39.2505,28.09
 9\H,0,45.57,39.6969,28.9717\H,0,46.0711,38.1732,28.2391\H,0,45.4304,39
 .4713,27.2259\H,0,49.0759,39.6251,26.4801\H,0,36.2693,46.0993,32.6087\
 C,0,37.164,46.712,32.465\H,0,37.7711,46.6681,33.3669\C,0,37.9707,46.16
 16,31.2833\H,0,37.5982,46.5689,30.3423\H,0,37.8753,45.0723,31.2356\C,0
 ,39.4949,46.4461,31.3781\O,0,39.9639,46.6289,32.5264\O,0,40.1381,46.41
 71,30.3232\C,0,36.6831,48.1142,32.1447\O,0,35.9329,48.3336,31.2039\N,0
 ,37.0911,49.1284,32.9336\C,0,36.6898,50.4916,32.621\H,0,37.1775,50.811
 ,31.6929\H,0,35.6091,50.5339,32.4624\C,0,37.1657,51.3137,33.814\H,0,37
 .4005,52.3403,33.5395\H,0,36.4017,51.3255,34.5936\C,0,38.3884,50.532,3
 4.2889\H,0,38.6626,50.7485,35.3198\H,0,39.2451,50.7475,33.6495\C,0,37.
 95,49.082,34.098\H,0,38.8022,48.4205,33.9337\H,0,37.3857,48.7265,34.97
 15\H,0,39.6899,42.6299,23.3082\C,0,40.763,42.802,23.272\H,0,41.0468,43
 .3605,24.1617\C,0,41.5124,41.4701,23.2222\H,0,41.2383,40.9381,22.3081\
 H,0,42.587,41.6639,23.1945\C,0,41.178,40.6267,24.4215\C,0,40.0904,39.7
 629,24.4009\H,0,39.4988,39.6723,23.5001\C,0,39.7507,39.017,25.5109\H,0
 ,38.9033,38.3493,25.4956\C,0,40.5046,39.1147,26.6789\O,0,40.1414,38.37
 22,27.7469\H,0,40.7268,38.5718,28.5046\C,0,41.6032,39.9686,26.7018\H,0
 ,42.2088,40.0297,27.5943\C,0,41.9224,40.7212,25.5886\H,0,42.7683,41.39
 16,25.6287\H,0,40.9878,43.4014,22.3895\H,0,40.0268,47.819,20.5913\C,0,
 40.928,47.267,20.313\H,0,40.7021,46.2005,20.3523\C,0,41.3835,47.6894,1
 8.9199\H,0,42.1685,47.0145,18.5724\H,0,41.8183,48.6877,19.\C,0,40.2295
 ,47.6847,17.9157\H,0,39.8109,46.6808,17.8345\H,0,39.4443,48.368,18.246
 1\C,0,40.7153,48.1059,16.5397\O,0,40.8192,47.3504,15.6006\N,0,41.0212,
 49.4216,16.4475\H,0,41.0029,50.028,17.2475\H,0,41.4158,49.7694,15.5898
 \C,0,42.0057,47.6384,21.3556\O,0,42.6832,48.6351,21.2348\N,0,42.155,46
 .796,22.4183\H,0,41.5188,46.0213,22.5267\C,0,43.019,47.115,23.555\H,0,
 42.5804,46.7195,24.4724\H,0,43.0922,48.2032,23.6335\C,0,44.4665,46.591
 5,23.4548\O,0,45.3376,47.0951,24.1378\N,0,44.6864,45.5563,22.6263\H,0,
 43.9203,45.203,22.074\C,0,45.983,44.912,22.455\H,0,46.6844,45.4506,23.
 0914\C,0,45.938,43.4309,22.8185\H,0,45.2993,42.9046,22.1031\H,0,46.949
 1,43.0324,22.7132\C,0,45.4314,43.1441,24.2373\H,0,44.3865,43.4695,24.3
 077\C,0,45.4956,41.6385,24.4868\H,0,45.1087,41.3927,25.4723\H,0,44.914
 4,41.0902,23.7475\H,0,46.527,41.2962,24.4299\C,0,46.2393,43.8928,25.29
 31\H,0,47.2929,43.6314,25.2238\H,0,46.1364,44.9675,25.1797\H,0,45.8872
 ,43.6321,26.2881\H,0,46.2991,45.026,21.4124\H,0,51.5926,46.0455,23.702
 3\C,0,51.26,46.169,24.731\H,0,51.6291,47.1238,25.0993\C,0,49.7335,46.1
 234,24.8137\H,0,49.3972,45.1487,24.44\C,0,49.267,46.2715,26.259\H,0,49
 .6738,45.4764,26.8802\H,0,49.5908,47.2271,26.6651\H,0,48.1818,46.2272,
 26.3109\C,0,49.1112,47.2144,23.9452\H,0,49.4726,48.1932,24.2535\H,0,49
 .3698,47.0703,22.8978\H,0,48.0275,47.2127,24.0399\H,0,51.6998,45.376,2
 5.3322\H,0,53.0402,42.2786,29.6202\C,0,52.152,42.334,30.246\H,0,52.134
 1,43.3107,30.7248\C,0,50.8957,42.1201,29.4162\H,0,50.0084,42.174,30.04
 33\H,0,50.9143,41.1437,28.9367\H,0,50.8157,42.8806,28.6417\H,0,52.2293
 ,41.5753,31.0219\H,0,45.4672,38.1282,40.432\C,0,46.435,38.561,40.187\H
 ,0,47.1716,38.1767,40.8885\C,0,46.8298,38.2139,38.7568\H,0,46.9064,37.
 1305,38.6438\H,0,47.8088,38.64,38.5275\C,0,45.812,38.7467,37.7634\H,0,
 45.7399,39.8344,37.8292\H,0,44.8274,38.3097,37.9425\S,0,46.3007,38.333
 9,36.0512\C,0,44.9329,39.1545,35.1939\H,0,44.0125,38.5984,35.3538\H,0,
 44.8381,40.1711,35.5602\H,0,45.1782,39.1751,34.1394\H,0,46.3689,39.639
 6,40.3134\H,0,49.3323,43.1452,37.6048\C,0,50.213,42.685,37.162\H,0,50.
 869,42.3467,37.9614\C,0,49.805,41.5117,36.2667\H,0,50.7044,41.0587,35.
 8412\H,0,49.2983,40.755,36.8696\C,0,48.8935,41.9668,35.1602\C,0,49.416
 1,42.5137,33.9953\H,0,50.4887,42.5919,33.8762\C,0,48.5791,42.9587,32.9
 879\H,0,49.0026,43.3865,32.0909\C,0,47.2058,42.8598,33.1302\H,0,46.551
 6,43.2058,32.3432\C,0,46.672,42.3158,34.2859\H,0,45.6014,42.2364,34.40
 15\C,0,47.514,41.8779,35.2932\H,0,47.099,41.4578,36.1982\H,0,50.7345,4
 3.4412,36.5794\H,0,50.2875,46.3893,32.2915\C,0,50.84,46.417,31.354\H,0
 ,51.2949,45.4411,31.1965\C,0,49.9058,46.7683,30.1984\H,0,50.4905,46.77
 9,29.2712\C,0,48.7978,45.7272,30.0616\H,0,48.2095,45.679,30.9763\H,0,4
 9.2155,44.7421,29.8656\H,0,48.1339,45.9832,29.2384\C,0,49.3053,48.1539
 ,30.4092\H,0,48.708,48.1674,31.3192\H,0,48.6603,48.42,29.5743\H,0,50.0
 909,48.9011,30.496\H,0,51.6332,47.1561,31.4419\H,0,53.026,50.9218,26.9
 796\C,0,52.401,50.618,26.143\H,0,52.971,49.9419,25.5097\C,0,51.1398,49
 .9339,26.6565\H,0,51.414,49.0348,27.2129\H,0,50.5131,49.6361,25.8117\C
 ,0,50.314,50.8368,27.5576\H,0,50.1089,51.7922,27.0718\H,0,49.37,50.359
 9,27.8234\S,0,51.1946,51.1935,29.1222\C,0,49.8647,52.0759,29.9804\H,0,
 49.5716,52.9466,29.4005\H,0,49.0171,51.4111,30.1234\H,0,50.2612,52.386
 2,30.9412\H,0,52.1455,51.5022,25.5626\H,0,50.3369,51.2422,33.3992\C,0,
 49.755,50.767,34.187\H,0,49.7705,51.4206,35.0558\C,0,48.3322,50.5048,3
 3.7107\H,0,48.3759,49.9461,32.7732\H,0,47.8318,51.4528,33.4996\C,0,47.
 4904,49.7118,34.7149\H,0,48.0482,48.8091,34.9929\C,0,47.2157,50.5176,3
 5.9818\H,0,48.1402,50.8104,36.4738\H,0,46.6514,51.4165,35.7407\H,0,46.
 6352,49.9236,36.6835\C,0,46.1743,49.2892,34.0678\H,0,46.3581,48.6402,3
 3.2143\H,0,45.6169,50.1588,33.7254\H,0,45.5519,48.75,34.7747\H,0,50.24
 45,49.8317,34.4507\H,0,47.102,46.9692,36.8281\C,0,46.253,46.438,37.253
 \H,0,45.4199,47.133,37.3337\C,0,45.8657,45.2506,36.3732\H,0,46.7174,44
 .5617,36.3184\C,0,44.6743,44.5036,36.9672\H,0,44.3865,43.6758,36.3233\
 H,0,44.9162,44.1104,37.9536\H,0,43.8219,45.1735,37.0667\C,0,45.5391,45
 .72,34.9596\H,0,45.2702,44.8722,34.3355\H,0,46.3982,46.2146,34.5125\H,
 0,44.7068,46.4211,34.9738\H,0,46.5199,46.1071,38.2553\H,0,43.2454,40.6
 4,37.6048\C,0,42.317,41.201,37.522\H,0,42.5643,42.2556,37.434\C,0,41.5
 222,40.7528,36.3077\H,0,41.3154,39.6813,36.336\H,0,40.5585,41.2691,36.
 2694\C,0,42.2139,41.0638,34.9988\O,0,43.1697,41.7932,34.8766\O,0,41.63
 46,40.4337,33.9965\H,0,41.9647,40.724,33.0953\H,0,41.7385,41.0499,38.4
 303\H,0,35.4923,38.6722,34.8022\C,0,36.5,39.053,34.953\H,0,37.0622,38.
 3269,35.5366\C,0,37.1877,39.3075,33.6176\H,0,37.29,38.3688,33.0664\H,0
 ,36.5771,39.9836,33.0145\C,0,38.5698,39.9108,33.8137\H,0,39.1398,39.33
 72,34.5428\H,0,39.1343,39.9477,32.8841\S,0,38.5006,41.6191,34.4569\C,0
 ,38.5706,42.5427,32.9005\H,0,37.6902,42.3226,32.3023\H,0,39.4766,42.27
 ,32.3662\H,0,38.5999,43.597,33.1542\H,0,36.4429,39.9794,35.5203\H,0,38
 .9779,44.294,35.7007\C,0,39.963,44.652,35.992\H,0,40.287,44.073,36.856
 1\C,0,40.9444,44.5078,34.8427\H,0,41.9478,44.7891,35.1553\H,0,40.6479,
 45.1381,34.0084\H,0,40.974,43.4756,34.5061\H,0,39.8719,45.6946,36.2924
 \H,0,41.7385,49.3712,37.9282\C,0,42.518,50.112,37.763\H,0,43.0426,50.2
 81,38.7023\C,0,43.4841,49.6323,36.6809\H,0,44.2672,50.3788,36.5422\H,0
 ,43.9532,48.7036,37.018\C,0,42.789,49.3961,35.3793\C,0,42.0861,48.2788
 ,35.0157\H,0,41.9207,47.3758,35.5723\N,0,41.5675,48.4194,33.7668\H,0,4
 0.9901,47.7287,33.2708\C,0,41.9253,49.6358,33.2847\C,0,41.648,50.2262,
 32.0567\H,0,41.0646,49.6998,31.3159\C,0,42.1443,51.4905,31.8299\H,0,41
 .9496,51.9832,30.8873\C,0,42.8992,52.1587,32.8008\H,0,43.2649,53.1527,
 32.5838\C,0,43.1815,51.5791,34.0167\H,0,43.7652,52.1094,34.7571\C,0,42
 .6968,50.2968,34.2779\H,0,42.0439,51.0427,37.4574\H,0,49.5456,54.9435,
 36.1731\C,0,49.23,55.22,35.169\H,0,50.0175,54.9307,34.4781\C,0,47.9145
 ,54.5329,34.8226\H,0,47.187,54.7537,35.6081\H,0,48.0662,53.4525,34.807
 9\C,0,47.3261,54.9741,33.4782\H,0,47.2396,56.0678,33.4822\C,0,48.2145,
 54.5613,32.3071\H,0,48.3583,53.4833,32.3062\H,0,47.7494,54.842,31.3645
 \H,0,49.1878,55.0423,32.3599\C,0,45.9309,54.3788,33.2999\H,0,45.9779,5
 3.2921,33.2841\H,0,45.2733,54.6812,34.1122\H,0,45.4915,54.7114,32.362\
 H,0,49.1184,56.3021,35.132\C,0,42.169,42.2895,31.0459\O,0,42.0898,41.1
 283,31.5006\C,0,42.6459,43.3921,31.7986\C,0,42.8087,44.6281,31.256\C,0
 ,42.7115,44.881,29.7915\C,0,42.6369,43.5783,28.9924\C,0,41.6774,42.605
 4,29.6624\C,0,42.9819,45.8199,32.107\C,0,44.02,46.819,31.6041\C,0,43.8
 391,47.108,30.1163\C,0,43.8821,45.7799,29.3405\C,0,44.9542,48.0112,29.
 6003\C,0,44.8783,48.2647,28.0883\C,0,44.9975,46.9243,27.374\C,0,43.870
 9,45.9946,27.8234\C,0,45.1116,49.4188,30.1767\C,0,46.0104,50.1313,29.1
 462\C,0,46.0898,49.2041,27.9146\C,0,43.6122,49.0015,27.643\O,0,46.1074
 ,49.9614,26.7293\H,0,42.8283,43.2351,32.8531\H,0,41.7714,45.4479,29.66
 23\H,0,43.6315,43.1233,28.9344\H,0,42.2882,43.7731,27.9783\H,0,40.6983
 ,43.0859,29.7611\H,0,41.5507,41.693,29.0774\H,0,43.1868,45.5398,33.139
 3\H,0,41.9883,46.2993,32.0858\H,0,45.0208,46.4097,31.7748\H,0,43.9358,
 47.7432,32.1765\H,0,42.8632,47.5766,29.9725\H,0,44.8215,45.269,29.5962
 \H,0,45.8992,47.4799,29.7812\H,0,45.9573,46.4632,27.628\H,0,44.9693,47
 .0548,26.2911\H,0,42.9051,46.4038,27.5264\H,0,43.9984,45.0365,27.317\H
 ,0,45.5682,49.4108,31.164\H,0,44.1414,49.9053,30.267\H,0,47.0044,50.31
 94,29.5512\H,0,45.5977,51.0892,28.8335\H,0,47.0111,48.5951,27.961\H,0,
 42.7174,48.5419,28.0487\H,0,43.6379,50.0385,27.9613\H,0,43.5463,48.987
 5,26.5561\H,0,45.9897,49.3541,25.9888\\Version=ES64L-G16RevC.01\State=
 1-A\HF=-7322.2427822\RMSD=3.728e-09\Dipole=4.1662483,-1.8130417,-0.042
 3086\Quadrupole=-27.1451444,8.9942169,18.1509275,-8.7433557,16.9490393
 ,-30.9008934\PG=C01 [X(C123H225N6O13S3)]\\@
 The archive entry for this job was punched.


 IF YOU BELIEVE CERTAIN WORDS, YOU BELIEVE THEIR HIDDEN ARGUMENTS.
 WHEN YOU BELIEVE SOMETHING IS RIGHT OR WRONG, TRUE OR FALSE, 
 YOU BELIEVE THE ASSUMPTIONS IN THE WORDS WHICH EXPRESS THE ARGUMENTS.
 SUCH ASSUMPTIONS ARE OFTEN FULL OF HOLES, BUT REMAIN MOST PRECIOUS 
 TO THE CONVINCED.

                 -- THE OPEN-ENDED PROOF FROM THE PANOPLIA PROPHETICA
                    CHILDREN OF DUNE BY FRANK HERBERT
 Job cpu time:       0 days  5 hours 24 minutes 16.0 seconds.
 Elapsed time:       0 days  0 hours 10 minutes 33.7 seconds.
 File lengths (MBytes):  RWF=   3730 Int=      0 D2E=      0 Chk=    400 Scr=      1
 Normal termination of Gaussian 16 at Thu Jul 11 12:01:57 2024.
