 Entering Gaussian System, Link 0=g16
 Initial command:
 /cm/shared/apps/spack/cpu/opt/spack/linux-centos8-zen/gcc-8.3.1/gaussian-16.C.01-po5bqktfeugvmjyga3v7eigbecnokxng/g16/l1.exe "/scratch/hklem/job_32994901/Gau-2643844.inp" -scrdir="/scratch/hklem/job_32994901/"
 Entering Link 1 = /cm/shared/apps/spack/cpu/opt/spack/linux-centos8-zen/gcc-8.3.1/gaussian-16.C.01-po5bqktfeugvmjyga3v7eigbecnokxng/g16/l1.exe PID=   2643845.
  
 Copyright (c) 1988-2019, Gaussian, Inc.  All Rights Reserved.
  
 This is part of the Gaussian(R) 16 program.  It is based on
 the Gaussian(R) 09 system (copyright 2009, Gaussian, Inc.),
 the Gaussian(R) 03 system (copyright 2003, Gaussian, Inc.),
 the Gaussian(R) 98 system (copyright 1998, Gaussian, Inc.),
 the Gaussian(R) 94 system (copyright 1995, Gaussian, Inc.),
 the Gaussian 92(TM) system (copyright 1992, Gaussian, Inc.),
 the Gaussian 90(TM) system (copyright 1990, Gaussian, Inc.),
 the Gaussian 88(TM) system (copyright 1988, Gaussian, Inc.),
 the Gaussian 86(TM) system (copyright 1986, Carnegie Mellon
 University), and the Gaussian 82(TM) system (copyright 1983,
 Carnegie Mellon University). Gaussian is a federally registered
 trademark of Gaussian, Inc.
  
 This software contains proprietary and confidential information,
 including trade secrets, belonging to Gaussian, Inc.
  
 This software is provided under written license and may be
 used, copied, transmitted, or stored only in accord with that
 written license.
  
 The following legend is applicable only to US Government
 contracts under FAR:
  
                    RESTRICTED RIGHTS LEGEND
  
 Use, reproduction and disclosure by the US Government is
 subject to restrictions as set forth in subparagraphs (a)
 and (c) of the Commercial Computer Software - Restricted
 Rights clause in FAR 52.227-19.
  
 Gaussian, Inc.
 340 Quinnipiac St., Bldg. 40, Wallingford CT 06492
  
  
 ---------------------------------------------------------------
 Warning -- This program may not be used in any manner that
 competes with the business of Gaussian, Inc. or will provide
 assistance to any competitor of Gaussian, Inc.  The licensee
 of this program is prohibited from giving any competitor of
 Gaussian, Inc. access to this program.  By using this program,
 the user acknowledges that Gaussian, Inc. is engaged in the
 business of creating and licensing software in the field of
 computational chemistry and represents and warrants to the
 licensee that it is not a competitor of Gaussian, Inc. and that
 it will not use this program in any manner prohibited above.
 ---------------------------------------------------------------
  

 Cite this work as:
 Gaussian 16, Revision C.01,
 M. J. Frisch, G. W. Trucks, H. B. Schlegel, G. E. Scuseria, 
 M. A. Robb, J. R. Cheeseman, G. Scalmani, V. Barone, 
 G. A. Petersson, H. Nakatsuji, X. Li, M. Caricato, A. V. Marenich, 
 J. Bloino, B. G. Janesko, R. Gomperts, B. Mennucci, H. P. Hratchian, 
 J. V. Ortiz, A. F. Izmaylov, J. L. Sonnenberg, D. Williams-Young, 
 F. Ding, F. Lipparini, F. Egidi, J. Goings, B. Peng, A. Petrone, 
 T. Henderson, D. Ranasinghe, V. G. Zakrzewski, J. Gao, N. Rega, 
 G. Zheng, W. Liang, M. Hada, M. Ehara, K. Toyota, R. Fukuda, 
 J. Hasegawa, M. Ishida, T. Nakajima, Y. Honda, O. Kitao, H. Nakai, 
 T. Vreven, K. Throssell, J. A. Montgomery, Jr., J. E. Peralta, 
 F. Ogliaro, M. J. Bearpark, J. J. Heyd, E. N. Brothers, K. N. Kudin, 
 V. N. Staroverov, T. A. Keith, R. Kobayashi, J. Normand, 
 K. Raghavachari, A. P. Rendell, J. C. Burant, S. S. Iyengar, 
 J. Tomasi, M. Cossi, J. M. Millam, M. Klene, C. Adamo, R. Cammi, 
 J. W. Ochterski, R. L. Martin, K. Morokuma, O. Farkas, 
 J. B. Foresman, and D. J. Fox, Gaussian, Inc., Wallingford CT, 2019.
 
 ******************************************
 Gaussian 16:  ES64L-G16RevC.01  3-Jul-2019
                12-Aug-2024 
 ******************************************
 %nprocshared=24
 Will use up to   24 processors via shared memory.
 %mem=48GB
 --------------------------
 # wb97xd 6-31G(d) prop=efg
 --------------------------
 1/38=1,172=1/1;
 2/12=2,17=6,18=5,40=1/2;
 3/5=1,6=6,7=1,11=2,25=1,30=1,74=-58/1,2,3;
 4//1;
 5/5=2,38=5/2;
 6/7=2,8=2,9=2,10=2,14=1,28=1/1,2;
 99/5=1,9=1/99;
 ----------------------------------------------
 19nt_mm_min_distance_cutoff4_xtb_ligand_conf_1
 ----------------------------------------------
 Symbolic Z-matrix:
 Charge =  0 Multiplicity = 1
 C                     42.8379   42.2487   31.1247 
 O                     42.4802   41.1942   31.6838 
 C                     43.0316   43.4741   31.8183 
 C                     43.3183   44.6407   31.1837 
 C                     43.6536   44.6848   29.727 
 C                     44.0508   43.2978   29.2217 
 C                     42.9977   42.2843   29.6342 
 C                     43.1669   45.927    31.8957 
 C                     44.15     47.0164   31.4809 
 C                     44.2581   47.1119   29.9617 
 C                     44.7213   45.7516   29.4146 
 C                     45.2593   48.1797   29.5435 
 C                     45.4588   48.2615   28.0225 
 C                     45.9941   46.9211   27.5343 
 C                     45.0288   45.7961   27.912 
 C                     44.9952   49.6329   29.9427 
 C                     45.9092   50.439    29.0009 
 C                     46.4663   49.4276   27.9659 
 C                     44.199    48.6321   27.2343 
 O                     46.6939   49.9916   26.7013 
 H                     42.8399   43.4695   32.8825 
 H                     42.7246   44.9854   29.2161 
 H                     45.0219   43.016    29.6399 
 H                     44.1296   43.2942   28.1353 
 H                     42.0307   42.5913   29.2235 
 H                     43.2302   41.2885   29.2514 
 H                     43.1956   45.7779   32.9752 
 H                     42.146    46.2729   31.6534 
 H                     45.1336   46.7908   31.902 
 H                     43.8239   47.9695   31.8979 
 H                     43.2715   47.3494   29.5579 
 H                     45.6453   45.4764   29.9409 
 H                     46.2309   47.8943   29.9688 
 H                     46.9706   46.7331   27.9888 
 H                     46.1235   46.9408   26.451 
 H                     44.0988   45.9038   27.3537 
 H                     45.4849   44.8526   27.6109 
 H                     45.2232   49.8231   30.9895 
 H                     43.9468   49.8831   29.7864 
 H                     46.7168   50.9276   29.5475 
 H                     45.3557   51.2208   28.4783 
 H                     47.4465   49.0583   28.2879 
 H                     43.8879   49.6557   27.4235 
 H                     44.3966   48.517    26.17 
 H                     43.3716   47.9777   27.484 
 H                     45.8313   50.2024   26.3122 
 
                          Input orientation:                          
 ---------------------------------------------------------------------
 Center     Atomic      Atomic             Coordinates (Angstroms)
 Number     Number       Type             X           Y           Z
 ---------------------------------------------------------------------
      1          6           0       42.837900   42.248700   31.124700
      2          8           0       42.480200   41.194200   31.683800
      3          6           0       43.031600   43.474100   31.818300
      4          6           0       43.318300   44.640700   31.183700
      5          6           0       43.653600   44.684800   29.727000
      6          6           0       44.050800   43.297800   29.221700
      7          6           0       42.997700   42.284300   29.634200
      8          6           0       43.166900   45.927000   31.895700
      9          6           0       44.150000   47.016400   31.480900
     10          6           0       44.258100   47.111900   29.961700
     11          6           0       44.721300   45.751600   29.414600
     12          6           0       45.259300   48.179700   29.543500
     13          6           0       45.458800   48.261500   28.022500
     14          6           0       45.994100   46.921100   27.534300
     15          6           0       45.028800   45.796100   27.912000
     16          6           0       44.995200   49.632900   29.942700
     17          6           0       45.909200   50.439000   29.000900
     18          6           0       46.466300   49.427600   27.965900
     19          6           0       44.199000   48.632100   27.234300
     20          8           0       46.693900   49.991600   26.701300
     21          1           0       42.839900   43.469500   32.882500
     22          1           0       42.724600   44.985400   29.216100
     23          1           0       45.021900   43.016000   29.639900
     24          1           0       44.129600   43.294200   28.135300
     25          1           0       42.030700   42.591300   29.223500
     26          1           0       43.230200   41.288500   29.251400
     27          1           0       43.195600   45.777900   32.975200
     28          1           0       42.146000   46.272900   31.653400
     29          1           0       45.133600   46.790800   31.902000
     30          1           0       43.823900   47.969500   31.897900
     31          1           0       43.271500   47.349400   29.557900
     32          1           0       45.645300   45.476400   29.940900
     33          1           0       46.230900   47.894300   29.968800
     34          1           0       46.970600   46.733100   27.988800
     35          1           0       46.123500   46.940800   26.451000
     36          1           0       44.098800   45.903800   27.353700
     37          1           0       45.484900   44.852600   27.610900
     38          1           0       45.223200   49.823100   30.989500
     39          1           0       43.946800   49.883100   29.786400
     40          1           0       46.716800   50.927600   29.547500
     41          1           0       45.355700   51.220800   28.478300
     42          1           0       47.446500   49.058300   28.287900
     43          1           0       43.887900   49.655700   27.423500
     44          1           0       44.396600   48.517000   26.170000
     45          1           0       43.371600   47.977700   27.484000
     46          1           0       45.831300   50.202400   26.312200
 ---------------------------------------------------------------------
                    Distance matrix (angstroms):
                    1          2          3          4          5
     1  C    0.000000
     2  O    1.245999   0.000000
     3  C    1.421339   2.349484   0.000000
     4  C    2.440477   3.582021   1.358628   0.000000
     5  C    2.924639   4.170159   2.495238   1.495442   0.000000
     6  C    2.488603   3.599146   2.795028   2.487847   1.528681
     7  C    1.499464   2.378442   2.487381   2.838372   2.490224
     8  C    3.772608   4.787051   2.457848   1.477983   2.546212
     9  C    4.957766   6.060315   3.729953   2.534562   2.959550
    10  C    5.198101   6.414494   4.264370   2.912617   2.512234
    11  C    4.329197   5.562526   3.717508   2.516391   1.541311
    12  C    6.598495   7.816744   5.681552   4.356863   3.850490
    13  C    7.255793   8.498465   6.574085   5.261665   4.353947
    14  C    6.684601   7.897039   6.245868   5.067371   3.909848
    15  C    5.263604   6.472968   4.963836   3.868434   2.533848
    16  C    7.783153   8.975985   6.730856   5.410558   5.131287
    17  C    9.001357  10.218724   8.045381   6.715479   6.223003
    18  C    8.641754   9.874242   7.879233   6.571039   5.788515
    19  C    7.598395   8.835988   6.998631   5.683719   4.700233
    20  O    9.715333  10.953302   9.059467   7.753626   6.823519
    21  H    2.140144   2.596778   1.081338   2.118135   3.477965
    22  H    3.338430   4.530174   3.024851   2.083926   1.102007
    23  H    2.750134   3.735870   2.986064   2.815177   2.159797
    24  H    3.420244   4.440988   3.847396   3.429871   2.166530
    25  H    2.093683   2.864789   2.917897   3.114537   2.696305
    26  H    2.141293   2.547148   3.377168   3.870244   3.455476
    27  H    4.000944   4.815581   2.583178   2.125500   3.457663
    28  H    4.117333   5.089775   2.940197   2.063730   2.916494
    29  H    5.148311   6.197586   3.927583   2.904169   3.369905
    30  H    5.856414   6.910576   4.565380   3.441892   3.940947
    31  H    5.353505   6.559885   4.492762   3.159505   2.697163
    32  H    4.438572   5.602927   3.790154   2.767287   2.153892
    33  H    6.687403   7.867675   5.761453   4.532674   4.123328
    34  H    6.857326   8.030948   6.387634   5.284394   4.268414
    35  H    7.392864   8.583661   7.098293   5.963058   4.682106
    36  H    5.400932   6.599240   5.193747   4.107737   2.704943
    37  H    5.112113   6.245048   5.061735   4.183773   2.803515
    38  H    7.942259   9.080970   6.767557   5.524819   5.519029
    39  H    7.829736   9.013769   6.785388   5.461705   5.206901
    40  H    9.636220  10.828279   8.619275   7.331580   6.956146
    41  H    9.687173  10.912215   8.750337   7.400534   6.868456
    42  H    8.698119   9.901532   7.945965   6.703945   5.965283
    43  H    8.346558   9.577513   7.632804   6.293947   5.483690
    44  H    8.140650   9.364720   7.693982   6.428501   5.281104
    45  H    6.808889   8.028000   6.259726   4.982589   3.994216
    46  H    9.766368  11.010523   9.133755   7.808917   6.844498
                    6          7          8          9         10
     6  C    0.000000
     7  C    1.518670   0.000000
     8  C    3.852823   4.290953   0.000000
     9  C    4.352219   5.208730   1.524906   0.000000
    10  C    3.890750   5.000159   2.516955   1.526032   0.000000
    11  C    2.551062   3.878297   2.933050   2.489116   1.537624
    12  C    5.039541   6.314967   3.871129   2.517406   1.522330
    13  C    5.297062   6.661945   5.069948   3.901764   2.554165
    14  C    4.444326   5.906599   5.291796   4.357228   2.990380
    15  C    2.985515   4.407276   4.399281   3.872786   2.554717
    16  C    6.445558   7.621489   4.570622   3.150634   2.626617
    17  C    7.382353   8.681995   6.021480   4.578141   3.836517
    18  C    6.707169   8.114256   6.211567   4.851222   3.771184
    19  C    5.694425   6.891822   5.487390   4.543842   3.123013
    20  O    7.625310   9.036939   7.479471   6.178011   4.985579
    21  H    3.859691   3.461366   2.668335   4.032536   4.879492
    22  H    2.146353   2.746877   2.874456   3.359471   2.725719
    23  H    1.094229   2.152395   4.123540   4.489175   4.178916
    24  H    1.089260   2.132556   4.690313   5.004821   4.234039
    25  H    2.140082   1.094538   4.422499   5.400814   5.093336
    26  H    2.170611   1.091884   5.339664   6.214945   5.955929
    27  H    4.579413   4.838046   1.090126   2.162798   3.462607
    28  H    4.288665   4.550988   1.104804   2.144426   2.833150
    29  H    4.534039   5.478460   2.148045   1.093476   2.152759
    30  H    5.388721   6.174823   2.145568   1.090243   2.161684
    31  H    4.139541   5.073069   2.738516   2.140229   1.092172
    32  H    2.793918   4.158528   3.188534   2.641803   2.144672
    33  H    5.141868   6.483644   4.119625   2.717959   2.122296
    34  H    4.674030   6.187334   5.511969   4.497867   3.375423
    35  H    5.024372   6.448750   6.278060   5.403731   3.979197
    36  H    3.206706   4.417452   4.636673   4.274843   2.878636
    37  H    2.658707   4.108050   4.988684   4.630431   3.483638
    38  H    6.861427   7.976415   4.497684   3.044798   3.055879
    39  H    6.610286   7.659355   4.550617   3.336254   2.794134
    40  H    8.088730   9.409881   6.566722   5.062014   4.558106
    41  H    8.064077   9.314360   6.670366   5.305309   4.504249
    42  H    6.751749   8.215316   6.413754   5.023098   4.093406
    43  H    6.609308   7.747076   5.867164   4.847380   3.612537
    44  H    6.055782   7.266647   6.403429   5.524334   4.046045
    45  H    5.038093   6.097374   4.869329   4.183923   2.770287
    46  H    7.701225   9.042194   7.520209   6.300224   5.034382
                   11         12         13         14         15
    11  C    0.000000
    12  C    2.490327   0.000000
    13  C    2.963351   1.536207   0.000000
    14  C    2.554071   2.482114   1.523666   0.000000
    15  C    1.534387   2.897667   2.505056   1.529734   0.000000
    16  C    3.926627   1.530000   2.404752   3.761921   4.341187
    17  C    4.853244   2.412721   2.429328   3.812315   4.849467
    18  C    4.319344   2.345831   1.542092   2.586850   3.906034
    19  C    3.650176   2.580951   1.531568   2.497980   3.031624
    20  O    5.406547   3.663217   2.502856   3.257542   4.673390
    21  H    4.557848   6.260064   7.310369   7.103926   5.908487
    22  H    2.147854   4.090898   4.430955   4.155119   2.768980
    23  H    2.761273   5.170053   5.506554   4.541864   3.273323
    24  H    2.832937   5.208393   5.143303   4.122131   2.667944
    25  H    4.154918   6.461925   6.733902   6.108118   4.580325
    26  H    4.708426   7.189660   7.422909   6.504903   5.034621
    27  H    3.873800   4.669482   5.984946   6.224299   5.384881
    28  H    3.451978   4.216658   5.302132   5.674066   4.747204
    29  H    2.727102   2.739957   4.161638   4.453565   4.113455
    30  H    3.448360   2.765458   4.216265   4.984969   4.697111
    31  H    2.162272   2.154287   2.823767   3.419203   2.865280
    32  H    1.098409   2.759484   3.387008   2.828523   2.144462
    33  H    2.679028   1.098335   2.125808   2.632486   3.174573
    34  H    2.838239   2.727323   2.150042   1.093374   2.157418
    35  H    3.487590   3.441696   2.157704   1.091179   2.154815
    36  H    2.158235   3.364774   2.802792   2.158629   1.090045
    37  H    2.155138   3.854275   3.433758   2.131630   1.090358
    38  H    4.394238   2.189288   3.361129   4.577586   5.072034
    39  H    4.219879   2.164077   2.833209   4.246980   4.624680
    40  H    5.548933   3.110511   3.319078   4.541730   5.644156
    41  H    5.584914   3.223699   2.995971   4.448158   5.463966
    42  H    4.430624   2.670639   2.157841   2.691654   4.077809
    43  H    4.461057   2.924673   2.184107   3.453461   4.054232
    44  H    4.275546   3.498360   2.150652   2.638222   3.292042
    45  H    3.241053   2.801028   2.174150   2.827798   2.772882
    46  H    5.537744   3.854841   2.613613   3.505276   4.755927
                   16         17         18         19         20
    16  C    0.000000
    17  C    1.540188   0.000000
    18  C    2.472655   1.550650   0.000000
    19  C    2.995157   3.051319   2.511714   0.000000
    20  O    3.677081   2.470644   1.403250   2.890823   0.000000
    21  H    7.160673   8.547593   8.533621   7.771857   9.777440
    22  H    5.223297   6.318998   5.941082   4.404521   6.865974
    23  H    6.623878   7.503103   6.782122   6.164792   7.751771
    24  H    6.647938   7.413798   6.565627   5.413852   7.313491
    25  H    7.673959   8.756638   8.245672   6.719353   9.103371
    26  H    8.556993   9.537895   8.852672   7.676961   9.707944
    27  H    5.224523   6.699592   7.007915   6.489314   8.327976
    28  H    4.725890   6.209172   6.497290   5.413786   7.683451
    29  H    3.454786   4.725177   4.921553   5.104046   6.302931
    30  H    2.821640   4.340451   4.956708   4.725347   6.271399
    31  H    2.886795   4.100407   4.130391   2.811528   5.182104
    32  H    4.207033   5.057731   4.492955   4.401808   5.655228
    33  H    2.133159   2.741499   2.533383   3.485751   3.910191
    34  H    4.016064   3.985550   2.741382   3.443434   3.514547
    35  H    4.551091   4.334203   2.931997   2.679133   3.113742
    36  H    4.627379   5.153528   4.289174   2.732749   4.885722
    37  H    5.341195   5.772347   4.692526   4.009986   5.357086
    38  H    1.088095   2.191908   3.293004   4.070503   4.536520
    39  H    1.089115   2.185646   3.141589   2.853388   4.132333
    40  H    2.190054   1.090743   2.194131   4.118195   2.996243
    41  H    2.189944   1.091185   2.170611   3.096265   2.541543
    42  H    3.012872   2.185862   1.095837   3.440636   1.988657
    43  H    2.751909   2.680933   2.644688   1.086433   2.916854
    44  H    3.979550   3.741128   2.887578   1.088590   2.781063
    45  H    3.379493   3.846868   3.451319   1.084057   3.963091
    46  H    3.768809   2.700214   1.933459   2.445509   0.969492
                   21         22         23         24         25
    21  H    0.000000
    22  H    3.969098   0.000000
    23  H    3.934621   3.055443   0.000000
    24  H    4.922394   2.449961   1.771275   0.000000
    25  H    3.848938   2.492643   3.049760   2.466501   0.000000
    26  H    4.253702   3.731481   2.519003   2.465245   1.771120
    27  H    2.337483   3.870495   4.699754   5.519579   5.058326
    28  H    3.138668   2.816534   4.788777   5.018401   4.412696
    29  H    4.153730   4.034453   4.402123   5.236626   5.868403
    30  H    4.710381   4.159972   5.574130   6.009080   6.268414
    31  H    5.127657   2.450392   4.674289   4.382325   4.928582
    32  H    4.533313   3.049083   2.555934   3.212403   4.680149
    33  H    6.290261   4.617618   5.036633   5.379415   6.805803
    34  H    7.187633   4.752814   4.510033   4.463046   6.563658
    35  H    8.012250   4.798113   5.175583   4.484439   6.584521
    36  H    6.170760   2.490064   3.797132   2.724309   4.329647
    37  H    6.057950   3.195866   2.775664   2.130832   4.432319
    38  H    7.044984   5.726368   6.942518   7.208950   8.099984
    39  H    7.207311   5.080008   6.952292   6.795083   7.560334
    40  H    9.042999   7.166396   8.091640   8.182708   9.568616
    41  H    9.263308   6.807881   8.293339   8.028198   9.277889
    42  H    8.577051   6.304475   6.649510   6.652064   8.486950
    43  H    8.316733   5.135989   7.091121   6.405760   7.522961
    44  H    8.541559   4.954443   6.533927   5.586710   7.073561
    45  H    7.053395   3.517476   5.655958   4.788938   5.816973
    46  H    9.871639   6.730625   7.960720   7.344570   8.991611
                   26         27         28         29         30
    26  H    0.000000
    27  H    5.832889   0.000000
    28  H    5.638203   1.758932   0.000000
    29  H    6.397180   2.435892   3.042331   0.000000
    30  H    7.210562   2.521596   2.398662   1.762006   0.000000
    31  H    6.068785   3.762089   2.610885   3.045366   2.482996
    32  H    4.883301   3.911382   3.976452   2.415657   3.655529
    33  H    7.290779   4.767666   4.706721   2.481742   3.085568
    34  H    6.725208   6.326707   6.076005   4.323313   5.168314
    35  H    6.939879   7.245007   6.582671   5.542184   6.001258
    36  H    5.065247   5.694988   4.736780   4.748117   4.999244
    37  H    4.525232   5.905319   5.432063   4.721607   5.554490
    38  H    8.934900   4.941438   4.744875   3.167890   2.493805
    39  H    8.641001   5.252182   4.445460   3.930213   2.852263
    40  H   10.254575   7.118103   6.855163   5.016304   4.758530
    41  H   10.186561   7.383312   6.698145   5.603209   4.960950
    42  H    8.892430   7.127549   6.868795   4.853121   5.228845
    43  H    8.589751   6.807201   5.689429   5.460438   4.782010
    44  H    7.943974   7.433426   6.337891   6.031481   5.782437
    45  H    6.920195   5.918055   4.668226   4.902255   4.437021
    46  H    9.739724   8.421323   7.586226   6.585717   6.341572
                   31         32         33         34         35
    31  H    0.000000
    32  H    3.047908   0.000000
    33  H    3.037071   2.487960   0.000000
    34  H    4.065125   2.673277   2.411626   0.000000
    35  H    4.237179   3.814780   3.646315   1.767922   0.000000
    36  H    2.762731   3.044329   3.917485   3.055867   2.447375
    37  H    3.863154   2.417386   3.920223   2.426189   2.472601
    38  H    3.460896   4.491273   2.403655   4.648194   5.451255
    39  H    2.632086   4.725228   3.034091   4.721995   4.951772
    40  H    4.967264   5.569422   3.100726   4.481940   5.082803
    41  H    4.527379   5.934745   3.748755   4.794472   4.797693
    42  H    4.686562   4.336674   2.378656   2.392174   3.099732
    43  H    3.202285   5.185779   3.882104   4.285346   3.648883
    44  H    3.755929   5.002418   4.264187   3.621575   2.354899
    45  H    2.169295   4.178824   3.789035   3.841439   3.116922
    46  H    5.022624   5.961303   4.342549   4.018088   3.277603
                   36         37         38         39         40
    36  H    0.000000
    37  H    1.758535   0.000000
    38  H    5.462987   6.015754   0.000000
    39  H    4.666472   5.692493   1.755063   0.000000
    40  H    6.074969   6.494122   2.351622   2.970009   0.000000
    41  H    5.578083   6.428300   2.877021   2.342129   1.755491
    42  H    4.693687   4.689788   3.581428   3.895343   2.369248
    43  H    3.758471   5.065106   3.811483   2.374548   3.759226
    44  H    2.884206   4.085146   5.061299   3.891902   4.754138
    45  H    2.201558   3.774704   4.372923   3.043427   4.914296
    46  H    4.750183   5.516065   4.731891   3.965269   3.431791
                   41         42         43         44         45
    41  H    0.000000
    42  H    3.013985   0.000000
    43  H    2.390937   3.710486   0.000000
    44  H    3.682208   3.752385   1.768241   0.000000
    45  H    3.929756   4.291708   1.756676   1.751589   0.000000
    46  H    2.440353   2.796646   2.304490   2.217918   3.517461
                   46
    46  H    0.000000
 Stoichiometry    C18H26O2
 Framework group  C1[X(C18H26O2)]
 Deg. of freedom   132
 Full point group                 C1      NOp   1
 Largest Abelian subgroup         C1      NOp   1
 Largest concise Abelian subgroup C1      NOp   1
                         Standard orientation:                         
 ---------------------------------------------------------------------
 Center     Atomic      Atomic             Coordinates (Angstroms)
 Number     Number       Type             X           Y           Z
 ---------------------------------------------------------------------
      1          6           0        4.685242   -0.154560   -0.047938
      2          8           0        5.924336   -0.089281   -0.161508
      3          6           0        3.829004    0.973554   -0.168031
      4          6           0        2.491593    0.909243    0.062331
      5          6           0        1.786799   -0.394804    0.260000
      6          6           0        2.637874   -1.553287   -0.260052
      7          6           0        4.038503   -1.456675    0.318966
      8          6           0        1.715058    2.150393    0.264747
      9          6           0        0.274085    2.100959   -0.231732
     10          6           0       -0.415849    0.812160    0.206175
     11          6           0        0.372900   -0.383212   -0.353511
     12          6           0       -1.846201    0.746163   -0.310764
     13          6           0       -2.558167   -0.568794    0.041264
     14          6           0       -1.790407   -1.718495   -0.599275
     15          6           0       -0.339383   -1.721145   -0.114910
     16          6           0       -2.841684    1.817158    0.139664
     17          6           0       -4.213308    1.195257   -0.182930
     18          6           0       -3.939208   -0.278324   -0.580349
     19          6           0       -2.714345   -0.825827    1.543011
     20          8           0       -4.976901   -1.154027   -0.226164
     21          1           0        4.301060    1.928398   -0.354383
     22          1           0        1.674672   -0.510967    1.350116
     23          1           0        2.683989   -1.516842   -1.352702
     24          1           0        2.205327   -2.508549    0.034676
     25          1           0        3.972203   -1.475782    1.411327
     26          1           0        4.661080   -2.295172    0.000328
     27          1           0        2.236503    3.007444   -0.161787
     28          1           0        1.698148    2.305457    1.358485
     29          1           0        0.268789    2.163462   -1.323407
     30          1           0       -0.265374    2.967880    0.150447
     31          1           0       -0.413144    0.770707    1.297557
     32          1           0        0.470923   -0.240982   -1.438253
     33          1           0       -1.794534    0.786969   -1.407124
     34          1           0       -1.812718   -1.608311   -1.686854
     35          1           0       -2.259982   -2.670385   -0.346146
     36          1           0       -0.304234   -1.967447    0.946362
     37          1           0        0.188303   -2.509527   -0.652389
     38          1           0       -2.694222    2.763460   -0.376784
     39          1           0       -2.734722    2.007593    1.206653
     40          1           0       -4.717635    1.732319   -0.987255
     41          1           0       -4.876408    1.217061    0.683388
     42          1           0       -3.857736   -0.367304   -1.669525
     43          1           0       -3.404781   -0.125874    2.005288
     44          1           0       -3.086384   -1.837423    1.695614
     45          1           0       -1.762904   -0.748370    2.056764
     46          1           0       -4.990735   -1.219932    0.740986
 ---------------------------------------------------------------------
 Rotational constants (GHZ):           0.9353406           0.1758697           0.1557018
 Standard basis: 6-31G(d) (6D, 7F)
 There are   352 symmetry adapted cartesian basis functions of A   symmetry.
 There are   352 symmetry adapted basis functions of A   symmetry.
   352 basis functions,   664 primitive gaussians,   352 cartesian basis functions
    75 alpha electrons       75 beta electrons
       nuclear repulsion energy      1670.9606067350 Hartrees.
 NAtoms=   46 NActive=   46 NUniq=   46 SFac= 1.00D+00 NAtFMM=   60 NAOKFM=F Big=F
 Integral buffers will be    131072 words long.
 Raffenetti 2 integral format.
 Two-electron integral symmetry is turned on.
 Nuclear repulsion after empirical dispersion term =     1670.9113935982 Hartrees.
 One-electron integrals computed using PRISM.
 NBasis=   352 RedAO= T EigKep=  1.20D-03  NBF=   352
 NBsUse=   352 1.00D-06 EigRej= -1.00D+00 NBFU=   352
 ExpMin= 1.61D-01 ExpMax= 5.48D+03 ExpMxC= 8.25D+02 IAcc=3 IRadAn=         5 AccDes= 0.00D+00
 Harris functional with IExCor= 4639 and IRadAn=       5 diagonalized for initial guess.
 HarFok:  IExCor= 4639 AccDes= 0.00D+00 IRadAn=         5 IDoV= 1 UseB2=F ITyADJ=14
 ICtDFT=  3500011 ScaDFX=  1.000000  1.000000  1.000000  1.000000
 FoFCou: FMM=F IPFlag=           0 FMFlag=      100000 FMFlg1=           0
         NFxFlg=           0 DoJE=T BraDBF=F KetDBF=T FulRan=T
         wScrn=  0.000000 ICntrl=       500 IOpCl=  0 I1Cent=   200000004 NGrid=           0
         NMat0=    1 NMatS0=      1 NMatT0=    0 NMatD0=    1 NMtDS0=    0 NMtDT0=    0
 Petite list used in FoFCou.
 Requested convergence on RMS density matrix=1.00D-08 within 128 cycles.
 Requested convergence on MAX density matrix=1.00D-06.
 Requested convergence on             energy=1.00D-06.
 No special actions if energy rises.
 Integral accuracy reduced to 1.0D-05 until final iterations.
 Initial convergence to 1.0D-05 achieved.  Increase integral accuracy.
 SCF Done:  E(RwB97XD) =  -851.790025162     A.U. after   15 cycles
            NFock= 15  Conv=0.44D-08     -V/T= 2.0088

 **********************************************************************

            Population analysis using the SCF Density.

 **********************************************************************

 Orbital symmetries:
       Occupied  (A) (A) (A) (A) (A) (A) (A) (A) (A) (A) (A) (A)
                 (A) (A) (A) (A) (A) (A) (A) (A) (A) (A) (A) (A)
                 (A) (A) (A) (A) (A) (A) (A) (A) (A) (A) (A) (A)
                 (A) (A) (A) (A) (A) (A) (A) (A) (A) (A) (A) (A)
                 (A) (A) (A) (A) (A) (A) (A) (A) (A) (A) (A) (A)
                 (A) (A) (A) (A) (A) (A) (A) (A) (A) (A) (A) (A)
                 (A) (A) (A)
       Virtual   (A) (A) (A) (A) (A) (A) (A) (A) (A) (A) (A) (A)
                 (A) (A) (A) (A) (A) (A) (A) (A) (A) (A) (A) (A)
                 (A) (A) (A) (A) (A) (A) (A) (A) (A) (A) (A) (A)
                 (A) (A) (A) (A) (A) (A) (A) (A) (A) (A) (A) (A)
                 (A) (A) (A) (A) (A) (A) (A) (A) (A) (A) (A) (A)
                 (A) (A) (A) (A) (A) (A) (A) (A) (A) (A) (A) (A)
                 (A) (A) (A) (A) (A) (A) (A) (A) (A) (A) (A) (A)
                 (A) (A) (A) (A) (A) (A) (A) (A) (A) (A) (A) (A)
                 (A) (A) (A) (A) (A) (A) (A) (A) (A) (A) (A) (A)
                 (A) (A) (A) (A) (A) (A) (A) (A) (A) (A) (A) (A)
                 (A) (A) (A) (A) (A) (A) (A) (A) (A) (A) (A) (A)
                 (A) (A) (A) (A) (A) (A) (A) (A) (A) (A) (A) (A)
                 (A) (A) (A) (A) (A) (A) (A) (A) (A) (A) (A) (A)
                 (A) (A) (A) (A) (A) (A) (A) (A) (A) (A) (A) (A)
                 (A) (A) (A) (A) (A) (A) (A) (A) (A) (A) (A) (A)
                 (A) (A) (A) (A) (A) (A) (A) (A) (A) (A) (A) (A)
                 (A) (A) (A) (A) (A) (A) (A) (A) (A) (A) (A) (A)
                 (A) (A) (A) (A) (A) (A) (A) (A) (A) (A) (A) (A)
                 (A) (A) (A) (A) (A) (A) (A) (A) (A) (A) (A) (A)
                 (A) (A) (A) (A) (A) (A) (A) (A) (A) (A) (A) (A)
                 (A) (A) (A) (A) (A) (A) (A) (A) (A) (A) (A) (A)
                 (A) (A) (A) (A) (A) (A) (A) (A) (A) (A) (A) (A)
                 (A) (A) (A) (A) (A) (A) (A) (A) (A) (A) (A) (A)
                 (A)
 The electronic state is 1-A.
 Alpha  occ. eigenvalues --  -19.26618 -19.23370 -10.36558 -10.34026 -10.33095
 Alpha  occ. eigenvalues --  -10.31503 -10.30856 -10.30830 -10.30445 -10.30257
 Alpha  occ. eigenvalues --  -10.30160 -10.30031 -10.29903 -10.29664 -10.29609
 Alpha  occ. eigenvalues --  -10.29401 -10.29211 -10.29192 -10.29191 -10.28985
 Alpha  occ. eigenvalues --   -1.12415  -1.10243  -0.98602  -0.96087  -0.91174
 Alpha  occ. eigenvalues --   -0.90445  -0.87529  -0.84599  -0.82907  -0.81807
 Alpha  occ. eigenvalues --   -0.78290  -0.77798  -0.73757  -0.72141  -0.69801
 Alpha  occ. eigenvalues --   -0.68032  -0.66635  -0.65686  -0.63547  -0.61134
 Alpha  occ. eigenvalues --   -0.59593  -0.57956  -0.56624  -0.55938  -0.55567
 Alpha  occ. eigenvalues --   -0.54417  -0.53449  -0.53082  -0.51193  -0.50868
 Alpha  occ. eigenvalues --   -0.50340  -0.49702  -0.49619  -0.48595  -0.48301
 Alpha  occ. eigenvalues --   -0.47848  -0.47043  -0.46901  -0.45166  -0.44890
 Alpha  occ. eigenvalues --   -0.43919  -0.43572  -0.43185  -0.42367  -0.41953
 Alpha  occ. eigenvalues --   -0.41657  -0.41147  -0.40509  -0.39884  -0.39187
 Alpha  occ. eigenvalues --   -0.37187  -0.36186  -0.33420  -0.32501  -0.30834
 Alpha virt. eigenvalues --    0.02131   0.13143   0.14542   0.14839   0.16820
 Alpha virt. eigenvalues --    0.16995   0.17950   0.18551   0.19279   0.20106
 Alpha virt. eigenvalues --    0.20708   0.21021   0.22145   0.22534   0.23432
 Alpha virt. eigenvalues --    0.23479   0.23931   0.24945   0.25028   0.25324
 Alpha virt. eigenvalues --    0.25522   0.26326   0.26448   0.26834   0.27001
 Alpha virt. eigenvalues --    0.27704   0.28208   0.28833   0.29683   0.30422
 Alpha virt. eigenvalues --    0.30723   0.31285   0.31807   0.32358   0.33166
 Alpha virt. eigenvalues --    0.33699   0.34197   0.35249   0.36023   0.36225
 Alpha virt. eigenvalues --    0.37239   0.37973   0.38970   0.39219   0.41355
 Alpha virt. eigenvalues --    0.42098   0.42241   0.45291   0.45509   0.50182
 Alpha virt. eigenvalues --    0.51977   0.57960   0.58571   0.59284   0.59865
 Alpha virt. eigenvalues --    0.61554   0.61880   0.62370   0.63015   0.65589
 Alpha virt. eigenvalues --    0.65787   0.66012   0.66479   0.68225   0.69363
 Alpha virt. eigenvalues --    0.70295   0.71338   0.72535   0.73037   0.73171
 Alpha virt. eigenvalues --    0.73852   0.74664   0.75437   0.75882   0.76732
 Alpha virt. eigenvalues --    0.77450   0.77772   0.78756   0.80257   0.81362
 Alpha virt. eigenvalues --    0.83046   0.83546   0.84707   0.84959   0.86246
 Alpha virt. eigenvalues --    0.86931   0.87332   0.88713   0.89781   0.90109
 Alpha virt. eigenvalues --    0.91165   0.92165   0.93423   0.94389   0.94904
 Alpha virt. eigenvalues --    0.95186   0.95327   0.96205   0.96702   0.96778
 Alpha virt. eigenvalues --    0.97413   0.97661   0.98072   0.98708   0.99045
 Alpha virt. eigenvalues --    0.99369   1.00471   1.00555   1.01141   1.02973
 Alpha virt. eigenvalues --    1.03765   1.03868   1.04167   1.04402   1.04995
 Alpha virt. eigenvalues --    1.05843   1.06073   1.06753   1.07754   1.08119
 Alpha virt. eigenvalues --    1.08922   1.10238   1.11143   1.13176   1.14173
 Alpha virt. eigenvalues --    1.14777   1.15202   1.16357   1.18897   1.20321
 Alpha virt. eigenvalues --    1.21784   1.24159   1.26523   1.28034   1.30196
 Alpha virt. eigenvalues --    1.30441   1.31733   1.33955   1.35606   1.38453
 Alpha virt. eigenvalues --    1.40003   1.42596   1.43428   1.43768   1.47828
 Alpha virt. eigenvalues --    1.51661   1.53082   1.54452   1.56932   1.59077
 Alpha virt. eigenvalues --    1.60895   1.61879   1.64919   1.66158   1.68667
 Alpha virt. eigenvalues --    1.69962   1.71025   1.73798   1.74561   1.77097
 Alpha virt. eigenvalues --    1.78494   1.79144   1.81232   1.82195   1.83777
 Alpha virt. eigenvalues --    1.85063   1.86663   1.87263   1.87928   1.88845
 Alpha virt. eigenvalues --    1.89966   1.92393   1.93925   1.94594   1.95580
 Alpha virt. eigenvalues --    1.96591   1.97055   1.97348   1.99130   1.99802
 Alpha virt. eigenvalues --    2.00577   2.01662   2.02248   2.02893   2.03958
 Alpha virt. eigenvalues --    2.05858   2.06039   2.07367   2.07536   2.08264
 Alpha virt. eigenvalues --    2.09367   2.10401   2.11180   2.11927   2.12599
 Alpha virt. eigenvalues --    2.13453   2.14722   2.15522   2.16188   2.18825
 Alpha virt. eigenvalues --    2.20157   2.20554   2.21741   2.23783   2.25586
 Alpha virt. eigenvalues --    2.27107   2.28094   2.30784   2.30990   2.33412
 Alpha virt. eigenvalues --    2.34817   2.35548   2.36832   2.38703   2.40156
 Alpha virt. eigenvalues --    2.40593   2.42055   2.43273   2.44841   2.46149
 Alpha virt. eigenvalues --    2.48927   2.49300   2.51484   2.52095   2.53555
 Alpha virt. eigenvalues --    2.55266   2.58111   2.58765   2.60438   2.62337
 Alpha virt. eigenvalues --    2.63753   2.65198   2.65775   2.66042   2.67135
 Alpha virt. eigenvalues --    2.69564   2.71735   2.71942   2.75633   2.78021
 Alpha virt. eigenvalues --    2.79721   2.80190   2.82225   2.83564   2.84983
 Alpha virt. eigenvalues --    2.87002   2.91217   2.94639   2.97997   2.99662
 Alpha virt. eigenvalues --    3.01393   3.02707   3.07798   3.09107   3.10340
 Alpha virt. eigenvalues --    3.21888   3.28034   4.02263   4.09035   4.25940
 Alpha virt. eigenvalues --    4.27565   4.31488   4.34817   4.36841   4.38286
 Alpha virt. eigenvalues --    4.42412   4.42936   4.48369   4.54287   4.56060
 Alpha virt. eigenvalues --    4.65800   4.68325   4.75419   4.77789   4.81578
 Alpha virt. eigenvalues --    4.86429   4.91224
          Condensed to atoms (all electrons):
               1          2          3          4          5          6
     1  C    4.427636   0.532473   0.364515   0.002035  -0.023412  -0.026105
     2  O    0.532473   8.111018  -0.061293   0.005132   0.000318   0.002509
     3  C    0.364515  -0.061293   5.303914   0.518399  -0.044355   0.005866
     4  C    0.002035   0.005132   0.518399   4.864809   0.377433  -0.047852
     5  C   -0.023412   0.000318  -0.044355   0.377433   5.102330   0.351612
     6  C   -0.026105   0.002509   0.005866  -0.047852   0.351612   5.150107
     7  C    0.342629  -0.079368  -0.139719   0.000747  -0.035962   0.287118
     8  C    0.003864  -0.000096  -0.037684   0.363473  -0.069189   0.005405
     9  C   -0.000139   0.000000   0.002943  -0.034706  -0.011955  -0.000278
    10  C   -0.000016   0.000000   0.000521  -0.014131  -0.040599   0.004211
    11  C   -0.000142   0.000001   0.003261  -0.031765   0.364578  -0.049267
    12  C   -0.000000   0.000000   0.000003   0.000243   0.004079  -0.000141
    13  C   -0.000000   0.000000   0.000000   0.000005   0.000048  -0.000006
    14  C    0.000000  -0.000000   0.000001  -0.000094   0.003779   0.000226
    15  C   -0.000004  -0.000000  -0.000109   0.004479  -0.044243  -0.004800
    16  C   -0.000000  -0.000000   0.000000  -0.000002  -0.000114   0.000001
    17  C    0.000000  -0.000000  -0.000000   0.000000   0.000002  -0.000000
    18  C    0.000000   0.000000  -0.000000  -0.000000   0.000005   0.000000
    19  C   -0.000000   0.000000   0.000000   0.000000   0.000038   0.000000
    20  O   -0.000000   0.000000   0.000000   0.000000  -0.000000  -0.000000
    21  H   -0.029642   0.000692   0.359742  -0.046719   0.004920  -0.000448
    22  H    0.001043   0.000009  -0.003963  -0.044635   0.365539  -0.034314
    23  H   -0.002800   0.000099   0.003983  -0.004519  -0.042123   0.386046
    24  H    0.003607  -0.000075  -0.000300   0.004846  -0.030973   0.377984
    25  H   -0.029187  -0.000320   0.002481  -0.002268  -0.004103  -0.040905
    26  H   -0.024471   0.002766   0.005601  -0.000116   0.004304  -0.031419
    27  H    0.000245  -0.000002  -0.002561  -0.039441   0.004326  -0.000156
    28  H   -0.000085   0.000005  -0.008801  -0.040115   0.000276   0.000138
    29  H    0.000001  -0.000000  -0.000190  -0.003111   0.000386   0.000011
    30  H    0.000001  -0.000000  -0.000085   0.004250   0.000002   0.000011
    31  H    0.000004   0.000000  -0.000202  -0.003802  -0.001750   0.000154
    32  H    0.000037  -0.000000   0.000006  -0.003501  -0.041357  -0.004430
    33  H    0.000000   0.000000  -0.000002  -0.000076   0.000201   0.000000
    34  H    0.000000   0.000000  -0.000000   0.000003   0.000063  -0.000026
    35  H    0.000000  -0.000000  -0.000000   0.000001  -0.000104   0.000001
    36  H    0.000002  -0.000000  -0.000008   0.000152  -0.003168  -0.001410
    37  H   -0.000011  -0.000000   0.000016  -0.000118  -0.007106   0.002422
    38  H    0.000000  -0.000000   0.000000  -0.000001   0.000001  -0.000000
    39  H    0.000000   0.000000  -0.000000  -0.000001   0.000002   0.000000
    40  H    0.000000  -0.000000   0.000000   0.000000  -0.000000   0.000000
    41  H    0.000000  -0.000000   0.000000  -0.000000  -0.000000   0.000000
    42  H    0.000000  -0.000000  -0.000000   0.000000   0.000000  -0.000000
    43  H   -0.000000   0.000000   0.000000   0.000000  -0.000002  -0.000000
    44  H    0.000000   0.000000  -0.000000   0.000000  -0.000003  -0.000000
    45  H    0.000000  -0.000000  -0.000000   0.000001   0.000033   0.000002
    46  H   -0.000000   0.000000   0.000000   0.000000  -0.000000   0.000000
               7          8          9         10         11         12
     1  C    0.342629   0.003864  -0.000139  -0.000016  -0.000142  -0.000000
     2  O   -0.079368  -0.000096   0.000000   0.000000   0.000001   0.000000
     3  C   -0.139719  -0.037684   0.002943   0.000521   0.003261   0.000003
     4  C    0.000747   0.363473  -0.034706  -0.014131  -0.031765   0.000243
     5  C   -0.035962  -0.069189  -0.011955  -0.040599   0.364578   0.004079
     6  C    0.287118   0.005405  -0.000278   0.004211  -0.049267  -0.000141
     7  C    5.361160  -0.000206   0.000043  -0.000105   0.004825   0.000002
     8  C   -0.000206   5.157416   0.335586  -0.043914  -0.016225   0.004005
     9  C    0.000043   0.335586   5.101495   0.370604  -0.044426  -0.044373
    10  C   -0.000105  -0.043914   0.370604   5.022422   0.372388   0.367540
    11  C    0.004825  -0.016225  -0.044426   0.372388   5.047552  -0.039339
    12  C    0.000002   0.004005  -0.044373   0.367540  -0.039339   5.101588
    13  C    0.000000  -0.000139   0.004404  -0.028713  -0.012507   0.358374
    14  C   -0.000002  -0.000009  -0.000089  -0.011450  -0.038977  -0.051238
    15  C    0.000235   0.000353   0.004499  -0.041513   0.365170  -0.017600
    16  C   -0.000000   0.000077  -0.003965  -0.034537   0.004408   0.356487
    17  C    0.000000  -0.000000   0.000136   0.004390  -0.000209  -0.053792
    18  C   -0.000000   0.000002  -0.000133   0.004127   0.000117  -0.065784
    19  C    0.000000  -0.000000   0.000169  -0.006247  -0.002047  -0.057857
    20  O    0.000000  -0.000000   0.000000  -0.000063  -0.000003   0.002870
    21  H    0.006934  -0.007756   0.000240   0.000001  -0.000091  -0.000000
    22  H   -0.006274   0.000965  -0.000635  -0.005970  -0.042267   0.000049
    23  H   -0.041912   0.000002  -0.000037   0.000110  -0.003001  -0.000001
    24  H   -0.031544  -0.000118  -0.000008  -0.000035  -0.008382  -0.000003
    25  H    0.367200  -0.000064  -0.000002   0.000001   0.000085   0.000000
    26  H    0.368746   0.000009   0.000000   0.000002  -0.000075  -0.000000
    27  H    0.000012   0.379558  -0.031825   0.004182  -0.000156  -0.000112
    28  H   -0.000104   0.379085  -0.041966  -0.004317  -0.000724  -0.000026
    29  H   -0.000004  -0.037109   0.381412  -0.039375  -0.007509  -0.004821
    30  H   -0.000000  -0.031840   0.379457  -0.032622   0.004968  -0.006949
    31  H   -0.000011   0.000511  -0.046756   0.379567  -0.048819  -0.041769
    32  H   -0.000116  -0.000002  -0.005815  -0.046320   0.378027  -0.004192
    33  H   -0.000000   0.000096  -0.006191  -0.044560  -0.006221   0.383789
    34  H   -0.000000   0.000000  -0.000026  -0.000412  -0.004198  -0.006123
    35  H   -0.000000  -0.000000   0.000011  -0.000078   0.004261   0.006269
    36  H   -0.000071  -0.000012   0.000006  -0.004068  -0.044134  -0.000428
    37  H    0.000067  -0.000010  -0.000132   0.004438  -0.031402   0.000112
    38  H    0.000000  -0.000010   0.001447  -0.001611  -0.000089  -0.026412
    39  H   -0.000000  -0.000029  -0.000650  -0.004206   0.000080  -0.039431
    40  H   -0.000000  -0.000000  -0.000006  -0.000057   0.000004   0.001198
    41  H   -0.000000  -0.000000   0.000001  -0.000154   0.000003   0.003394
    42  H   -0.000000  -0.000000   0.000005  -0.000227  -0.000003  -0.004932
    43  H    0.000000  -0.000000  -0.000018  -0.000016   0.000015  -0.003661
    44  H    0.000000  -0.000000   0.000001  -0.000012   0.000086   0.005565
    45  H   -0.000000   0.000011  -0.000078   0.002289  -0.000262  -0.006172
    46  H    0.000000  -0.000000   0.000000  -0.000009   0.000001   0.000226
              13         14         15         16         17         18
     1  C   -0.000000   0.000000  -0.000004  -0.000000   0.000000   0.000000
     2  O    0.000000  -0.000000  -0.000000  -0.000000  -0.000000   0.000000
     3  C    0.000000   0.000001  -0.000109   0.000000  -0.000000  -0.000000
     4  C    0.000005  -0.000094   0.004479  -0.000002   0.000000  -0.000000
     5  C    0.000048   0.003779  -0.044243  -0.000114   0.000002   0.000005
     6  C   -0.000006   0.000226  -0.004800   0.000001  -0.000000   0.000000
     7  C    0.000000  -0.000002   0.000235  -0.000000   0.000000  -0.000000
     8  C   -0.000139  -0.000009   0.000353   0.000077  -0.000000   0.000002
     9  C    0.004404  -0.000089   0.004499  -0.003965   0.000136  -0.000133
    10  C   -0.028713  -0.011450  -0.041513  -0.034537   0.004390   0.004127
    11  C   -0.012507  -0.038977   0.365170   0.004408  -0.000209   0.000117
    12  C    0.358374  -0.051238  -0.017600   0.356487  -0.053792  -0.065784
    13  C    5.100236   0.378870  -0.041013  -0.055539  -0.088240   0.361797
    14  C    0.378870   5.098513   0.351942   0.005864   0.007165  -0.040996
    15  C   -0.041013   0.351942   5.109132   0.000200  -0.000214   0.004333
    16  C   -0.055539   0.005864   0.000200   5.135182   0.313465  -0.060300
    17  C   -0.088240   0.007165  -0.000214   0.313465   5.245120   0.343664
    18  C    0.361797  -0.040996   0.004333  -0.060300   0.343664   4.809047
    19  C    0.330945  -0.067413  -0.004510  -0.002743  -0.010928  -0.046979
    20  O   -0.045398   0.001474   0.000036   0.003487  -0.050895   0.268888
    21  H   -0.000000  -0.000000   0.000002  -0.000000  -0.000000  -0.000000
    22  H   -0.000028   0.000046  -0.006692  -0.000001   0.000000  -0.000000
    23  H   -0.000000  -0.000048  -0.001346   0.000000   0.000000  -0.000000
    24  H   -0.000003   0.000052   0.003183   0.000000   0.000000   0.000000
    25  H   -0.000000  -0.000000  -0.000032   0.000000   0.000000  -0.000000
    26  H   -0.000000  -0.000000  -0.000001   0.000000  -0.000000  -0.000000
    27  H    0.000001  -0.000000   0.000009  -0.000001  -0.000000  -0.000000
    28  H    0.000004   0.000000  -0.000008  -0.000011  -0.000000  -0.000000
    29  H    0.000047  -0.000014   0.000091  -0.000555  -0.000021  -0.000005
    30  H    0.000004  -0.000005  -0.000137   0.003847   0.000000  -0.000008
    31  H   -0.008061   0.000286  -0.002878  -0.004041  -0.000027   0.000061
    32  H   -0.001219  -0.000781  -0.044425  -0.000032   0.000004  -0.000065
    33  H   -0.053008  -0.006014  -0.001008  -0.044230  -0.002371  -0.003001
    34  H   -0.037618   0.380247  -0.037861   0.000034   0.000072  -0.006023
    35  H   -0.033852   0.376693  -0.035476  -0.000248   0.000085  -0.004164
    36  H   -0.008376  -0.035588   0.381156  -0.000019  -0.000000  -0.000035
    37  H    0.004954  -0.034408   0.381706   0.000009   0.000003  -0.000082
    38  H    0.004960  -0.000148  -0.000003   0.377480  -0.027067   0.002328
    39  H   -0.006030   0.000010  -0.000019   0.384683  -0.032427   0.001859
    40  H    0.004483  -0.000139   0.000003  -0.029142   0.376746  -0.023789
    41  H   -0.001184  -0.000117   0.000003  -0.028892   0.371578  -0.033093
    42  H   -0.049525  -0.008210   0.000066   0.003710  -0.050260   0.394893
    43  H   -0.035236   0.005130   0.000073   0.001592   0.003621  -0.004752
    44  H   -0.030738  -0.005899  -0.000544  -0.000235   0.000539  -0.005316
    45  H   -0.030371  -0.003699   0.001411  -0.000164  -0.000145   0.004926
    46  H   -0.017027  -0.000218  -0.000009  -0.000022  -0.003695  -0.029257
              19         20         21         22         23         24
     1  C   -0.000000  -0.000000  -0.029642   0.001043  -0.002800   0.003607
     2  O    0.000000   0.000000   0.000692   0.000009   0.000099  -0.000075
     3  C    0.000000   0.000000   0.359742  -0.003963   0.003983  -0.000300
     4  C    0.000000   0.000000  -0.046719  -0.044635  -0.004519   0.004846
     5  C    0.000038  -0.000000   0.004920   0.365539  -0.042123  -0.030973
     6  C    0.000000  -0.000000  -0.000448  -0.034314   0.386046   0.377984
     7  C    0.000000   0.000000   0.006934  -0.006274  -0.041912  -0.031544
     8  C   -0.000000  -0.000000  -0.007756   0.000965   0.000002  -0.000118
     9  C    0.000169   0.000000   0.000240  -0.000635  -0.000037  -0.000008
    10  C   -0.006247  -0.000063   0.000001  -0.005970   0.000110  -0.000035
    11  C   -0.002047  -0.000003  -0.000091  -0.042267  -0.003001  -0.008382
    12  C   -0.057857   0.002870  -0.000000   0.000049  -0.000001  -0.000003
    13  C    0.330945  -0.045398  -0.000000  -0.000028  -0.000000  -0.000003
    14  C   -0.067413   0.001474  -0.000000   0.000046  -0.000048   0.000052
    15  C   -0.004510   0.000036   0.000002  -0.006692  -0.001346   0.003183
    16  C   -0.002743   0.003487  -0.000000  -0.000001   0.000000   0.000000
    17  C   -0.010928  -0.050895  -0.000000   0.000000   0.000000   0.000000
    18  C   -0.046979   0.268888  -0.000000  -0.000000  -0.000000   0.000000
    19  C    5.265625  -0.001408   0.000000  -0.000056  -0.000000  -0.000001
    20  O   -0.001408   8.262195   0.000000  -0.000000  -0.000000   0.000000
    21  H    0.000000   0.000000   0.536514  -0.000227  -0.000118   0.000013
    22  H   -0.000056  -0.000000  -0.000227   0.591645   0.005446  -0.003097
    23  H   -0.000000  -0.000000  -0.000118   0.005446   0.552896  -0.029481
    24  H   -0.000001   0.000000   0.000013  -0.003097  -0.029481   0.550516
    25  H   -0.000000  -0.000000  -0.000189   0.006173   0.005168  -0.004241
    26  H    0.000000   0.000000  -0.000109  -0.000159  -0.002440  -0.003199
    27  H    0.000000   0.000000   0.005357  -0.000100   0.000000   0.000002
    28  H   -0.000003   0.000000   0.000168   0.001691   0.000002   0.000009
    29  H   -0.000003   0.000000  -0.000010   0.000091  -0.000004   0.000002
    30  H   -0.000004   0.000000  -0.000008  -0.000012   0.000000   0.000000
    31  H    0.001624  -0.000000  -0.000002   0.005645   0.000006   0.000000
    32  H    0.000051   0.000000  -0.000018   0.005898   0.004707   0.000077
    33  H    0.006567   0.000067  -0.000000   0.000002  -0.000002  -0.000000
    34  H    0.006226  -0.000129  -0.000000   0.000003   0.000002   0.000010
    35  H   -0.007536   0.002932   0.000000  -0.000002   0.000000   0.000005
    36  H    0.003179  -0.000002  -0.000000   0.005330   0.000138   0.000979
    37  H    0.000014   0.000001   0.000000   0.000029   0.000842   0.001301
    38  H    0.000070  -0.000042  -0.000000   0.000000   0.000000  -0.000000
    39  H    0.002679  -0.000017   0.000000  -0.000002  -0.000000  -0.000000
    40  H    0.000194   0.002384   0.000000  -0.000000  -0.000000  -0.000000
    41  H    0.000341  -0.000066   0.000000   0.000000   0.000000   0.000000
    42  H    0.006488  -0.040797   0.000000  -0.000000  -0.000000   0.000000
    43  H    0.376970  -0.000866  -0.000000   0.000001   0.000000   0.000000
    44  H    0.372674   0.003162   0.000000   0.000001   0.000000   0.000000
    45  H    0.378136   0.000307  -0.000000   0.000034  -0.000000  -0.000001
    46  H    0.013712   0.243237   0.000000   0.000000   0.000000   0.000000
              25         26         27         28         29         30
     1  C   -0.029187  -0.024471   0.000245  -0.000085   0.000001   0.000001
     2  O   -0.000320   0.002766  -0.000002   0.000005  -0.000000  -0.000000
     3  C    0.002481   0.005601  -0.002561  -0.008801  -0.000190  -0.000085
     4  C   -0.002268  -0.000116  -0.039441  -0.040115  -0.003111   0.004250
     5  C   -0.004103   0.004304   0.004326   0.000276   0.000386   0.000002
     6  C   -0.040905  -0.031419  -0.000156   0.000138   0.000011   0.000011
     7  C    0.367200   0.368746   0.000012  -0.000104  -0.000004  -0.000000
     8  C   -0.000064   0.000009   0.379558   0.379085  -0.037109  -0.031840
     9  C   -0.000002   0.000000  -0.031825  -0.041966   0.381412   0.379457
    10  C    0.000001   0.000002   0.004182  -0.004317  -0.039375  -0.032622
    11  C    0.000085  -0.000075  -0.000156  -0.000724  -0.007509   0.004968
    12  C    0.000000  -0.000000  -0.000112  -0.000026  -0.004821  -0.006949
    13  C   -0.000000  -0.000000   0.000001   0.000004   0.000047   0.000004
    14  C   -0.000000  -0.000000  -0.000000   0.000000  -0.000014  -0.000005
    15  C   -0.000032  -0.000001   0.000009  -0.000008   0.000091  -0.000137
    16  C    0.000000   0.000000  -0.000001  -0.000011  -0.000555   0.003847
    17  C    0.000000  -0.000000  -0.000000  -0.000000  -0.000021   0.000000
    18  C   -0.000000  -0.000000  -0.000000  -0.000000  -0.000005  -0.000008
    19  C   -0.000000   0.000000   0.000000  -0.000003  -0.000003  -0.000004
    20  O   -0.000000   0.000000   0.000000   0.000000   0.000000   0.000000
    21  H   -0.000189  -0.000109   0.005357   0.000168  -0.000010  -0.000008
    22  H    0.006173  -0.000159  -0.000100   0.001691   0.000091  -0.000012
    23  H    0.005168  -0.002440   0.000000   0.000002  -0.000004   0.000000
    24  H   -0.004241  -0.003199   0.000002   0.000009   0.000002   0.000000
    25  H    0.539725  -0.020750   0.000000   0.000014   0.000000   0.000000
    26  H   -0.020750   0.507774   0.000000  -0.000001  -0.000000   0.000000
    27  H    0.000000   0.000000   0.528121  -0.024720  -0.003655  -0.001491
    28  H    0.000014  -0.000001  -0.024720   0.554368   0.005166  -0.005643
    29  H    0.000000  -0.000000  -0.003655   0.005166   0.564431  -0.030377
    30  H    0.000000   0.000000  -0.001491  -0.005643  -0.030377   0.551944
    31  H   -0.000002   0.000000   0.000006   0.004205   0.005567  -0.003088
    32  H    0.000010  -0.000001  -0.000046   0.000115   0.005519   0.000068
    33  H   -0.000000   0.000000   0.000003   0.000003   0.004894  -0.000043
    34  H   -0.000000   0.000000  -0.000000  -0.000000  -0.000011   0.000001
    35  H    0.000000   0.000000   0.000000  -0.000000   0.000000  -0.000000
    36  H    0.000005   0.000001  -0.000000  -0.000001  -0.000001   0.000004
    37  H    0.000011   0.000002  -0.000000   0.000000  -0.000003   0.000002
    38  H    0.000000  -0.000000   0.000001   0.000004   0.000316   0.000589
    39  H   -0.000000   0.000000   0.000001  -0.000001   0.000072   0.000587
    40  H    0.000000   0.000000   0.000000  -0.000000  -0.000000   0.000003
    41  H   -0.000000   0.000000   0.000000   0.000000   0.000000   0.000001
    42  H   -0.000000   0.000000   0.000000  -0.000000  -0.000002  -0.000000
    43  H    0.000000   0.000000  -0.000000   0.000000   0.000000   0.000000
    44  H    0.000000  -0.000000   0.000000   0.000000   0.000000  -0.000000
    45  H    0.000000   0.000000  -0.000000  -0.000004   0.000000   0.000002
    46  H    0.000000   0.000000   0.000000   0.000000  -0.000000  -0.000000
              31         32         33         34         35         36
     1  C    0.000004   0.000037   0.000000   0.000000   0.000000   0.000002
     2  O    0.000000  -0.000000   0.000000   0.000000  -0.000000  -0.000000
     3  C   -0.000202   0.000006  -0.000002  -0.000000  -0.000000  -0.000008
     4  C   -0.003802  -0.003501  -0.000076   0.000003   0.000001   0.000152
     5  C   -0.001750  -0.041357   0.000201   0.000063  -0.000104  -0.003168
     6  C    0.000154  -0.004430   0.000000  -0.000026   0.000001  -0.001410
     7  C   -0.000011  -0.000116  -0.000000  -0.000000  -0.000000  -0.000071
     8  C    0.000511  -0.000002   0.000096   0.000000  -0.000000  -0.000012
     9  C   -0.046756  -0.005815  -0.006191  -0.000026   0.000011   0.000006
    10  C    0.379567  -0.046320  -0.044560  -0.000412  -0.000078  -0.004068
    11  C   -0.048819   0.378027  -0.006221  -0.004198   0.004261  -0.044134
    12  C   -0.041769  -0.004192   0.383789  -0.006123   0.006269  -0.000428
    13  C   -0.008061  -0.001219  -0.053008  -0.037618  -0.033852  -0.008376
    14  C    0.000286  -0.000781  -0.006014   0.380247   0.376693  -0.035588
    15  C   -0.002878  -0.044425  -0.001008  -0.037861  -0.035476   0.381156
    16  C   -0.004041  -0.000032  -0.044230   0.000034  -0.000248  -0.000019
    17  C   -0.000027   0.000004  -0.002371   0.000072   0.000085  -0.000000
    18  C    0.000061  -0.000065  -0.003001  -0.006023  -0.004164  -0.000035
    19  C    0.001624   0.000051   0.006567   0.006226  -0.007536   0.003179
    20  O   -0.000000   0.000000   0.000067  -0.000129   0.002932  -0.000002
    21  H   -0.000002  -0.000018  -0.000000  -0.000000   0.000000  -0.000000
    22  H    0.005645   0.005898   0.000002   0.000003  -0.000002   0.005330
    23  H    0.000006   0.004707  -0.000002   0.000002   0.000000   0.000138
    24  H    0.000000   0.000077  -0.000000   0.000010   0.000005   0.000979
    25  H   -0.000002   0.000010  -0.000000  -0.000000   0.000000   0.000005
    26  H    0.000000  -0.000001   0.000000   0.000000   0.000000   0.000001
    27  H    0.000006  -0.000046   0.000003  -0.000000   0.000000  -0.000000
    28  H    0.004205   0.000115   0.000003  -0.000000  -0.000000  -0.000001
    29  H    0.005567   0.005519   0.004894  -0.000011   0.000000  -0.000001
    30  H   -0.003088   0.000068  -0.000043   0.000001  -0.000000   0.000004
    31  H    0.607937   0.005852   0.006017   0.000038  -0.000006   0.001838
    32  H    0.005852   0.600205   0.004812   0.003454  -0.000057   0.005512
    33  H    0.006017   0.004812   0.614572   0.004990   0.000034   0.000085
    34  H    0.000038   0.003454   0.004990   0.570422  -0.028173   0.004981
    35  H   -0.000006  -0.000057   0.000034  -0.028173   0.557346  -0.003843
    36  H    0.001838   0.005512   0.000085   0.004981  -0.003843   0.577505
    37  H   -0.000062  -0.004813  -0.000083  -0.004434  -0.002214  -0.031547
    38  H   -0.000129  -0.000000  -0.006143  -0.000001   0.000003   0.000000
    39  H    0.004151   0.000004   0.005316  -0.000006   0.000005  -0.000006
    40  H    0.000001  -0.000000   0.000463  -0.000011  -0.000000   0.000000
    41  H   -0.000008  -0.000000  -0.000048  -0.000000  -0.000001  -0.000000
    42  H   -0.000008  -0.000008   0.004480   0.005496  -0.000132   0.000000
    43  H    0.000090   0.000002  -0.000079  -0.000146  -0.000019  -0.000008
    44  H   -0.000023   0.000002  -0.000117   0.000076   0.005914   0.000521
    45  H    0.003940  -0.000013   0.000011  -0.000087  -0.000120   0.001509
    46  H   -0.000002  -0.000000   0.000004   0.000017  -0.000018  -0.000003
              37         38         39         40         41         42
     1  C   -0.000011   0.000000   0.000000   0.000000   0.000000   0.000000
     2  O   -0.000000  -0.000000   0.000000  -0.000000  -0.000000  -0.000000
     3  C    0.000016   0.000000  -0.000000   0.000000   0.000000  -0.000000
     4  C   -0.000118  -0.000001  -0.000001   0.000000  -0.000000   0.000000
     5  C   -0.007106   0.000001   0.000002  -0.000000  -0.000000   0.000000
     6  C    0.002422  -0.000000   0.000000   0.000000   0.000000  -0.000000
     7  C    0.000067   0.000000  -0.000000  -0.000000  -0.000000  -0.000000
     8  C   -0.000010  -0.000010  -0.000029  -0.000000  -0.000000  -0.000000
     9  C   -0.000132   0.001447  -0.000650  -0.000006   0.000001   0.000005
    10  C    0.004438  -0.001611  -0.004206  -0.000057  -0.000154  -0.000227
    11  C   -0.031402  -0.000089   0.000080   0.000004   0.000003  -0.000003
    12  C    0.000112  -0.026412  -0.039431   0.001198   0.003394  -0.004932
    13  C    0.004954   0.004960  -0.006030   0.004483  -0.001184  -0.049525
    14  C   -0.034408  -0.000148   0.000010  -0.000139  -0.000117  -0.008210
    15  C    0.381706  -0.000003  -0.000019   0.000003   0.000003   0.000066
    16  C    0.000009   0.377480   0.384683  -0.029142  -0.028892   0.003710
    17  C    0.000003  -0.027067  -0.032427   0.376746   0.371578  -0.050260
    18  C   -0.000082   0.002328   0.001859  -0.023789  -0.033093   0.394893
    19  C    0.000014   0.000070   0.002679   0.000194   0.000341   0.006488
    20  O    0.000001  -0.000042  -0.000017   0.002384  -0.000066  -0.040797
    21  H    0.000000  -0.000000   0.000000   0.000000   0.000000   0.000000
    22  H    0.000029   0.000000  -0.000002  -0.000000   0.000000  -0.000000
    23  H    0.000842   0.000000  -0.000000  -0.000000   0.000000  -0.000000
    24  H    0.001301  -0.000000  -0.000000  -0.000000   0.000000   0.000000
    25  H    0.000011   0.000000  -0.000000   0.000000  -0.000000  -0.000000
    26  H    0.000002  -0.000000   0.000000   0.000000   0.000000   0.000000
    27  H   -0.000000   0.000001   0.000001   0.000000   0.000000   0.000000
    28  H    0.000000   0.000004  -0.000001  -0.000000   0.000000  -0.000000
    29  H   -0.000003   0.000316   0.000072  -0.000000   0.000000  -0.000002
    30  H    0.000002   0.000589   0.000587   0.000003   0.000001  -0.000000
    31  H   -0.000062  -0.000129   0.004151   0.000001  -0.000008  -0.000008
    32  H   -0.004813  -0.000000   0.000004  -0.000000  -0.000000  -0.000008
    33  H   -0.000083  -0.006143   0.005316   0.000463  -0.000048   0.004480
    34  H   -0.004434  -0.000001  -0.000006  -0.000011  -0.000000   0.005496
    35  H   -0.002214   0.000003   0.000005  -0.000000  -0.000001  -0.000132
    36  H   -0.031547   0.000000  -0.000006   0.000000  -0.000000   0.000000
    37  H    0.553123  -0.000000  -0.000000  -0.000000  -0.000000  -0.000006
    38  H   -0.000000   0.548260  -0.032620  -0.006834   0.002642  -0.000087
    39  H   -0.000000  -0.032620   0.567367   0.003619  -0.009772  -0.000168
    40  H   -0.000000  -0.006834   0.003619   0.532599  -0.027485  -0.006088
    41  H   -0.000000   0.002642  -0.009772  -0.027485   0.558695   0.004259
    42  H   -0.000006  -0.000087  -0.000168  -0.006088   0.004259   0.580762
    43  H   -0.000000   0.000017   0.000022  -0.000060   0.001593   0.000074
    44  H   -0.000044   0.000001   0.000039  -0.000007  -0.000057  -0.000145
    45  H    0.000021  -0.000016   0.000197   0.000001  -0.000002  -0.000100
    46  H    0.000000   0.000002  -0.000064  -0.000254   0.004700   0.007282
              43         44         45         46
     1  C   -0.000000   0.000000   0.000000  -0.000000
     2  O    0.000000   0.000000  -0.000000   0.000000
     3  C    0.000000  -0.000000  -0.000000   0.000000
     4  C    0.000000   0.000000   0.000001   0.000000
     5  C   -0.000002  -0.000003   0.000033  -0.000000
     6  C   -0.000000  -0.000000   0.000002   0.000000
     7  C    0.000000   0.000000  -0.000000   0.000000
     8  C   -0.000000  -0.000000   0.000011  -0.000000
     9  C   -0.000018   0.000001  -0.000078   0.000000
    10  C   -0.000016  -0.000012   0.002289  -0.000009
    11  C    0.000015   0.000086  -0.000262   0.000001
    12  C   -0.003661   0.005565  -0.006172   0.000226
    13  C   -0.035236  -0.030738  -0.030371  -0.017027
    14  C    0.005130  -0.005899  -0.003699  -0.000218
    15  C    0.000073  -0.000544   0.001411  -0.000009
    16  C    0.001592  -0.000235  -0.000164  -0.000022
    17  C    0.003621   0.000539  -0.000145  -0.003695
    18  C   -0.004752  -0.005316   0.004926  -0.029257
    19  C    0.376970   0.372674   0.378136   0.013712
    20  O   -0.000866   0.003162   0.000307   0.243237
    21  H   -0.000000   0.000000  -0.000000   0.000000
    22  H    0.000001   0.000001   0.000034   0.000000
    23  H    0.000000   0.000000  -0.000000   0.000000
    24  H    0.000000   0.000000  -0.000001   0.000000
    25  H    0.000000   0.000000   0.000000   0.000000
    26  H    0.000000  -0.000000   0.000000   0.000000
    27  H   -0.000000   0.000000  -0.000000   0.000000
    28  H    0.000000   0.000000  -0.000004   0.000000
    29  H    0.000000   0.000000   0.000000  -0.000000
    30  H    0.000000  -0.000000   0.000002  -0.000000
    31  H    0.000090  -0.000023   0.003940  -0.000002
    32  H    0.000002   0.000002  -0.000013  -0.000000
    33  H   -0.000079  -0.000117   0.000011   0.000004
    34  H   -0.000146   0.000076  -0.000087   0.000017
    35  H   -0.000019   0.005914  -0.000120  -0.000018
    36  H   -0.000008   0.000521   0.001509  -0.000003
    37  H   -0.000000  -0.000044   0.000021   0.000000
    38  H    0.000017   0.000001  -0.000016   0.000002
    39  H    0.000022   0.000039   0.000197  -0.000064
    40  H   -0.000060  -0.000007   0.000001  -0.000254
    41  H    0.001593  -0.000057  -0.000002   0.004700
    42  H    0.000074  -0.000145  -0.000100   0.007282
    43  H    0.544057  -0.029848  -0.024752   0.001968
    44  H   -0.029848   0.536239  -0.026004   0.001860
    45  H   -0.024752  -0.026004   0.523159  -0.000106
    46  H    0.001968   0.001860  -0.000106   0.371743
 Mulliken charges:
               1
     1  C    0.457922
     2  O   -0.513868
     3  C   -0.271980
     4  C    0.170964
     5  C   -0.183755
     6  C   -0.332269
     7  C   -0.404321
     8  C   -0.386003
     9  C   -0.308249
    10  C   -0.131454
    11  C   -0.117591
    12  C   -0.120634
    13  C    0.034698
    14  C   -0.304741
    15  C   -0.323633
    16  C   -0.325734
    17  C   -0.346299
    18  C    0.127738
    19  C   -0.557965
    20  O   -0.651353
    21  H    0.170753
    22  H    0.158795
    23  H    0.168383
    24  H    0.168876
    25  H    0.181189
    26  H    0.193536
    27  H    0.182444
    28  H    0.181276
    29  H    0.158773
    30  H    0.166573
    31  H    0.133947
    32  H    0.142852
    33  H    0.136792
    34  H    0.149152
    35  H    0.162482
    36  H    0.149825
    37  H    0.167403
    38  H    0.163092
    39  H    0.154757
    40  H    0.172176
    41  H    0.153669
    42  H    0.153186
    43  H    0.164241
    44  H    0.172312
    45  H    0.176109
    46  H    0.405935
 Sum of Mulliken charges =  -0.00000
 Mulliken charges with hydrogens summed into heavy atoms:
               1
     1  C    0.457922
     2  O   -0.513868
     3  C   -0.101226
     4  C    0.170964
     5  C   -0.024960
     6  C    0.004990
     7  C   -0.029596
     8  C   -0.022283
     9  C    0.017097
    10  C    0.002493
    11  C    0.025261
    12  C    0.016158
    13  C    0.034698
    14  C    0.006893
    15  C   -0.006405
    16  C   -0.007885
    17  C   -0.020454
    18  C    0.280923
    19  C   -0.045304
    20  O   -0.245418
 Electronic spatial extent (au):  <R**2>=           6856.7345
 Charge=             -0.0000 electrons
 Dipole moment (field-independent basis, Debye):
    X=             -3.8847    Y=              0.8060    Z=              1.6871  Tot=              4.3112
 Quadrupole moment (field-independent basis, Debye-Ang):
   XX=           -170.3277   YY=           -116.9172   ZZ=           -117.0836
   XY=             -4.6368   XZ=             -3.8855   YZ=             -2.3317
 Traceless Quadrupole moment (field-independent basis, Debye-Ang):
   XX=            -35.5515   YY=             17.8590   ZZ=             17.6926
   XY=             -4.6368   XZ=             -3.8855   YZ=             -2.3317
 Octapole moment (field-independent basis, Debye-Ang**2):
  XXX=           -222.9335  YYY=             -0.7622  ZZZ=             -1.4980  XYY=             17.1209
  XXY=             19.2774  XXZ=             47.2640  XZZ=             -8.2890  YZZ=             -2.9856
  YYZ=              1.6389  XYZ=             11.2898
 Hexadecapole moment (field-independent basis, Debye-Ang**3):
 XXXX=          -9394.7146 YYYY=          -1402.9824 ZZZZ=           -398.1399 XXXY=           -105.3953
 XXXZ=           -130.2753 YYYX=             21.1203 YYYZ=             -9.8213 ZZZX=             10.3492
 ZZZY=              2.8067 XXYY=          -1397.5559 XXZZ=          -1195.1752 YYZZ=           -302.8453
 XXYZ=            -64.7063 YYXZ=            -18.7622 ZZXY=              3.7123
 N-N= 1.670911393598D+03 E-N=-5.318900492433D+03  KE= 8.443678640319D+02

 **********************************************************************

            Electrostatic Properties Using The SCF Density.

 **********************************************************************

       Atomic Center    1 is at   4.685242 -0.154560 -0.047938
       Atomic Center    2 is at   5.924336 -0.089281 -0.161508
       Atomic Center    3 is at   3.829004  0.973554 -0.168031
       Atomic Center    4 is at   2.491593  0.909243  0.062331
       Atomic Center    5 is at   1.786799 -0.394804  0.260000
       Atomic Center    6 is at   2.637874 -1.553287 -0.260052
       Atomic Center    7 is at   4.038503 -1.456675  0.318966
       Atomic Center    8 is at   1.715058  2.150393  0.264747
       Atomic Center    9 is at   0.274085  2.100959 -0.231732
       Atomic Center   10 is at  -0.415849  0.812160  0.206175
       Atomic Center   11 is at   0.372900 -0.383212 -0.353511
       Atomic Center   12 is at  -1.846201  0.746163 -0.310764
       Atomic Center   13 is at  -2.558167 -0.568794  0.041264
       Atomic Center   14 is at  -1.790407 -1.718495 -0.599275
       Atomic Center   15 is at  -0.339383 -1.721145 -0.114910
       Atomic Center   16 is at  -2.841684  1.817158  0.139664
       Atomic Center   17 is at  -4.213308  1.195257 -0.182930
       Atomic Center   18 is at  -3.939208 -0.278324 -0.580349
       Atomic Center   19 is at  -2.714345 -0.825827  1.543011
       Atomic Center   20 is at  -4.976901 -1.154027 -0.226164
       Atomic Center   21 is at   4.301060  1.928398 -0.354383
       Atomic Center   22 is at   1.674672 -0.510967  1.350116
       Atomic Center   23 is at   2.683989 -1.516842 -1.352702
       Atomic Center   24 is at   2.205327 -2.508549  0.034676
       Atomic Center   25 is at   3.972203 -1.475782  1.411327
       Atomic Center   26 is at   4.661080 -2.295172  0.000328
       Atomic Center   27 is at   2.236503  3.007444 -0.161787
       Atomic Center   28 is at   1.698148  2.305457  1.358485
       Atomic Center   29 is at   0.268789  2.163462 -1.323407
       Atomic Center   30 is at  -0.265374  2.967880  0.150447
       Atomic Center   31 is at  -0.413144  0.770707  1.297557
       Atomic Center   32 is at   0.470923 -0.240982 -1.438253
       Atomic Center   33 is at  -1.794534  0.786969 -1.407124
       Atomic Center   34 is at  -1.812718 -1.608311 -1.686854
       Atomic Center   35 is at  -2.259982 -2.670385 -0.346146
       Atomic Center   36 is at  -0.304234 -1.967447  0.946362
       Atomic Center   37 is at   0.188303 -2.509527 -0.652389
       Atomic Center   38 is at  -2.694222  2.763460 -0.376784
       Atomic Center   39 is at  -2.734722  2.007593  1.206653
       Atomic Center   40 is at  -4.717635  1.732319 -0.987255
       Atomic Center   41 is at  -4.876408  1.217061  0.683388
       Atomic Center   42 is at  -3.857736 -0.367304 -1.669525
       Atomic Center   43 is at  -3.404781 -0.125874  2.005288
       Atomic Center   44 is at  -3.086384 -1.837423  1.695614
       Atomic Center   45 is at  -1.762904 -0.748370  2.056764
       Atomic Center   46 is at  -4.990735 -1.219932  0.740986
 -----------------------------------------------------------------

              Electrostatic Properties (Atomic Units)

 -----------------------------------------------------------------
    Center     Electric         -------- Electric Field --------
               Potential          X             Y             Z
 -----------------------------------------------------------------
    1 Atom    -14.675518      0.004240     -0.003754     -0.000500
    2 Atom    -22.354578      0.104214      0.005045     -0.009747
    3 Atom    -14.749248     -0.009435      0.000994      0.001489
    4 Atom    -14.710393      0.012821     -0.000181     -0.002549
    5 Atom    -14.720355     -0.002315     -0.004509     -0.002875
    6 Atom    -14.734404      0.000001     -0.000554      0.000841
    7 Atom    -14.744142      0.001220     -0.000941     -0.002968
    8 Atom    -14.726610     -0.002360      0.002920     -0.000735
    9 Atom    -14.733212     -0.002072     -0.002103      0.000214
   10 Atom    -14.730781     -0.001153      0.000039     -0.003971
   11 Atom    -14.726645     -0.002039      0.000262      0.002185
   12 Atom    -14.737349     -0.000141     -0.001511      0.004243
   13 Atom    -14.733298     -0.000863      0.000843     -0.005788
   14 Atom    -14.743279     -0.002260      0.002276      0.001836
   15 Atom    -14.738049     -0.000660      0.000346     -0.001894
   16 Atom    -14.740541      0.001306     -0.000330     -0.000897
   17 Atom    -14.745512     -0.000700     -0.002619     -0.001251
   18 Atom    -14.694273      0.018923      0.013250     -0.004640
   19 Atom    -14.738970      0.001760      0.000403     -0.003429
   20 Atom    -22.314374     -0.069831     -0.053193     -0.075584
   21 Atom     -1.107712      0.017954      0.032392     -0.005306
   22 Atom     -1.101391     -0.005550     -0.006961      0.032284
   23 Atom     -1.116745      0.000179     -0.001030     -0.032581
   24 Atom     -1.118159     -0.014284     -0.029047      0.006087
   25 Atom     -1.106595      0.000821     -0.005201      0.033987
   26 Atom     -1.118909      0.022421     -0.020091     -0.007758
   27 Atom     -1.108205      0.016855      0.026381     -0.011530
   28 Atom     -1.099784     -0.000534      0.008763      0.027778
   29 Atom     -1.116523     -0.002471      0.003690     -0.033064
   30 Atom     -1.116689     -0.017350      0.027123      0.009506
   31 Atom     -1.115084     -0.001443     -0.001218      0.036140
   32 Atom     -1.116727      0.003019      0.003874     -0.032640
   33 Atom     -1.121237      0.001831      0.001276     -0.033072
   34 Atom     -1.123568     -0.002551      0.000328     -0.033087
   35 Atom     -1.126307     -0.016014     -0.029567      0.003250
   36 Atom     -1.118546      0.002565     -0.011363      0.033288
   37 Atom     -1.121873      0.016400     -0.024827     -0.013370
   38 Atom     -1.124034      0.004854      0.030105     -0.014548
   39 Atom     -1.122323      0.003400      0.007898      0.033699
   40 Atom     -1.125476     -0.017256      0.014500     -0.021942
   41 Atom     -1.121368     -0.022444      0.002411      0.023648
   42 Atom     -1.126490      0.002384     -0.002299     -0.031087
   43 Atom     -1.105731     -0.019619      0.023401      0.019586
   44 Atom     -1.107258     -0.009914     -0.032207      0.007528
   45 Atom     -1.107579      0.028622      0.001968      0.019933
   46 Atom     -0.998068     -0.004771     -0.005515      0.040232
 -----------------------------------------------------------------
 -----------------------------------------------------
    Center         ---- Electric Field Gradient ----
                     XX            YY            ZZ
 -----------------------------------------------------
    1 Atom     -493.311020   -493.250310   -493.963073
    2 Atom    -1217.179791  -1214.642832  -1217.537081
    3 Atom     -493.143615   -493.199202   -493.438570
    4 Atom     -493.210336   -493.285340   -493.859613
    5 Atom     -492.774072   -492.810707   -492.808775
    6 Atom     -492.652791   -492.626040   -492.625309
    7 Atom     -492.737321   -492.750629   -492.768147
    8 Atom     -492.597239   -492.629896   -492.620295
    9 Atom     -492.689701   -492.639388   -492.646496
   10 Atom     -492.781829   -492.800983   -492.798176
   11 Atom     -492.847835   -492.807550   -492.820310
   12 Atom     -492.925813   -492.937906   -492.929260
   13 Atom     -492.928016   -492.926742   -492.998197
   14 Atom     -492.732597   -492.696870   -492.714890
   15 Atom     -492.658700   -492.662484   -492.640667
   16 Atom     -492.670690   -492.620693   -492.610665
   17 Atom     -492.744531   -492.729160   -492.711613
   18 Atom     -492.912696   -492.871614   -492.688269
   19 Atom     -492.600204   -492.603646   -492.613594
   20 Atom    -1214.054621  -1213.577955  -1215.351282
   21 Atom       -1.701678     -1.978013     -1.612955
   22 Atom       -1.623998     -1.625069     -2.021741
   23 Atom       -1.623303     -1.619436     -2.052345
   24 Atom       -1.707933     -1.975999     -1.664093
   25 Atom       -1.608208     -1.606773     -2.040164
   26 Atom       -1.749217     -1.866885     -1.644057
   27 Atom       -1.729043     -1.897451     -1.686881
   28 Atom       -1.602774     -1.612341     -2.003571
   29 Atom       -1.629404     -1.629115     -2.061846
   30 Atom       -1.741631     -1.912504     -1.684154
   31 Atom       -1.645139     -1.645067     -2.079469
   32 Atom       -1.640458     -1.644912     -2.043890
   33 Atom       -1.651775     -1.645091     -2.061118
   34 Atom       -1.631319     -1.634483     -2.061975
   35 Atom       -1.710077     -1.966783     -1.653625
   36 Atom       -1.636095     -1.656120     -2.056980
   37 Atom       -1.742451     -1.866959     -1.739353
   38 Atom       -1.642024     -1.974765     -1.735235
   39 Atom       -1.638255     -1.645782     -2.065557
   40 Atom       -1.720033     -1.733746     -1.869150
   41 Atom       -1.786819     -1.628172     -1.909198
   42 Atom       -1.674122     -1.669032     -2.081212
   43 Atom       -1.803418     -1.805716     -1.701181
   44 Atom       -1.667021     -2.000904     -1.620712
   45 Atom       -1.972335     -1.612333     -1.718436
   46 Atom       -1.445587     -1.438259     -2.094270
 -----------------------------------------------------
 -----------------------------------------------------
    Center         ---- Electric Field Gradient ----
                     XY            XZ            YZ
 -----------------------------------------------------
    1 Atom       -0.025068     -0.047500     -0.153432
    2 Atom       -0.154696      0.008449     -0.605322
    3 Atom       -0.013976     -0.049638     -0.032230
    4 Atom       -0.002050     -0.107714     -0.010987
    5 Atom       -0.020597     -0.010565     -0.003242
    6 Atom        0.025352     -0.003048     -0.025934
    7 Atom       -0.008656     -0.033909     -0.000054
    8 Atom        0.021636     -0.018586     -0.010689
    9 Atom       -0.006386     -0.016287      0.020378
   10 Atom       -0.003297      0.006638     -0.001633
   11 Atom       -0.006126     -0.015697     -0.008958
   12 Atom        0.013526     -0.008080      0.005138
   13 Atom        0.000120      0.014287      0.017612
   14 Atom        0.004666     -0.011794     -0.018080
   15 Atom       -0.021035     -0.005768      0.017981
   16 Atom       -0.003231     -0.002202     -0.015733
   17 Atom       -0.017597     -0.002614     -0.025498
   18 Atom       -0.180357      0.099210      0.095190
   19 Atom        0.001054      0.011573      0.008444
   20 Atom       -1.242386      0.507997      0.597719
   21 Atom       -0.173096      0.036234      0.071521
   22 Atom       -0.004088      0.044201      0.045157
   23 Atom        0.001465      0.016541      0.013565
   24 Atom       -0.155130      0.047504      0.104879
   25 Atom       -0.002213      0.027569      0.009288
   26 Atom        0.191479      0.072066     -0.099376
   27 Atom       -0.164284      0.083722      0.137593
   28 Atom        0.004098      0.007573     -0.058391
   29 Atom       -0.002323     -0.003717      0.024147
   30 Atom        0.173591      0.076301     -0.124745
   31 Atom       -0.001475     -0.000770      0.018355
   32 Atom       -0.004922      0.036334      0.054202
   33 Atom       -0.001455      0.019563      0.014685
   34 Atom        0.003550     -0.008783      0.044537
   35 Atom       -0.165048      0.045356      0.088929
   36 Atom        0.001234     -0.014766      0.097449
   37 Atom        0.154869      0.105357     -0.157658
   38 Atom       -0.054175      0.028480      0.187414
   39 Atom       -0.008088     -0.042162     -0.076068
   40 Atom        0.100065     -0.152072      0.161702
   41 Atom        0.004225      0.214991     -0.004745
   42 Atom       -0.004061      0.036890     -0.029778
   43 Atom        0.188999      0.122932     -0.125226
   44 Atom       -0.144745      0.022618      0.059421
   45 Atom       -0.029711     -0.192646     -0.015636
   46 Atom       -0.028637      0.012158      0.046056
 -----------------------------------------------------
 -----------------------------------------------------
    Center         ---- Electric Field Gradient ----
                   ----       Eigenvalues       ----
 -----------------------------------------------------
    1 Atom     -493.998569   -493.309598   -493.216235
    2 Atom    -1217.659621  -1217.187567  -1214.512516
    3 Atom     -493.451306   -493.195799   -493.134282
    4 Atom     -493.877227   -493.285130   -493.192932
    5 Atom     -492.823787   -492.806491   -492.763276
    6 Atom     -492.671256   -492.640280   -492.592604
    7 Atom     -492.790552   -492.751505   -492.714039
    8 Atom     -492.640809   -492.630528   -492.576093
    9 Atom     -492.695156   -492.661581   -492.618848
   10 Atom     -492.801740   -492.800379   -492.778869
   11 Atom     -492.856724   -492.816133   -492.802838
   12 Atom     -492.950353   -492.927001   -492.915625
   13 Atom     -493.004818   -492.927674   -492.920464
   14 Atom     -492.738984   -492.721862   -492.683511
   15 Atom     -492.684066   -492.654854   -492.622931
   16 Atom     -492.671083   -492.631799   -492.599167
   17 Atom     -492.762287   -492.730961   -492.692055
   18 Atom     -493.117652   -492.710960   -492.643967
   19 Atom     -492.622795   -492.603527   -492.591122
   20 Atom    -1216.003556  -1214.436366  -1212.543937
   21 Atom       -2.075223     -1.618500     -1.598922
   22 Atom       -2.031648     -1.620543     -1.618617
   23 Atom       -2.053402     -1.623538     -1.618145
   24 Atom       -2.078933     -1.636991     -1.632102
   25 Atom       -2.042120     -1.608133     -1.604892
   26 Atom       -2.045865     -1.608348     -1.605945
   27 Atom       -2.066235     -1.628648     -1.618491
   28 Atom       -2.012259     -1.606233     -1.600194
   29 Atom       -2.063219     -1.631222     -1.625923
   30 Atom       -2.075220     -1.633849     -1.629219
   31 Atom       -2.080244     -1.646280     -1.643151
   32 Atom       -2.054370     -1.637691     -1.637199
   33 Atom       -2.062571     -1.650932     -1.644482
   34 Atom       -2.066756     -1.633212     -1.627809
   35 Atom       -2.071362     -1.631199     -1.627924
   36 Atom       -2.079899     -1.636966     -1.632330
   37 Atom       -2.077842     -1.637945     -1.632977
   38 Atom       -2.085851     -1.634237     -1.631936
   39 Atom       -2.083059     -1.634346     -1.632190
   40 Atom       -2.071135     -1.626766     -1.625027
   41 Atom       -2.071628     -1.628153     -1.624408
   42 Atom       -2.086583     -1.675854     -1.661928
   43 Atom       -2.075773     -1.619242     -1.615300
   44 Atom       -2.064035     -1.613120     -1.611483
   45 Atom       -2.078517     -1.614694     -1.609894
   46 Atom       -2.097794     -1.468343     -1.411979
 -----------------------------------------------------
 -----------------------------------------------------
    Center         ---- Electric Field Gradient ----
                       ( tensor representation )
                   3XX-RR        3YY-RR        3ZZ-RR
 -----------------------------------------------------
    1 Atom        0.197115      0.257824     -0.454938
    2 Atom       -0.726556      1.810403     -1.083847
    3 Atom        0.116847      0.061260     -0.178107
    4 Atom        0.241427      0.166423     -0.407850
    5 Atom        0.023779     -0.012855     -0.010924
    6 Atom       -0.018077      0.008673      0.009404
    7 Atom        0.014711      0.001404     -0.016114
    8 Atom        0.018571     -0.014086     -0.004485
    9 Atom       -0.031172      0.019140      0.012032
   10 Atom        0.011834     -0.007320     -0.004514
   11 Atom       -0.022603      0.017681      0.004922
   12 Atom        0.005180     -0.006913      0.001733
   13 Atom        0.022969      0.024243     -0.047212
   14 Atom       -0.017811      0.017916     -0.000104
   15 Atom       -0.004750     -0.008534      0.013284
   16 Atom       -0.036674      0.013323      0.023351
   17 Atom       -0.016096     -0.000725      0.016822
   18 Atom       -0.088503     -0.047421      0.135924
   19 Atom        0.005611      0.002169     -0.007780
   20 Atom        0.273332      0.749998     -1.023329
   21 Atom        0.062537     -0.213797      0.151260
   22 Atom        0.132938      0.131867     -0.264805
   23 Atom        0.141725      0.145592     -0.287317
   24 Atom        0.074742     -0.193324      0.118582
   25 Atom        0.143507      0.144942     -0.288449
   26 Atom        0.004169     -0.113499      0.109330
   27 Atom        0.042082     -0.126326      0.084243
   28 Atom        0.136787      0.127221     -0.264009
   29 Atom        0.144051      0.144340     -0.288391
   30 Atom        0.037798     -0.133074      0.095276
   31 Atom        0.144752      0.144825     -0.289577
   32 Atom        0.135962      0.131508     -0.267470
   33 Atom        0.134220      0.140904     -0.275124
   34 Atom        0.144607      0.141442     -0.286049
   35 Atom        0.066751     -0.189954      0.123203
   36 Atom        0.146970      0.126945     -0.273915
   37 Atom        0.040470     -0.084038      0.043568
   38 Atom        0.141984     -0.190757      0.048773
   39 Atom        0.144943      0.137416     -0.282359
   40 Atom        0.054277      0.040563     -0.094840
   41 Atom       -0.012089      0.146557     -0.134468
   42 Atom        0.134000      0.139090     -0.273090
   43 Atom       -0.033313     -0.035611      0.068924
   44 Atom        0.095858     -0.238025      0.142167
   45 Atom       -0.204634      0.155369      0.049265
   46 Atom        0.213785      0.221113     -0.434898
 -----------------------------------------------------
 -----------------------------------------------------
    Center         ---- Electric Field Gradient ----
                       ( tensor representation )
                   ----       Eigenvalues       ----
 -----------------------------------------------------
    1 Atom       -0.490435      0.198536      0.291899
    2 Atom       -1.206387     -0.734332      1.940719
    3 Atom       -0.190844      0.064664      0.126180
    4 Atom       -0.425464      0.166633      0.258831
    5 Atom       -0.025936     -0.008640      0.034575
    6 Atom       -0.036543     -0.005567      0.042110
    7 Atom       -0.038520      0.000527      0.037994
    8 Atom       -0.024999     -0.014718      0.039717
    9 Atom       -0.036628     -0.003052      0.039680
   10 Atom       -0.008077     -0.006716      0.014793
   11 Atom       -0.031493      0.009099      0.022394
   12 Atom       -0.019360      0.003992      0.015368
   13 Atom       -0.053833      0.023311      0.030521
   14 Atom       -0.024198     -0.007076      0.031275
   15 Atom       -0.030116     -0.000904      0.031019
   16 Atom       -0.037067      0.002218      0.034849
   17 Atom       -0.033853     -0.002526      0.036379
   18 Atom       -0.293459      0.113233      0.180226
   19 Atom       -0.016980      0.002287      0.014693
   20 Atom       -1.675603     -0.108413      1.784016
   21 Atom       -0.311008      0.145715      0.165293
   22 Atom       -0.274712      0.136393      0.138319
   23 Atom       -0.288373      0.141490      0.146883
   24 Atom       -0.296258      0.145684      0.150573
   25 Atom       -0.290405      0.143582      0.146823
   26 Atom       -0.292479      0.145038      0.147441
   27 Atom       -0.295111      0.142477      0.152634
   28 Atom       -0.272697      0.133329      0.139368
   29 Atom       -0.289764      0.142232      0.147531
   30 Atom       -0.295791      0.145580      0.150211
   31 Atom       -0.290352      0.143612      0.146740
   32 Atom       -0.277950      0.138730      0.139221
   33 Atom       -0.276577      0.135063      0.141513
   34 Atom       -0.290830      0.142713      0.148117
   35 Atom       -0.294534      0.145629      0.148904
   36 Atom       -0.296834      0.146099      0.150735
   37 Atom       -0.294921      0.144976      0.149944
   38 Atom       -0.301843      0.149771      0.152072
   39 Atom       -0.299861      0.148852      0.151009
   40 Atom       -0.296826      0.147543      0.149282
   41 Atom       -0.296898      0.146576      0.150322
   42 Atom       -0.278462      0.132268      0.146193
   43 Atom       -0.305668      0.150863      0.154805
   44 Atom       -0.301156      0.149759      0.151396
   45 Atom       -0.310815      0.153007      0.157808
   46 Atom       -0.438422      0.191029      0.247393
 -----------------------------------------------------
 Unable to Open any file for archive entry.
 1\1\GINC-EXP-3-13\SP\RwB97XD\6-31G(d)\C18H26O2\HKLEM\12-Aug-2024\0\\# 
 wb97xd 6-31G(d) prop=efg\\19nt_mm_min_distance_cutoff4_xtb_ligand_conf
 _1\\0,1\C,0,42.8379,42.2487,31.1247\O,0,42.4802,41.1942,31.6838\C,0,43
 .0316,43.4741,31.8183\C,0,43.3183,44.6407,31.1837\C,0,43.6536,44.6848,
 29.727\C,0,44.0508,43.2978,29.2217\C,0,42.9977,42.2843,29.6342\C,0,43.
 1669,45.927,31.8957\C,0,44.15,47.0164,31.4809\C,0,44.2581,47.1119,29.9
 617\C,0,44.7213,45.7516,29.4146\C,0,45.2593,48.1797,29.5435\C,0,45.458
 8,48.2615,28.0225\C,0,45.9941,46.9211,27.5343\C,0,45.0288,45.7961,27.9
 12\C,0,44.9952,49.6329,29.9427\C,0,45.9092,50.439,29.0009\C,0,46.4663,
 49.4276,27.9659\C,0,44.199,48.6321,27.2343\O,0,46.6939,49.9916,26.7013
 \H,0,42.8399,43.4695,32.8825\H,0,42.7246,44.9854,29.2161\H,0,45.0219,4
 3.016,29.6399\H,0,44.1296,43.2942,28.1353\H,0,42.0307,42.5913,29.2235\
 H,0,43.2302,41.2885,29.2514\H,0,43.1956,45.7779,32.9752\H,0,42.146,46.
 2729,31.6534\H,0,45.1336,46.7908,31.902\H,0,43.8239,47.9695,31.8979\H,
 0,43.2715,47.3494,29.5579\H,0,45.6453,45.4764,29.9409\H,0,46.2309,47.8
 943,29.9688\H,0,46.9706,46.7331,27.9888\H,0,46.1235,46.9408,26.451\H,0
 ,44.0988,45.9038,27.3537\H,0,45.4849,44.8526,27.6109\H,0,45.2232,49.82
 31,30.9895\H,0,43.9468,49.8831,29.7864\H,0,46.7168,50.9276,29.5475\H,0
 ,45.3557,51.2208,28.4783\H,0,47.4465,49.0583,28.2879\H,0,43.8879,49.65
 57,27.4235\H,0,44.3966,48.517,26.17\H,0,43.3716,47.9777,27.484\H,0,45.
 8313,50.2024,26.3122\\Version=ES64L-G16RevC.01\State=1-A\HF=-851.79002
 52\RMSD=4.409e-09\Dipole=-0.1151249,1.6092682,-0.5234346\Quadrupole=4.
 9509479,-12.1515336,7.2005857,-13.4260685,8.5558832,13.4811766\PG=C01 
 [X(C18H26O2)]\\@
 The archive entry for this job was punched.


 WORK FAITHFULLY FOR EIGHT HOURS A DAY AND DON'T WORRY.
 IN TIME YOU MAY BECOME BOSS AND WORK TWELVE HOURS A DAY
 AND HAVE ALL THE WORRY.
 Job cpu time:       0 days  0 hours 11 minutes 13.6 seconds.
 Elapsed time:       0 days  0 hours  0 minutes 29.0 seconds.
 File lengths (MBytes):  RWF=     71 Int=      0 D2E=      0 Chk=      8 Scr=      1
 Normal termination of Gaussian 16 at Mon Aug 12 07:19:59 2024.
