 Entering Gaussian System, Link 0=g16
 Initial command:
 /cm/shared/apps/spack/cpu/opt/spack/linux-centos8-zen/gcc-8.3.1/gaussian-16.C.01-po5bqktfeugvmjyga3v7eigbecnokxng/g16/l1.exe "/scratch/hklem/job_32994899/Gau-1189840.inp" -scrdir="/scratch/hklem/job_32994899/"
 Entering Link 1 = /cm/shared/apps/spack/cpu/opt/spack/linux-centos8-zen/gcc-8.3.1/gaussian-16.C.01-po5bqktfeugvmjyga3v7eigbecnokxng/g16/l1.exe PID=   1189841.
  
 Copyright (c) 1988-2019, Gaussian, Inc.  All Rights Reserved.
  
 This is part of the Gaussian(R) 16 program.  It is based on
 the Gaussian(R) 09 system (copyright 2009, Gaussian, Inc.),
 the Gaussian(R) 03 system (copyright 2003, Gaussian, Inc.),
 the Gaussian(R) 98 system (copyright 1998, Gaussian, Inc.),
 the Gaussian(R) 94 system (copyright 1995, Gaussian, Inc.),
 the Gaussian 92(TM) system (copyright 1992, Gaussian, Inc.),
 the Gaussian 90(TM) system (copyright 1990, Gaussian, Inc.),
 the Gaussian 88(TM) system (copyright 1988, Gaussian, Inc.),
 the Gaussian 86(TM) system (copyright 1986, Carnegie Mellon
 University), and the Gaussian 82(TM) system (copyright 1983,
 Carnegie Mellon University). Gaussian is a federally registered
 trademark of Gaussian, Inc.
  
 This software contains proprietary and confidential information,
 including trade secrets, belonging to Gaussian, Inc.
  
 This software is provided under written license and may be
 used, copied, transmitted, or stored only in accord with that
 written license.
  
 The following legend is applicable only to US Government
 contracts under FAR:
  
                    RESTRICTED RIGHTS LEGEND
  
 Use, reproduction and disclosure by the US Government is
 subject to restrictions as set forth in subparagraphs (a)
 and (c) of the Commercial Computer Software - Restricted
 Rights clause in FAR 52.227-19.
  
 Gaussian, Inc.
 340 Quinnipiac St., Bldg. 40, Wallingford CT 06492
  
  
 ---------------------------------------------------------------
 Warning -- This program may not be used in any manner that
 competes with the business of Gaussian, Inc. or will provide
 assistance to any competitor of Gaussian, Inc.  The licensee
 of this program is prohibited from giving any competitor of
 Gaussian, Inc. access to this program.  By using this program,
 the user acknowledges that Gaussian, Inc. is engaged in the
 business of creating and licensing software in the field of
 computational chemistry and represents and warrants to the
 licensee that it is not a competitor of Gaussian, Inc. and that
 it will not use this program in any manner prohibited above.
 ---------------------------------------------------------------
  

 Cite this work as:
 Gaussian 16, Revision C.01,
 M. J. Frisch, G. W. Trucks, H. B. Schlegel, G. E. Scuseria, 
 M. A. Robb, J. R. Cheeseman, G. Scalmani, V. Barone, 
 G. A. Petersson, H. Nakatsuji, X. Li, M. Caricato, A. V. Marenich, 
 J. Bloino, B. G. Janesko, R. Gomperts, B. Mennucci, H. P. Hratchian, 
 J. V. Ortiz, A. F. Izmaylov, J. L. Sonnenberg, D. Williams-Young, 
 F. Ding, F. Lipparini, F. Egidi, J. Goings, B. Peng, A. Petrone, 
 T. Henderson, D. Ranasinghe, V. G. Zakrzewski, J. Gao, N. Rega, 
 G. Zheng, W. Liang, M. Hada, M. Ehara, K. Toyota, R. Fukuda, 
 J. Hasegawa, M. Ishida, T. Nakajima, Y. Honda, O. Kitao, H. Nakai, 
 T. Vreven, K. Throssell, J. A. Montgomery, Jr., J. E. Peralta, 
 F. Ogliaro, M. J. Bearpark, J. J. Heyd, E. N. Brothers, K. N. Kudin, 
 V. N. Staroverov, T. A. Keith, R. Kobayashi, J. Normand, 
 K. Raghavachari, A. P. Rendell, J. C. Burant, S. S. Iyengar, 
 J. Tomasi, M. Cossi, J. M. Millam, M. Klene, C. Adamo, R. Cammi, 
 J. W. Ochterski, R. L. Martin, K. Morokuma, O. Farkas, 
 J. B. Foresman, and D. J. Fox, Gaussian, Inc., Wallingford CT, 2019.
 
 ******************************************
 Gaussian 16:  ES64L-G16RevC.01  3-Jul-2019
                12-Aug-2024 
 ******************************************
 %nprocshared=24
 Will use up to   24 processors via shared memory.
 %mem=48GB
 --------------------------
 # wb97xd 6-31G(d) prop=efg
 --------------------------
 1/38=1,172=1/1;
 2/12=2,17=6,18=5,40=1/2;
 3/5=1,6=6,7=1,11=2,25=1,30=1,74=-58/1,2,3;
 4//1;
 5/5=2,38=5/2;
 6/7=2,8=2,9=2,10=2,14=1,28=1/1,2;
 99/5=1,9=1/99;
 ----------------------------------------------
 19nt_mm_min_distance_cutoff3_xtb_ligand_conf_1
 ----------------------------------------------
 Symbolic Z-matrix:
 Charge =  0 Multiplicity = 1
 C                     42.6109   41.7355   31.0767 
 O                     42.1692   40.7236   31.6527 
 C                     42.9182   42.9451   31.7562 
 C                     43.26     44.0947   31.1154 
 C                     43.4826   44.1162   29.6379 
 C                     43.8286   42.7132   29.1352 
 C                     42.7664   41.7246   29.5825 
 C                     43.2632   45.3754   31.849 
 C                     44.2287   46.4348   31.3246 
 C                     44.1472   46.5317   29.8038 
 C                     44.5287   45.162    29.2126 
 C                     45.0868   47.5932   29.2409 
 C                     45.0248   47.6456   27.7097 
 C                     45.5325   46.3171   27.1653 
 C                     44.6654   45.1728   27.6837 
 C                     44.8961   49.0579   29.6518 
 C                     45.5241   49.8695   28.4968 
 C                     45.9526   48.8398   27.4324 
 C                     43.6316   47.9632   27.1655 
 O                     45.8664   49.3602   26.1238 
 H                     42.7801   42.9488   32.8284 
 H                     42.5198   44.4152   29.1937 
 H                     44.8028   42.4145   29.5332 
 H                     43.8819   42.6993   28.0474 
 H                     41.7991   42.0148   29.159 
 H                     42.9855   40.7116   29.238 
 H                     43.4142   45.2086   32.9163 
 H                     42.2311   45.7601   31.7376 
 H                     45.2501   46.1829   31.6238 
 H                     43.9816   47.3966   31.7752 
 H                     43.1165   46.7698   29.5333 
 H                     45.5013   44.8749   29.6356 
 H                     46.1107   47.3043   29.5135 
 H                     46.5664   46.17     27.4934 
 H                     45.5223   46.313    26.0745 
 H                     43.6753   45.2289   27.2318 
 H                     45.1226   44.2371   27.3594 
 H                     45.38     49.2756   30.6024 
 H                     43.8384   49.2891   29.7655 
 H                     46.3698   50.4689   28.8343 
 H                     44.8058   50.5556   28.0489 
 H                     46.9956   48.5273   27.6132 
 H                     42.9253   47.177    27.3994 
 H                     43.2527   48.8949   27.5726 
 H                     43.675    48.0581   26.0844 
 H                     45.7312   48.604    25.5277 
 
                          Input orientation:                          
 ---------------------------------------------------------------------
 Center     Atomic      Atomic             Coordinates (Angstroms)
 Number     Number       Type             X           Y           Z
 ---------------------------------------------------------------------
      1          6           0       42.610900   41.735500   31.076700
      2          8           0       42.169200   40.723600   31.652700
      3          6           0       42.918200   42.945100   31.756200
      4          6           0       43.260000   44.094700   31.115400
      5          6           0       43.482600   44.116200   29.637900
      6          6           0       43.828600   42.713200   29.135200
      7          6           0       42.766400   41.724600   29.582500
      8          6           0       43.263200   45.375400   31.849000
      9          6           0       44.228700   46.434800   31.324600
     10          6           0       44.147200   46.531700   29.803800
     11          6           0       44.528700   45.162000   29.212600
     12          6           0       45.086800   47.593200   29.240900
     13          6           0       45.024800   47.645600   27.709700
     14          6           0       45.532500   46.317100   27.165300
     15          6           0       44.665400   45.172800   27.683700
     16          6           0       44.896100   49.057900   29.651800
     17          6           0       45.524100   49.869500   28.496800
     18          6           0       45.952600   48.839800   27.432400
     19          6           0       43.631600   47.963200   27.165500
     20          8           0       45.866400   49.360200   26.123800
     21          1           0       42.780100   42.948800   32.828400
     22          1           0       42.519800   44.415200   29.193700
     23          1           0       44.802800   42.414500   29.533200
     24          1           0       43.881900   42.699300   28.047400
     25          1           0       41.799100   42.014800   29.159000
     26          1           0       42.985500   40.711600   29.238000
     27          1           0       43.414200   45.208600   32.916300
     28          1           0       42.231100   45.760100   31.737600
     29          1           0       45.250100   46.182900   31.623800
     30          1           0       43.981600   47.396600   31.775200
     31          1           0       43.116500   46.769800   29.533300
     32          1           0       45.501300   44.874900   29.635600
     33          1           0       46.110700   47.304300   29.513500
     34          1           0       46.566400   46.170000   27.493400
     35          1           0       45.522300   46.313000   26.074500
     36          1           0       43.675300   45.228900   27.231800
     37          1           0       45.122600   44.237100   27.359400
     38          1           0       45.380000   49.275600   30.602400
     39          1           0       43.838400   49.289100   29.765500
     40          1           0       46.369800   50.468900   28.834300
     41          1           0       44.805800   50.555600   28.048900
     42          1           0       46.995600   48.527300   27.613200
     43          1           0       42.925300   47.177000   27.399400
     44          1           0       43.252700   48.894900   27.572600
     45          1           0       43.675000   48.058100   26.084400
     46          1           0       45.731200   48.604000   25.527700
 ---------------------------------------------------------------------
                    Distance matrix (angstroms):
                    1          2          3          4          5
     1  C    0.000000
     2  O    1.245318   0.000000
     3  C    1.421016   2.346652   0.000000
     4  C    2.447172   3.583692   1.359791   0.000000
     5  C    2.915088   4.158626   2.485401   1.494329   0.000000
     6  C    2.491608   3.612468   2.784286   2.480532   1.529978
     7  C    1.502309   2.375790   2.497526   2.865449   2.497151
     8  C    3.777673   4.782741   2.456419   1.475931   2.553955
     9  C    4.976158   6.080049   3.752558   2.541301   2.962689
    10  C    5.194615   6.408193   4.264505   2.906267   2.510748
    11  C    4.346692   5.587551   3.738751   2.523762   1.539124
    12  C    6.619131   7.843505   5.712652   4.369262   3.849753
    13  C    7.217540   8.462611   6.550315   5.227064   4.307319
    14  C    6.695211   7.920593   6.267480   5.070168   3.893559
    15  C    5.248662   6.463695   4.959900   3.861867   2.516807
    16  C    7.801924   8.994451   6.760689   5.426998   5.139900
    17  C    9.016905  10.240241   8.084659   6.732869   6.210499
    18  C    8.655574   9.899381   7.915195   6.582595   5.768668
    19  C    7.424524   8.642071   6.838479   5.541217   4.575409
    20  O    9.657409  10.900866   9.031574   7.709402   6.747662
    21  H    2.137564   2.589785   1.081063   2.116072   3.469239
    22  H    3.276397   4.449440   2.980994   2.084118   1.101680
    23  H    2.765476   3.779851   2.962260   2.776087   2.156310
    24  H    3.423596   4.453641   3.839835   3.427320   2.167196
    25  H    2.101095   2.832439   2.977128   3.207447   2.734849
    26  H    2.137642   2.548973   3.366658   3.878833   3.463861
    27  H    4.011464   4.823063   2.591386   2.123156   3.456287
    28  H    4.096150   5.037596   2.897702   2.054100   2.945743
    29  H    5.200391   6.268711   3.992322   2.929087   3.367359
    30  H    5.866411   6.915832   4.576793   3.443630   3.946907
    31  H    5.289791   6.476555   4.428198   3.111237   2.680777
    32  H    4.504111   5.692528   3.859207   2.796774   2.156567
    33  H    6.760453   7.963492   5.850161   4.581933   4.133566
    34  H    6.939078   8.142384   6.471538   5.325226   4.280981
    35  H    7.379144   8.579102   7.099704   5.953951   4.656622
    36  H    5.302834   6.489254   5.124367   4.067091   2.657922
    37  H    5.136629   6.284877   5.085321   4.194889   2.809943
    38  H    8.046489   9.195057   6.889626   5.621325   5.581200
    39  H    7.764205   8.928356   6.712376   5.398015   5.186692
    40  H    9.768826  10.979949   8.778303   7.450148   7.024137
    41  H    9.580153  10.798484   8.673339   7.316840   6.763257
    42  H    8.794883  10.025439   8.059193   6.772596   5.991526
    43  H    6.575052   7.765862   6.073774   4.839551   3.832749
    44  H    7.996726   9.197355   7.281107   5.966021   5.210978
    45  H    8.125924   9.331039   7.673645   6.418078   5.310645
    46  H    9.365040  10.597366   8.873011   7.593616   6.487703
                    6          7          8          9         10
     6  C    0.000000
     7  C    1.518445   0.000000
     8  C    3.843396   4.325757   0.000000
     9  C    4.336342   5.230604   1.526275   0.000000
    10  C    3.889662   5.006375   2.510245   1.526062   0.000000
    11  C    2.548088   3.880496   2.932172   2.484062   1.539850
    12  C    5.040698   6.319922   3.878961   2.533778   1.525283
    13  C    5.271766   6.608025   5.038933   3.894524   2.529073
    14  C    4.446558   5.880920   5.289004   4.360450   2.987774
    15  C    2.976024   4.370552   4.399652   3.878080   2.570985
    16  C    6.454584   7.636604   4.588557   3.181876   2.639250
    17  C    7.382066   8.667355   6.045316   4.633754   3.839923
    18  C    6.704188   8.087081   6.224251   4.889282   3.769659
    19  C    5.610796   6.746154   5.363544   4.471090   3.045597
    20  O    7.576527   8.937281   7.445347   6.187758   4.949592
    21  H    3.846373   3.469109   2.661014   4.063502   4.884090
    22  H    2.147832   2.729708   2.919802   3.397037   2.738654
    23  H    1.093934   2.150655   4.062047   4.438639   4.177843
    24  H    1.089194   2.133287   4.690039   4.981392   4.224052
    25  H    2.146439   1.095097   4.546792   5.489005   5.131445
    26  H    2.174348   1.092179   5.352146   6.217271   5.961815
    27  H    4.549227   4.865401   1.090758   2.168060   3.460569
    28  H    4.313710   4.606111   1.107084   2.148533   2.829556
    29  H    4.500290   5.496554   2.156512   1.093724   2.156490
    30  H    5.378405   6.201309   2.146344   1.090485   2.159142
    31  H    4.137822   5.057572   2.707090   2.134940   1.091881
    32  H    2.778718   4.172156   3.187276   2.627836   2.146361
    33  H    5.140943   6.505548   4.157339   2.752824   2.129910
    34  H    4.705372   6.210147   5.523927   4.495893   3.364715
    35  H    5.019469   6.399567   6.271162   5.408492   3.980755
    36  H    3.158351   4.316481   4.637869   4.302494   2.921500
    37  H    2.673981   4.099574   4.990952   4.620796   3.491659
    38  H    6.901059   8.055352   4.609383   3.149160   3.112321
    39  H    6.606045   7.642273   4.470892   3.275692   2.774902
    40  H    8.166953   9.487206   6.684544   5.201910   4.624005
    41  H    7.977356   9.192260   6.607181   5.295682   4.439054
    42  H    6.793389   8.248697   6.465855   5.080234   4.110296
    43  H    4.873855   5.875359   4.812367   4.202012   2.773191
    44  H    6.402093   7.462532   5.538464   4.591533   3.370919
    45  H    6.156211   7.292152   6.371583   5.513745   4.048062
    46  H    7.164877   8.518074   7.514900   6.369222   5.008844
                   11         12         13         14         15
    11  C    0.000000
    12  C    2.494596   0.000000
    13  C    2.945011   1.533350   0.000000
    14  C    2.556034   2.476933   1.522840   0.000000
    15  C    1.535037   2.908743   2.498917   1.526441   0.000000
    16  C    3.937755   1.533151   2.404768   3.754953   4.361266
    17  C    4.864540   2.434432   2.411339   3.793746   4.843293
    18  C    4.326987   2.360994   1.537473   2.571350   3.894474
    19  C    3.583592   2.561600   1.529062   2.514571   3.020531
    20  O    5.380986   3.666930   2.482584   3.233677   4.627095
    21  H    4.585833   6.305670   7.300664   7.140858   5.913414
    22  H    2.143303   4.085511   4.348881   4.099755   2.730871
    23  H    2.779689   5.194712   5.544262   4.622737   3.323815
    24  H    2.800167   5.179429   5.087843   4.073212   2.619991
    25  H    4.166348   6.475664   6.649174   6.035139   4.512776
    26  H    4.710432   7.195268   7.387476   6.496532   5.014002
    27  H    3.868033   4.689613   5.970066   6.228159   5.380231
    28  H    3.465879   4.212931   5.252033   5.667047   4.764960
    29  H    2.715979   2.773775   4.184547   4.469450   4.109326
    30  H    3.443788   2.771786   4.204588   4.982147   4.706723
    31  H    2.163834   2.155358   2.781034   3.413124   2.893185
    32  H    1.098775   2.777904   3.407774   2.860646   2.144152
    33  H    2.680059   1.098246   2.132923   2.612072   3.159170
    34  H    2.850252   2.696010   2.144927   1.094640   2.155092
    35  H    3.487078   3.443060   2.167304   1.090855   2.150316
    36  H    2.157854   3.408626   2.808910   2.153554   1.089798
    37  H    2.154648   3.847692   3.427849   2.128871   1.090751
    38  H    4.424699   2.184060   3.339278   4.537580   5.085512
    39  H    4.220802   2.170204   2.887031   4.296952   4.686336
    40  H    5.629915   3.175069   3.323368   4.552370   5.681332
    41  H    5.524663   3.205564   2.937876   4.390185   5.397001
    42  H    4.468660   2.676839   2.161194   2.688170   4.085030
    43  H    3.149414   2.869918   2.173424   2.755308   2.669380
    44  H    4.272273   2.800280   2.172530   3.465319   3.982724
    45  H    4.347624   3.488954   2.152607   2.765815   3.444359
    46  H    5.183807   3.901900   2.485690   2.819774   4.190155
                   16         17         18         19         20
    16  C    0.000000
    17  C    1.545025   0.000000
    18  C    2.467690   1.541701   0.000000
    19  C    2.996501   2.997982   2.495336   0.000000
    20  O    3.671464   2.451058   1.410915   2.833916   0.000000
    21  H    7.203426   8.613268   8.595665   7.611682   9.776654
    22  H    5.235582   6.265850   5.870552   4.235327   6.713944
    23  H    6.645114   7.561179   6.857104   6.145387   7.810122
    24  H    6.635849   7.369569   6.509360   5.343130   7.211523
    25  H    7.709703   8.718397   8.173942   6.535714   8.928061
    26  H    8.572184   9.532104   8.839203   7.569571   9.633074
    27  H    5.260237   6.760743   7.049982   6.380187   8.329893
    28  H    4.725280   6.183349   6.470615   5.264898   7.595451
    29  H    3.504244   4.841924   5.012031   5.066108   6.381619
    30  H    2.846938   4.386621   4.982728   4.657560   6.272680
    31  H    2.901107   4.059435   4.091717   2.701112   5.088891
    32  H    4.226585   5.122833   4.558310   4.374331   5.708236
    33  H    2.137637   2.820998   2.591087   3.477526   3.971961
    34  H    3.973482   3.972342   2.740128   3.454871   3.541635
    35  H    4.552327   4.303049   2.900650   2.736455   3.066963
    36  H    4.691268   5.153004   4.273749   2.735453   4.805853
    37  H    5.342894   5.760105   4.677507   4.018022   5.322227
    38  H    1.088666   2.192495   3.250645   4.073276   4.505730
    39  H    1.088628   2.188161   3.180419   2.925881   4.168911
    40  H    2.197958   1.090135   2.189371   4.069541   2.971437
    41  H    2.195575   1.089634   2.153878   2.979879   2.501972
    42  H    2.974109   2.178890   1.103718   3.440224   2.046247
    43  H    3.534847   3.899693   3.454061   1.082441   3.878606
    44  H    2.655260   2.638797   2.704099   1.085062   3.024393
    45  H    3.900901   3.538363   2.759641   1.086125   2.549363
    46  H    4.232212   3.234182   1.931968   2.738856   0.972344
                   21         22         23         24         25
    21  H    0.000000
    22  H    3.927993   0.000000
    23  H    3.903221   3.054529   0.000000
    24  H    4.912655   2.472576   1.771093   0.000000
    25  H    3.911421   2.506498   3.053195   2.458099   0.000000
    26  H    4.235354   3.733027   2.507906   2.484354   1.764119
    27  H    2.348724   3.909883   4.602235   5.497410   5.189047
    28  H    3.065070   2.891977   4.760889   5.070623   4.567611
    29  H    4.243980   4.060134   4.332612   5.176686   5.946234
    30  H    4.726072   4.205918   5.524695   5.997588   6.369582
    31  H    5.056767   2.452656   4.670358   4.400308   4.948300
    32  H    4.616142   3.048925   2.559679   3.142940   4.702510
    33  H    6.407171   4.619928   5.061732   5.321938   6.833328
    34  H    7.292079   4.727083   4.623294   4.422580   6.539653
    35  H    8.028242   4.727162   5.261044   4.431938   6.469226
    36  H    6.109187   2.417921   3.806382   2.665851   4.191022
    37  H    6.087445   3.189192   2.854742   2.092250   4.384385
    38  H    7.193258   5.812802   6.967858   7.212493   8.223470
    39  H    7.120447   5.081394   6.945801   6.810229   7.579052
    40  H    9.240708   7.183241   8.235127   8.196069   9.616056
    41  H    9.209261   6.651381   8.275305   7.910439   9.122381
    42  H    8.722867   6.280138   6.772082   6.621876   8.473828
    43  H    6.882790   3.318355   5.546126   4.624369   5.568916
    44  H    7.950025   4.820044   6.945671   6.245541   7.208703
    45  H    8.508074   4.926759   6.709424   5.710772   7.035172
    46  H    9.694870   6.426406   7.430738   6.680889   8.489129
                   26         27         28         29         30
    26  H    0.000000
    27  H    5.825520   0.000000
    28  H    5.683702   1.758753   0.000000
    29  H    6.384010   2.447518   3.050585   0.000000
    30  H    7.219337   2.532073   2.396622   1.762124   0.000000
    31  H    6.066807   3.737735   2.581156   3.044157   2.483423
    32  H    4.880615   3.902606   3.987003   2.393095   3.639553
    33  H    7.301128   4.821008   4.731012   2.539987   3.107551
    34  H    6.757263   6.345747   6.080796   4.335091   5.149714
    35  H    6.915112   7.243895   6.573309   5.557495   6.003826
    36  H    4.990657   5.690529   4.761315   4.762329   5.043335
    37  H    4.530506   5.894199   5.463418   4.689083   5.548298
    38  H    8.996517   5.075332   4.854172   3.259590   2.619470
    39  H    8.635925   5.172810   4.350452   3.885184   2.764228
    40  H   10.335442   7.284851   6.908747   5.234963   4.877645
    41  H   10.081259   7.363324   6.575136   5.665494   4.954180
    42  H    8.933423   7.208541   6.882480   4.962650   5.261646
    43  H    6.722014   5.877908   4.616221   4.923260   4.506841
    44  H    8.355319   6.493845   5.312049   5.268470   4.520846
    45  H    8.024442   7.406924   6.270911   6.056589   5.737316
    46  H    9.143040   8.455096   7.674720   6.576900   6.599255
                   31         32         33         34         35
    31  H    0.000000
    32  H    3.047685   0.000000
    33  H    3.041598   2.507641   0.000000
    34  H    4.052501   2.720431   2.361166   0.000000
    35  H    4.237905   3.840574   3.627066   1.767448   0.000000
    36  H    2.825515   3.039383   3.929964   3.051649   2.434343
    37  H    3.894207   2.394011   3.876107   2.416323   2.473881
    38  H    3.541954   4.507280   2.367625   4.551722   5.412867
    39  H    2.630956   4.718821   3.027587   4.725802   5.031518
    40  H    4.975530   5.717448   3.247020   4.507461   5.060263
    41  H    4.403346   5.938997   3.797205   4.758338   4.734056
    42  H    4.671510   4.434305   2.426915   2.399047   3.072676
    43  H    2.180802   4.115341   3.825232   3.778954   3.040767
    44  H    2.894641   5.047036   3.803323   4.290916   3.749879
    45  H    3.723782   5.106775   4.273122   3.729664   2.541257
    46  H    5.123063   5.552827   4.209494   3.238193   2.364595
                   36         37         38         39         40
    36  H    0.000000
    37  H    1.759155   0.000000
    38  H    5.535587   5.997482   0.000000
    39  H    4.788681   5.741184   1.754171   0.000000
    40  H    6.106221   6.524275   2.351563   2.943985   0.000000
    41  H    5.506307   6.363899   2.913498   2.342349   1.752275
    42  H    4.695668   4.688108   3.479286   3.896235   2.377503
    43  H    2.094202   3.670523   4.548503   3.300477   4.975955
    44  H    3.705980   5.023652   3.721562   2.303747   3.712907
    45  H    3.053015   4.280328   4.980126   3.884914   4.542670
    46  H    4.303717   4.774446   5.130981   4.691589   3.849580
                   41         42         43         44         45
    41  H    0.000000
    42  H    3.016465   0.000000
    43  H    3.920850   4.293759   0.000000
    44  H    2.323124   3.761127   1.757376   0.000000
    45  H    3.372755   3.685616   1.751460   1.758781   0.000000
    46  H    3.319873   2.440062   3.662331   3.226329   2.199063
                   46
    46  H    0.000000
 Stoichiometry    C18H26O2
 Framework group  C1[X(C18H26O2)]
 Deg. of freedom   132
 Full point group                 C1      NOp   1
 Largest Abelian subgroup         C1      NOp   1
 Largest concise Abelian subgroup C1      NOp   1
                         Standard orientation:                         
 ---------------------------------------------------------------------
 Center     Atomic      Atomic             Coordinates (Angstroms)
 Number     Number       Type             X           Y           Z
 ---------------------------------------------------------------------
      1          6           0        4.669323   -0.175757    0.070288
      2          8           0        5.912559   -0.110503    0.100675
      3          6           0        3.834120    0.964732   -0.074645
      4          6           0        2.479863    0.916894    0.038185
      5          6           0        1.763845   -0.387498    0.175656
      6          6           0        2.623222   -1.523434   -0.382872
      7          6           0        3.995595   -1.504087    0.266662
      8          6           0        1.707087    2.165810    0.184466
      9          6           0        0.273963    2.121136   -0.338673
     10          6           0       -0.424457    0.841867    0.113593
     11          6           0        0.357725   -0.359035   -0.449580
     12          6           0       -1.867155    0.766785   -0.375766
     13          6           0       -2.538765   -0.544423    0.049485
     14          6           0       -1.812936   -1.696164   -0.632943
     15          6           0       -0.342855   -1.705801   -0.222102
     16          6           0       -2.868361    1.837532    0.073275
     17          6           0       -4.248296    1.153366   -0.048381
     18          6           0       -3.968912   -0.305372   -0.461747
     19          6           0       -2.580900   -0.745507    1.564681
     20          8           0       -4.933838   -1.197756    0.051330
     21          1           0        4.329738    1.918342   -0.191644
     22          1           0        1.638734   -0.548494    1.258304
     23          1           0        2.724804   -1.403801   -1.465490
     24          1           0        2.157402   -2.487913   -0.185050
     25          1           0        3.888149   -1.650708    1.346567
     26          1           0        4.633958   -2.305321   -0.111982
     27          1           0        2.249981    3.008382   -0.245756
     28          1           0        1.673036    2.343221    1.276711
     29          1           0        0.278755    2.172117   -1.431198
     30          1           0       -0.267094    2.993606    0.029037
     31          1           0       -0.402404    0.810334    1.204795
     32          1           0        0.460605   -0.211861   -1.533583
     33          1           0       -1.843174    0.776714   -1.473705
     34          1           0       -1.888558   -1.571361   -1.717812
     35          1           0       -2.267505   -2.652919   -0.372263
     36          1           0       -0.257062   -1.986106    0.827530
     37          1           0        0.160750   -2.474153   -0.810111
     38          1           0       -2.808726    2.729976   -0.547354
     39          1           0       -2.669129    2.141787    1.099358
     40          1           0       -4.888983    1.656822   -0.772568
     41          1           0       -4.782109    1.150434    0.901533
     42          1           0       -3.970077   -0.388768   -1.562309
     43          1           0       -1.586372   -0.849313    1.979190
     44          1           0       -3.071752    0.086453    2.058914
     45          1           0       -3.132565   -1.651706    1.797353
     46          1           0       -4.502796   -2.065959    0.127999
 ---------------------------------------------------------------------
 Rotational constants (GHZ):           0.9293106           0.1772880           0.1566037
 Standard basis: 6-31G(d) (6D, 7F)
 There are   352 symmetry adapted cartesian basis functions of A   symmetry.
 There are   352 symmetry adapted basis functions of A   symmetry.
   352 basis functions,   664 primitive gaussians,   352 cartesian basis functions
    75 alpha electrons       75 beta electrons
       nuclear repulsion energy      1673.2099669480 Hartrees.
 NAtoms=   46 NActive=   46 NUniq=   46 SFac= 1.00D+00 NAtFMM=   60 NAOKFM=F Big=F
 Integral buffers will be    131072 words long.
 Raffenetti 2 integral format.
 Two-electron integral symmetry is turned on.
 Nuclear repulsion after empirical dispersion term =     1673.1607895402 Hartrees.
 One-electron integrals computed using PRISM.
 NBasis=   352 RedAO= T EigKep=  1.19D-03  NBF=   352
 NBsUse=   352 1.00D-06 EigRej= -1.00D+00 NBFU=   352
 ExpMin= 1.61D-01 ExpMax= 5.48D+03 ExpMxC= 8.25D+02 IAcc=3 IRadAn=         5 AccDes= 0.00D+00
 Harris functional with IExCor= 4639 and IRadAn=       5 diagonalized for initial guess.
 HarFok:  IExCor= 4639 AccDes= 0.00D+00 IRadAn=         5 IDoV= 1 UseB2=F ITyADJ=14
 ICtDFT=  3500011 ScaDFX=  1.000000  1.000000  1.000000  1.000000
 FoFCou: FMM=F IPFlag=           0 FMFlag=      100000 FMFlg1=           0
         NFxFlg=           0 DoJE=T BraDBF=F KetDBF=T FulRan=T
         wScrn=  0.000000 ICntrl=       500 IOpCl=  0 I1Cent=   200000004 NGrid=           0
         NMat0=    1 NMatS0=      1 NMatT0=    0 NMatD0=    1 NMtDS0=    0 NMtDT0=    0
 Petite list used in FoFCou.
 Requested convergence on RMS density matrix=1.00D-08 within 128 cycles.
 Requested convergence on MAX density matrix=1.00D-06.
 Requested convergence on             energy=1.00D-06.
 No special actions if energy rises.
 Integral accuracy reduced to 1.0D-05 until final iterations.
 Initial convergence to 1.0D-05 achieved.  Increase integral accuracy.
 SCF Done:  E(RwB97XD) =  -851.787588084     A.U. after   15 cycles
            NFock= 15  Conv=0.41D-08     -V/T= 2.0088

 **********************************************************************

            Population analysis using the SCF Density.

 **********************************************************************

 Orbital symmetries:
       Occupied  (A) (A) (A) (A) (A) (A) (A) (A) (A) (A) (A) (A)
                 (A) (A) (A) (A) (A) (A) (A) (A) (A) (A) (A) (A)
                 (A) (A) (A) (A) (A) (A) (A) (A) (A) (A) (A) (A)
                 (A) (A) (A) (A) (A) (A) (A) (A) (A) (A) (A) (A)
                 (A) (A) (A) (A) (A) (A) (A) (A) (A) (A) (A) (A)
                 (A) (A) (A) (A) (A) (A) (A) (A) (A) (A) (A) (A)
                 (A) (A) (A)
       Virtual   (A) (A) (A) (A) (A) (A) (A) (A) (A) (A) (A) (A)
                 (A) (A) (A) (A) (A) (A) (A) (A) (A) (A) (A) (A)
                 (A) (A) (A) (A) (A) (A) (A) (A) (A) (A) (A) (A)
                 (A) (A) (A) (A) (A) (A) (A) (A) (A) (A) (A) (A)
                 (A) (A) (A) (A) (A) (A) (A) (A) (A) (A) (A) (A)
                 (A) (A) (A) (A) (A) (A) (A) (A) (A) (A) (A) (A)
                 (A) (A) (A) (A) (A) (A) (A) (A) (A) (A) (A) (A)
                 (A) (A) (A) (A) (A) (A) (A) (A) (A) (A) (A) (A)
                 (A) (A) (A) (A) (A) (A) (A) (A) (A) (A) (A) (A)
                 (A) (A) (A) (A) (A) (A) (A) (A) (A) (A) (A) (A)
                 (A) (A) (A) (A) (A) (A) (A) (A) (A) (A) (A) (A)
                 (A) (A) (A) (A) (A) (A) (A) (A) (A) (A) (A) (A)
                 (A) (A) (A) (A) (A) (A) (A) (A) (A) (A) (A) (A)
                 (A) (A) (A) (A) (A) (A) (A) (A) (A) (A) (A) (A)
                 (A) (A) (A) (A) (A) (A) (A) (A) (A) (A) (A) (A)
                 (A) (A) (A) (A) (A) (A) (A) (A) (A) (A) (A) (A)
                 (A) (A) (A) (A) (A) (A) (A) (A) (A) (A) (A) (A)
                 (A) (A) (A) (A) (A) (A) (A) (A) (A) (A) (A) (A)
                 (A) (A) (A) (A) (A) (A) (A) (A) (A) (A) (A) (A)
                 (A) (A) (A) (A) (A) (A) (A) (A) (A) (A) (A) (A)
                 (A) (A) (A) (A) (A) (A) (A) (A) (A) (A) (A) (A)
                 (A) (A) (A) (A) (A) (A) (A) (A) (A) (A) (A) (A)
                 (A) (A) (A) (A) (A) (A) (A) (A) (A) (A) (A) (A)
                 (A)
 The electronic state is 1-A.
 Alpha  occ. eigenvalues --  -19.26680 -19.23380 -10.36620 -10.34015 -10.33172
 Alpha  occ. eigenvalues --  -10.31576 -10.31013 -10.30929 -10.30519 -10.30272
 Alpha  occ. eigenvalues --  -10.30221 -10.30102 -10.29986 -10.29953 -10.29906
 Alpha  occ. eigenvalues --  -10.29422 -10.29318 -10.29193 -10.28855 -10.28759
 Alpha  occ. eigenvalues --   -1.12245  -1.10321  -0.98702  -0.96145  -0.91176
 Alpha  occ. eigenvalues --   -0.90638  -0.87580  -0.84644  -0.82783  -0.81864
 Alpha  occ. eigenvalues --   -0.78185  -0.77754  -0.73939  -0.72301  -0.69866
 Alpha  occ. eigenvalues --   -0.68148  -0.65664  -0.65441  -0.63308  -0.61213
 Alpha  occ. eigenvalues --   -0.59817  -0.58575  -0.57350  -0.55965  -0.55611
 Alpha  occ. eigenvalues --   -0.54545  -0.53579  -0.53170  -0.52031  -0.51033
 Alpha  occ. eigenvalues --   -0.50454  -0.49803  -0.49162  -0.48148  -0.47898
 Alpha  occ. eigenvalues --   -0.47002  -0.46942  -0.46493  -0.45196  -0.44882
 Alpha  occ. eigenvalues --   -0.44313  -0.43837  -0.43271  -0.42632  -0.42363
 Alpha  occ. eigenvalues --   -0.41498  -0.41134  -0.40406  -0.39807  -0.38537
 Alpha  occ. eigenvalues --   -0.36779  -0.36229  -0.34310  -0.32548  -0.30867
 Alpha virt. eigenvalues --    0.02040   0.13126   0.14060   0.14980   0.16331
 Alpha virt. eigenvalues --    0.17051   0.17326   0.18156   0.19268   0.20325
 Alpha virt. eigenvalues --    0.20526   0.21046   0.22374   0.23120   0.23213
 Alpha virt. eigenvalues --    0.23618   0.24265   0.24844   0.25122   0.25299
 Alpha virt. eigenvalues --    0.25553   0.26030   0.26684   0.26968   0.27275
 Alpha virt. eigenvalues --    0.27749   0.28618   0.29182   0.29417   0.30547
 Alpha virt. eigenvalues --    0.30913   0.31742   0.32041   0.32426   0.33302
 Alpha virt. eigenvalues --    0.33722   0.34566   0.35076   0.35637   0.36083
 Alpha virt. eigenvalues --    0.36740   0.37713   0.39071   0.39398   0.40888
 Alpha virt. eigenvalues --    0.41967   0.42275   0.45005   0.45572   0.50434
 Alpha virt. eigenvalues --    0.51512   0.57947   0.58656   0.59313   0.59833
 Alpha virt. eigenvalues --    0.61493   0.61772   0.62337   0.63000   0.65385
 Alpha virt. eigenvalues --    0.65741   0.65899   0.66573   0.67751   0.69192
 Alpha virt. eigenvalues --    0.70560   0.70895   0.72585   0.73008   0.73136
 Alpha virt. eigenvalues --    0.73964   0.75033   0.75139   0.75591   0.76495
 Alpha virt. eigenvalues --    0.77717   0.77841   0.79172   0.79832   0.81581
 Alpha virt. eigenvalues --    0.82455   0.83057   0.84380   0.85267   0.86179
 Alpha virt. eigenvalues --    0.86692   0.87762   0.88702   0.89601   0.90775
 Alpha virt. eigenvalues --    0.91110   0.92397   0.93295   0.93863   0.94474
 Alpha virt. eigenvalues --    0.94984   0.95863   0.96209   0.96595   0.97346
 Alpha virt. eigenvalues --    0.97450   0.97831   0.98336   0.98482   0.98907
 Alpha virt. eigenvalues --    0.99139   1.00496   1.00732   1.01513   1.02603
 Alpha virt. eigenvalues --    1.03755   1.04108   1.04372   1.04510   1.04827
 Alpha virt. eigenvalues --    1.05466   1.06272   1.07188   1.07549   1.08245
 Alpha virt. eigenvalues --    1.08801   1.10401   1.11267   1.12697   1.13876
 Alpha virt. eigenvalues --    1.14692   1.15426   1.17047   1.20064   1.20835
 Alpha virt. eigenvalues --    1.22056   1.23714   1.25517   1.27609   1.28349
 Alpha virt. eigenvalues --    1.29733   1.31786   1.34442   1.35900   1.38319
 Alpha virt. eigenvalues --    1.39992   1.42836   1.43469   1.46814   1.47452
 Alpha virt. eigenvalues --    1.50385   1.52932   1.53797   1.55853   1.57857
 Alpha virt. eigenvalues --    1.61237   1.62005   1.64951   1.67075   1.68395
 Alpha virt. eigenvalues --    1.70121   1.70828   1.73855   1.74293   1.77228
 Alpha virt. eigenvalues --    1.78826   1.79661   1.81289   1.82287   1.83156
 Alpha virt. eigenvalues --    1.85057   1.86310   1.87181   1.88398   1.89621
 Alpha virt. eigenvalues --    1.89912   1.92240   1.94137   1.95079   1.96103
 Alpha virt. eigenvalues --    1.96578   1.96929   1.97758   1.99321   1.99729
 Alpha virt. eigenvalues --    2.01151   2.01615   2.02441   2.02963   2.04322
 Alpha virt. eigenvalues --    2.05175   2.05783   2.06784   2.07805   2.07979
 Alpha virt. eigenvalues --    2.09391   2.10621   2.11722   2.12027   2.12464
 Alpha virt. eigenvalues --    2.13089   2.14991   2.15550   2.16673   2.18996
 Alpha virt. eigenvalues --    2.19868   2.21309   2.21607   2.22718   2.25009
 Alpha virt. eigenvalues --    2.27329   2.28196   2.30578   2.31662   2.33239
 Alpha virt. eigenvalues --    2.34945   2.36189   2.37159   2.39010   2.40853
 Alpha virt. eigenvalues --    2.41488   2.41590   2.42929   2.45332   2.45809
 Alpha virt. eigenvalues --    2.48330   2.49510   2.51311   2.51903   2.53861
 Alpha virt. eigenvalues --    2.55171   2.57841   2.58540   2.60564   2.61646
 Alpha virt. eigenvalues --    2.63481   2.64466   2.64936   2.65802   2.67629
 Alpha virt. eigenvalues --    2.69426   2.71682   2.72485   2.75732   2.77183
 Alpha virt. eigenvalues --    2.79070   2.81218   2.81722   2.83872   2.84969
 Alpha virt. eigenvalues --    2.86974   2.90576   2.95230   2.97962   2.99992
 Alpha virt. eigenvalues --    3.01576   3.02577   3.07798   3.08965   3.09857
 Alpha virt. eigenvalues --    3.22174   3.28047   4.02248   4.08590   4.25780
 Alpha virt. eigenvalues --    4.27808   4.31451   4.34354   4.36329   4.39320
 Alpha virt. eigenvalues --    4.41966   4.43231   4.48334   4.54085   4.56289
 Alpha virt. eigenvalues --    4.65464   4.67580   4.74749   4.77995   4.82110
 Alpha virt. eigenvalues --    4.86510   4.91048
          Condensed to atoms (all electrons):
               1          2          3          4          5          6
     1  C    4.422564   0.530113   0.374286   0.001436  -0.022513  -0.027590
     2  O    0.530113   8.113433  -0.060638   0.005129   0.000251   0.002951
     3  C    0.374286  -0.060638   5.296536   0.515394  -0.045325   0.007069
     4  C    0.001436   0.005129   0.515394   4.867226   0.376059  -0.046920
     5  C   -0.022513   0.000251  -0.045325   0.376059   5.102663   0.353785
     6  C   -0.027590   0.002951   0.007069  -0.046920   0.353785   5.150033
     7  C    0.340886  -0.080412  -0.137703  -0.001017  -0.035523   0.285012
     8  C    0.003773  -0.000094  -0.039327   0.364513  -0.068396   0.005091
     9  C   -0.000129   0.000000   0.003373  -0.033909  -0.012347  -0.000274
    10  C   -0.000013   0.000000   0.000474  -0.014017  -0.040598   0.004208
    11  C   -0.000102   0.000000   0.004042  -0.031424   0.364295  -0.049563
    12  C   -0.000000   0.000000   0.000003   0.000296   0.003836  -0.000140
    13  C   -0.000000   0.000000   0.000000   0.000006   0.000037  -0.000008
    14  C    0.000000  -0.000000   0.000001  -0.000101   0.003796   0.000307
    15  C   -0.000003  -0.000000  -0.000129   0.004663  -0.044598  -0.005266
    16  C   -0.000000  -0.000000  -0.000000  -0.000001  -0.000109   0.000001
    17  C   -0.000000  -0.000000  -0.000000   0.000000   0.000002  -0.000000
    18  C    0.000000  -0.000000  -0.000000  -0.000000   0.000005   0.000000
    19  C   -0.000000   0.000000   0.000000   0.000000   0.000065   0.000001
    20  O    0.000000   0.000000   0.000000   0.000000  -0.000000  -0.000000
    21  H   -0.029602   0.000776   0.359952  -0.048071   0.005024  -0.000463
    22  H    0.000956   0.000014  -0.005323  -0.043285   0.367771  -0.034588
    23  H   -0.002731   0.000065   0.003697  -0.004096  -0.042907   0.385926
    24  H    0.003578  -0.000075  -0.000237   0.004903  -0.032787   0.377187
    25  H   -0.027509  -0.000536   0.002143  -0.001416  -0.004406  -0.039645
    26  H   -0.024210   0.002445   0.005182  -0.000181   0.004286  -0.031065
    27  H    0.000234  -0.000002  -0.002759  -0.039098   0.004278  -0.000159
    28  H   -0.000121   0.000006  -0.010151  -0.040087   0.000897   0.000125
    29  H    0.000001  -0.000000  -0.000231  -0.003145   0.000614   0.000009
    30  H    0.000001  -0.000000  -0.000085   0.004185   0.000024   0.000011
    31  H    0.000005   0.000000  -0.000248  -0.004227  -0.001137   0.000168
    32  H    0.000025  -0.000000  -0.000101  -0.003645  -0.039897  -0.004559
    33  H    0.000000   0.000000  -0.000001  -0.000072   0.000208   0.000001
    34  H    0.000000   0.000000  -0.000000   0.000003   0.000067  -0.000024
    35  H    0.000000  -0.000000  -0.000000   0.000002  -0.000111   0.000001
    36  H    0.000002  -0.000000  -0.000012   0.000195  -0.003447  -0.001501
    37  H   -0.000011  -0.000000   0.000016  -0.000134  -0.006690   0.001397
    38  H    0.000000  -0.000000   0.000000  -0.000001   0.000001  -0.000000
    39  H    0.000000   0.000000  -0.000000  -0.000001   0.000001   0.000000
    40  H    0.000000  -0.000000   0.000000   0.000000  -0.000000   0.000000
    41  H    0.000000  -0.000000   0.000000  -0.000000  -0.000000   0.000000
    42  H    0.000000  -0.000000  -0.000000   0.000000   0.000000  -0.000000
    43  H    0.000000  -0.000000  -0.000000  -0.000002   0.000130   0.000003
    44  H   -0.000000  -0.000000   0.000000   0.000000  -0.000005  -0.000000
    45  H    0.000000   0.000000  -0.000000  -0.000000  -0.000004   0.000000
    46  H   -0.000000   0.000000  -0.000000   0.000000  -0.000000   0.000000
               7          8          9         10         11         12
     1  C    0.340886   0.003773  -0.000129  -0.000013  -0.000102  -0.000000
     2  O   -0.080412  -0.000094   0.000000   0.000000   0.000000   0.000000
     3  C   -0.137703  -0.039327   0.003373   0.000474   0.004042   0.000003
     4  C   -0.001017   0.364513  -0.033909  -0.014017  -0.031424   0.000296
     5  C   -0.035523  -0.068396  -0.012347  -0.040598   0.364295   0.003836
     6  C    0.285012   0.005091  -0.000274   0.004208  -0.049563  -0.000140
     7  C    5.363984  -0.000119   0.000037  -0.000105   0.004746   0.000002
     8  C   -0.000119   5.158853   0.336262  -0.044002  -0.016694   0.004024
     9  C    0.000037   0.336262   5.099139   0.369572  -0.044153  -0.043249
    10  C   -0.000105  -0.044002   0.369572   5.023270   0.371777   0.365642
    11  C    0.004746  -0.016694  -0.044153   0.371777   5.048851  -0.038927
    12  C    0.000002   0.004024  -0.043249   0.365642  -0.038927   5.101881
    13  C    0.000000  -0.000146   0.004566  -0.028480  -0.012832   0.349613
    14  C   -0.000003  -0.000012  -0.000070  -0.012137  -0.039148  -0.048592
    15  C    0.000193   0.000378   0.004454  -0.040551   0.366564  -0.018108
    16  C   -0.000000   0.000041  -0.003798  -0.032274   0.004269   0.358915
    17  C    0.000000  -0.000000   0.000101   0.004017  -0.000164  -0.062937
    18  C   -0.000000   0.000002  -0.000115   0.004347   0.000152  -0.062997
    19  C    0.000000  -0.000002   0.000154  -0.006122  -0.002941  -0.057266
    20  O    0.000000  -0.000000   0.000000  -0.000072  -0.000004   0.003934
    21  H    0.006967  -0.007458   0.000237   0.000003  -0.000095   0.000000
    22  H   -0.006174   0.001510  -0.000463  -0.005751  -0.043660   0.000051
    23  H   -0.041166   0.000044  -0.000038   0.000084  -0.003190  -0.000000
    24  H   -0.031096  -0.000121  -0.000008  -0.000011  -0.008849  -0.000003
    25  H    0.367088  -0.000035  -0.000002   0.000001   0.000050   0.000000
    26  H    0.369241   0.000009   0.000000   0.000002  -0.000075  -0.000000
    27  H    0.000010   0.379245  -0.031673   0.004192  -0.000163  -0.000110
    28  H   -0.000099   0.378457  -0.041124  -0.004475  -0.000748  -0.000026
    29  H   -0.000004  -0.036114   0.380961  -0.039142  -0.007872  -0.004245
    30  H   -0.000000  -0.031759   0.379984  -0.033067   0.005003  -0.006890
    31  H   -0.000012   0.000634  -0.048011   0.381798  -0.048951  -0.040825
    32  H   -0.000077   0.000100  -0.006211  -0.046638   0.378152  -0.003664
    33  H   -0.000000   0.000091  -0.005582  -0.044226  -0.006098   0.382998
    34  H   -0.000000   0.000000  -0.000033  -0.000417  -0.003901  -0.007190
    35  H   -0.000000  -0.000000   0.000012  -0.000146   0.004299   0.006913
    36  H   -0.000078  -0.000006  -0.000016  -0.003548  -0.044525  -0.000347
    37  H    0.000055  -0.000012  -0.000125   0.004331  -0.030548   0.000068
    38  H    0.000000  -0.000006   0.001177  -0.000840  -0.000095  -0.026497
    39  H   -0.000000  -0.000034  -0.000724  -0.004556   0.000101  -0.039389
    40  H   -0.000000  -0.000000  -0.000003  -0.000063   0.000003   0.002127
    41  H   -0.000000  -0.000000   0.000002  -0.000123   0.000002   0.003139
    42  H   -0.000000  -0.000000   0.000007  -0.000200  -0.000009  -0.002426
    43  H   -0.000000   0.000012  -0.000020   0.001583  -0.000606  -0.005440
    44  H    0.000000   0.000000  -0.000038  -0.000303   0.000080  -0.005676
    45  H    0.000000  -0.000000   0.000000   0.000028   0.000058   0.006136
    46  H    0.000000   0.000000   0.000000  -0.000009   0.000001   0.000597
              13         14         15         16         17         18
     1  C   -0.000000   0.000000  -0.000003  -0.000000  -0.000000   0.000000
     2  O    0.000000  -0.000000  -0.000000  -0.000000  -0.000000  -0.000000
     3  C    0.000000   0.000001  -0.000129  -0.000000  -0.000000  -0.000000
     4  C    0.000006  -0.000101   0.004663  -0.000001   0.000000  -0.000000
     5  C    0.000037   0.003796  -0.044598  -0.000109   0.000002   0.000005
     6  C   -0.000008   0.000307  -0.005266   0.000001  -0.000000   0.000000
     7  C    0.000000  -0.000003   0.000193  -0.000000   0.000000  -0.000000
     8  C   -0.000146  -0.000012   0.000378   0.000041  -0.000000   0.000002
     9  C    0.004566  -0.000070   0.004454  -0.003798   0.000101  -0.000115
    10  C   -0.028480  -0.012137  -0.040551  -0.032274   0.004017   0.004347
    11  C   -0.012832  -0.039148   0.366564   0.004269  -0.000164   0.000152
    12  C    0.349613  -0.048592  -0.018108   0.358915  -0.062937  -0.062997
    13  C    5.128584   0.373226  -0.038872  -0.066681  -0.052934   0.373935
    14  C    0.373226   5.125996   0.352322   0.006236   0.007420  -0.047928
    15  C   -0.038872   0.352322   5.100849   0.000219  -0.000254   0.004653
    16  C   -0.066681   0.006236   0.000219   5.117604   0.337321  -0.059628
    17  C   -0.052934   0.007420  -0.000254   0.337321   5.185391   0.351631
    18  C    0.373935  -0.047928   0.004653  -0.059628   0.351631   4.797720
    19  C    0.344454  -0.070486  -0.004880  -0.002856  -0.014174  -0.060296
    20  O   -0.044749  -0.001032   0.000041   0.002548  -0.047874   0.252488
    21  H   -0.000000  -0.000000   0.000002  -0.000000  -0.000000  -0.000000
    22  H   -0.000037   0.000063  -0.007508  -0.000001   0.000000  -0.000000
    23  H   -0.000000  -0.000044  -0.001154   0.000000   0.000000  -0.000000
    24  H   -0.000003   0.000070   0.003583   0.000000  -0.000000   0.000000
    25  H    0.000000  -0.000000  -0.000034   0.000000   0.000000  -0.000000
    26  H   -0.000000  -0.000000  -0.000001   0.000000  -0.000000   0.000000
    27  H    0.000001  -0.000000   0.000009  -0.000001  -0.000000  -0.000000
    28  H    0.000004   0.000000  -0.000006  -0.000009  -0.000000  -0.000000
    29  H    0.000012  -0.000008   0.000100  -0.000495  -0.000015  -0.000004
    30  H    0.000016  -0.000005  -0.000137   0.003958   0.000001  -0.000007
    31  H   -0.009568   0.000452  -0.002461  -0.003612  -0.000004   0.000060
    32  H   -0.001260  -0.000412  -0.044336  -0.000041   0.000003  -0.000060
    33  H   -0.052558  -0.006740  -0.001002  -0.042684  -0.001432  -0.001964
    34  H   -0.037217   0.379038  -0.036536   0.000077   0.000056  -0.005519
    35  H   -0.038582   0.370188  -0.033919  -0.000250   0.000015  -0.004313
    36  H   -0.007944  -0.035927   0.382805  -0.000014   0.000003  -0.000050
    37  H    0.004965  -0.034671   0.380988   0.000009   0.000003  -0.000089
    38  H    0.005421  -0.000148  -0.000005   0.378619  -0.028992   0.002119
    39  H   -0.003788  -0.000025  -0.000019   0.385482  -0.033421   0.002339
    40  H    0.004419  -0.000144   0.000003  -0.030993   0.379028  -0.026611
    41  H   -0.004802  -0.000145   0.000004  -0.027003   0.371251  -0.030827
    42  H   -0.064530  -0.010871   0.000089   0.004178  -0.056426   0.391355
    43  H   -0.033537  -0.006890   0.002121  -0.000020  -0.000391   0.005555
    44  H   -0.030055   0.005190   0.000036   0.002679   0.004296  -0.005305
    45  H   -0.032094  -0.004976  -0.000296  -0.000222  -0.000283  -0.008919
    46  H   -0.006694   0.002932  -0.000141  -0.000370   0.007124  -0.034700
              19         20         21         22         23         24
     1  C   -0.000000   0.000000  -0.029602   0.000956  -0.002731   0.003578
     2  O    0.000000   0.000000   0.000776   0.000014   0.000065  -0.000075
     3  C    0.000000   0.000000   0.359952  -0.005323   0.003697  -0.000237
     4  C    0.000000   0.000000  -0.048071  -0.043285  -0.004096   0.004903
     5  C    0.000065  -0.000000   0.005024   0.367771  -0.042907  -0.032787
     6  C    0.000001  -0.000000  -0.000463  -0.034588   0.385926   0.377187
     7  C    0.000000   0.000000   0.006967  -0.006174  -0.041166  -0.031096
     8  C   -0.000002  -0.000000  -0.007458   0.001510   0.000044  -0.000121
     9  C    0.000154   0.000000   0.000237  -0.000463  -0.000038  -0.000008
    10  C   -0.006122  -0.000072   0.000003  -0.005751   0.000084  -0.000011
    11  C   -0.002941  -0.000004  -0.000095  -0.043660  -0.003190  -0.008849
    12  C   -0.057266   0.003934   0.000000   0.000051  -0.000000  -0.000003
    13  C    0.344454  -0.044749  -0.000000  -0.000037  -0.000000  -0.000003
    14  C   -0.070486  -0.001032  -0.000000   0.000063  -0.000044   0.000070
    15  C   -0.004880   0.000041   0.000002  -0.007508  -0.001154   0.003583
    16  C   -0.002856   0.002548  -0.000000  -0.000001   0.000000   0.000000
    17  C   -0.014174  -0.047874  -0.000000   0.000000   0.000000  -0.000000
    18  C   -0.060296   0.252488  -0.000000  -0.000000  -0.000000   0.000000
    19  C    5.219895   0.001112   0.000000  -0.000093  -0.000000  -0.000001
    20  O    0.001112   8.277466   0.000000  -0.000000  -0.000000   0.000000
    21  H    0.000000   0.000000   0.538016  -0.000239  -0.000131   0.000014
    22  H   -0.000093  -0.000000  -0.000239   0.587743   0.005509  -0.002751
    23  H   -0.000000  -0.000000  -0.000131   0.005509   0.554019  -0.029353
    24  H   -0.000001   0.000000   0.000014  -0.002751  -0.029353   0.553005
    25  H   -0.000000   0.000000  -0.000181   0.006097   0.005062  -0.004224
    26  H    0.000000  -0.000000  -0.000113  -0.000133  -0.002729  -0.002966
    27  H    0.000000   0.000000   0.005192  -0.000102  -0.000002   0.000002
    28  H   -0.000004   0.000000   0.000193   0.001244   0.000003   0.000008
    29  H   -0.000002   0.000000  -0.000010   0.000079  -0.000003   0.000002
    30  H   -0.000007  -0.000000  -0.000007  -0.000006   0.000000   0.000000
    31  H    0.002665  -0.000001  -0.000002   0.005466   0.000006   0.000001
    32  H    0.000046   0.000000  -0.000013   0.005806   0.004676   0.000070
    33  H    0.006544   0.000037  -0.000000   0.000002  -0.000002  -0.000000
    34  H    0.006117  -0.000099   0.000000   0.000003   0.000001   0.000011
    35  H   -0.005737   0.001393   0.000000  -0.000004   0.000000   0.000006
    36  H    0.001871  -0.000003  -0.000000   0.005842   0.000133   0.001066
    37  H    0.000141   0.000000   0.000000   0.000063   0.000760   0.001559
    38  H    0.000130  -0.000037  -0.000000   0.000000   0.000000  -0.000000
    39  H    0.001430  -0.000022   0.000000  -0.000001  -0.000000  -0.000000
    40  H    0.000211   0.001718   0.000000  -0.000000  -0.000000  -0.000000
    41  H    0.002061   0.003568  -0.000000   0.000000  -0.000000   0.000000
    42  H    0.007945  -0.044489   0.000000  -0.000000  -0.000000   0.000000
    43  H    0.376116   0.000445  -0.000000   0.000143   0.000000  -0.000002
    44  H    0.381162  -0.000597   0.000000   0.000002   0.000000   0.000000
    45  H    0.373153   0.009212   0.000000   0.000001   0.000000   0.000000
    46  H   -0.001526   0.242842   0.000000  -0.000000   0.000000   0.000000
              25         26         27         28         29         30
     1  C   -0.027509  -0.024210   0.000234  -0.000121   0.000001   0.000001
     2  O   -0.000536   0.002445  -0.000002   0.000006  -0.000000  -0.000000
     3  C    0.002143   0.005182  -0.002759  -0.010151  -0.000231  -0.000085
     4  C   -0.001416  -0.000181  -0.039098  -0.040087  -0.003145   0.004185
     5  C   -0.004406   0.004286   0.004278   0.000897   0.000614   0.000024
     6  C   -0.039645  -0.031065  -0.000159   0.000125   0.000009   0.000011
     7  C    0.367088   0.369241   0.000010  -0.000099  -0.000004  -0.000000
     8  C   -0.000035   0.000009   0.379245   0.378457  -0.036114  -0.031759
     9  C   -0.000002   0.000000  -0.031673  -0.041124   0.380961   0.379984
    10  C    0.000001   0.000002   0.004192  -0.004475  -0.039142  -0.033067
    11  C    0.000050  -0.000075  -0.000163  -0.000748  -0.007872   0.005003
    12  C    0.000000  -0.000000  -0.000110  -0.000026  -0.004245  -0.006890
    13  C    0.000000  -0.000000   0.000001   0.000004   0.000012   0.000016
    14  C   -0.000000  -0.000000  -0.000000   0.000000  -0.000008  -0.000005
    15  C   -0.000034  -0.000001   0.000009  -0.000006   0.000100  -0.000137
    16  C    0.000000   0.000000  -0.000001  -0.000009  -0.000495   0.003958
    17  C    0.000000  -0.000000  -0.000000  -0.000000  -0.000015   0.000001
    18  C   -0.000000   0.000000  -0.000000  -0.000000  -0.000004  -0.000007
    19  C   -0.000000   0.000000   0.000000  -0.000004  -0.000002  -0.000007
    20  O    0.000000  -0.000000   0.000000   0.000000   0.000000  -0.000000
    21  H   -0.000181  -0.000113   0.005192   0.000193  -0.000010  -0.000007
    22  H    0.006097  -0.000133  -0.000102   0.001244   0.000079  -0.000006
    23  H    0.005062  -0.002729  -0.000002   0.000003  -0.000003   0.000000
    24  H   -0.004224  -0.002966   0.000002   0.000008   0.000002   0.000000
    25  H    0.535546  -0.021009  -0.000000   0.000011   0.000000   0.000000
    26  H   -0.021009   0.506624   0.000000  -0.000001  -0.000000   0.000000
    27  H   -0.000000   0.000000   0.526140  -0.024274  -0.003489  -0.001375
    28  H    0.000011  -0.000001  -0.024274   0.552428   0.005012  -0.005715
    29  H    0.000000  -0.000000  -0.003489   0.005012   0.563706  -0.030319
    30  H    0.000000   0.000000  -0.001375  -0.005715  -0.030319   0.550329
    31  H   -0.000002   0.000000   0.000025   0.004419   0.005561  -0.002928
    32  H    0.000009  -0.000001  -0.000045   0.000104   0.005753   0.000085
    33  H   -0.000000   0.000000   0.000003   0.000003   0.004376  -0.000045
    34  H   -0.000000   0.000000  -0.000000  -0.000000  -0.000010   0.000001
    35  H    0.000000   0.000000   0.000000  -0.000000   0.000000  -0.000000
    36  H    0.000007   0.000001  -0.000000  -0.000001  -0.000001   0.000004
    37  H    0.000015   0.000001  -0.000000   0.000000  -0.000005   0.000002
    38  H    0.000000  -0.000000   0.000001   0.000003   0.000226   0.000223
    39  H   -0.000000   0.000000   0.000001  -0.000001   0.000075   0.000836
    40  H   -0.000000   0.000000   0.000000   0.000000  -0.000000   0.000002
    41  H   -0.000000   0.000000   0.000000   0.000000  -0.000000   0.000001
    42  H   -0.000000   0.000000   0.000000  -0.000000  -0.000002  -0.000000
    43  H   -0.000000   0.000000  -0.000000  -0.000004  -0.000002   0.000003
    44  H    0.000000  -0.000000  -0.000000   0.000000   0.000000  -0.000001
    45  H    0.000000  -0.000000   0.000000   0.000000   0.000000  -0.000000
    46  H    0.000000   0.000000   0.000000   0.000000   0.000000  -0.000000
              31         32         33         34         35         36
     1  C    0.000005   0.000025   0.000000   0.000000   0.000000   0.000002
     2  O    0.000000  -0.000000   0.000000   0.000000  -0.000000  -0.000000
     3  C   -0.000248  -0.000101  -0.000001  -0.000000  -0.000000  -0.000012
     4  C   -0.004227  -0.003645  -0.000072   0.000003   0.000002   0.000195
     5  C   -0.001137  -0.039897   0.000208   0.000067  -0.000111  -0.003447
     6  C    0.000168  -0.004559   0.000001  -0.000024   0.000001  -0.001501
     7  C   -0.000012  -0.000077  -0.000000  -0.000000  -0.000000  -0.000078
     8  C    0.000634   0.000100   0.000091   0.000000  -0.000000  -0.000006
     9  C   -0.048011  -0.006211  -0.005582  -0.000033   0.000012  -0.000016
    10  C    0.381798  -0.046638  -0.044226  -0.000417  -0.000146  -0.003548
    11  C   -0.048951   0.378152  -0.006098  -0.003901   0.004299  -0.044525
    12  C   -0.040825  -0.003664   0.382998  -0.007190   0.006913  -0.000347
    13  C   -0.009568  -0.001260  -0.052558  -0.037217  -0.038582  -0.007944
    14  C    0.000452  -0.000412  -0.006740   0.379038   0.370188  -0.035927
    15  C   -0.002461  -0.044336  -0.001002  -0.036536  -0.033919   0.382805
    16  C   -0.003612  -0.000041  -0.042684   0.000077  -0.000250  -0.000014
    17  C   -0.000004   0.000003  -0.001432   0.000056   0.000015   0.000003
    18  C    0.000060  -0.000060  -0.001964  -0.005519  -0.004313  -0.000050
    19  C    0.002665   0.000046   0.006544   0.006117  -0.005737   0.001871
    20  O   -0.000001   0.000000   0.000037  -0.000099   0.001393  -0.000003
    21  H   -0.000002  -0.000013  -0.000000   0.000000   0.000000  -0.000000
    22  H    0.005466   0.005806   0.000002   0.000003  -0.000004   0.005842
    23  H    0.000006   0.004676  -0.000002   0.000001   0.000000   0.000133
    24  H    0.000001   0.000070  -0.000000   0.000011   0.000006   0.001066
    25  H   -0.000002   0.000009  -0.000000  -0.000000   0.000000   0.000007
    26  H    0.000000  -0.000001   0.000000   0.000000   0.000000   0.000001
    27  H    0.000025  -0.000045   0.000003  -0.000000   0.000000  -0.000000
    28  H    0.004419   0.000104   0.000003  -0.000000  -0.000000  -0.000001
    29  H    0.005561   0.005753   0.004376  -0.000010   0.000000  -0.000001
    30  H   -0.002928   0.000085  -0.000045   0.000001  -0.000000   0.000004
    31  H    0.602103   0.005771   0.005793   0.000032  -0.000006   0.001423
    32  H    0.005771   0.599441   0.004638   0.003048  -0.000075   0.005458
    33  H    0.005793   0.004638   0.613127   0.005581   0.000054   0.000067
    34  H    0.000032   0.003048   0.005581   0.568906  -0.031266   0.004942
    35  H   -0.000006  -0.000075   0.000054  -0.031266   0.591376  -0.004129
    36  H    0.001423   0.005458   0.000067   0.004942  -0.004129   0.571936
    37  H   -0.000069  -0.005375  -0.000089  -0.004542  -0.002243  -0.031308
    38  H   -0.000113  -0.000001  -0.006909  -0.000005   0.000003   0.000000
    39  H    0.003998   0.000004   0.005153  -0.000005   0.000005  -0.000004
    40  H    0.000001  -0.000000   0.000233  -0.000011   0.000000   0.000000
    41  H   -0.000021  -0.000000  -0.000083   0.000001  -0.000001  -0.000000
    42  H   -0.000014  -0.000009   0.004676   0.006120  -0.000107  -0.000004
    43  H    0.002300  -0.000021  -0.000035  -0.000021  -0.000238   0.002435
    44  H    0.000371   0.000002  -0.000029  -0.000142  -0.000043  -0.000028
    45  H   -0.000010   0.000002  -0.000110   0.000009   0.004100   0.000307
    46  H   -0.000000  -0.000000   0.000001  -0.000084   0.004965  -0.000004
              37         38         39         40         41         42
     1  C   -0.000011   0.000000   0.000000   0.000000   0.000000   0.000000
     2  O   -0.000000  -0.000000   0.000000  -0.000000  -0.000000  -0.000000
     3  C    0.000016   0.000000  -0.000000   0.000000   0.000000  -0.000000
     4  C   -0.000134  -0.000001  -0.000001   0.000000  -0.000000   0.000000
     5  C   -0.006690   0.000001   0.000001  -0.000000  -0.000000   0.000000
     6  C    0.001397  -0.000000   0.000000   0.000000   0.000000  -0.000000
     7  C    0.000055   0.000000  -0.000000  -0.000000  -0.000000  -0.000000
     8  C   -0.000012  -0.000006  -0.000034  -0.000000  -0.000000  -0.000000
     9  C   -0.000125   0.001177  -0.000724  -0.000003   0.000002   0.000007
    10  C    0.004331  -0.000840  -0.004556  -0.000063  -0.000123  -0.000200
    11  C   -0.030548  -0.000095   0.000101   0.000003   0.000002  -0.000009
    12  C    0.000068  -0.026497  -0.039389   0.002127   0.003139  -0.002426
    13  C    0.004965   0.005421  -0.003788   0.004419  -0.004802  -0.064530
    14  C   -0.034671  -0.000148  -0.000025  -0.000144  -0.000145  -0.010871
    15  C    0.380988  -0.000005  -0.000019   0.000003   0.000004   0.000089
    16  C    0.000009   0.378619   0.385482  -0.030993  -0.027003   0.004178
    17  C    0.000003  -0.028992  -0.033421   0.379028   0.371251  -0.056426
    18  C   -0.000089   0.002119   0.002339  -0.026611  -0.030827   0.391355
    19  C    0.000141   0.000130   0.001430   0.000211   0.002061   0.007945
    20  O    0.000000  -0.000037  -0.000022   0.001718   0.003568  -0.044489
    21  H    0.000000  -0.000000   0.000000   0.000000  -0.000000   0.000000
    22  H    0.000063   0.000000  -0.000001  -0.000000   0.000000  -0.000000
    23  H    0.000760   0.000000  -0.000000  -0.000000  -0.000000  -0.000000
    24  H    0.001559  -0.000000  -0.000000  -0.000000   0.000000   0.000000
    25  H    0.000015   0.000000  -0.000000  -0.000000  -0.000000  -0.000000
    26  H    0.000001  -0.000000   0.000000   0.000000   0.000000   0.000000
    27  H   -0.000000   0.000001   0.000001   0.000000   0.000000   0.000000
    28  H    0.000000   0.000003  -0.000001   0.000000   0.000000  -0.000000
    29  H   -0.000005   0.000226   0.000075  -0.000000  -0.000000  -0.000002
    30  H    0.000002   0.000223   0.000836   0.000002   0.000001  -0.000000
    31  H   -0.000069  -0.000113   0.003998   0.000001  -0.000021  -0.000014
    32  H   -0.005375  -0.000001   0.000004  -0.000000  -0.000000  -0.000009
    33  H   -0.000089  -0.006909   0.005153   0.000233  -0.000083   0.004676
    34  H   -0.004542  -0.000005  -0.000005  -0.000011   0.000001   0.006120
    35  H   -0.002243   0.000003   0.000005   0.000000  -0.000001  -0.000107
    36  H   -0.031308   0.000000  -0.000004   0.000000  -0.000000  -0.000004
    37  H    0.554057  -0.000000  -0.000000  -0.000000  -0.000000  -0.000005
    38  H   -0.000000   0.548534  -0.032397  -0.006756   0.002814  -0.000089
    39  H   -0.000000  -0.032397   0.562003   0.003434  -0.009672  -0.000168
    40  H   -0.000000  -0.006756   0.003434   0.537834  -0.027856  -0.006223
    41  H   -0.000000   0.002814  -0.009672  -0.027856   0.532576   0.005154
    42  H   -0.000005  -0.000089  -0.000168  -0.006223   0.005154   0.637531
    43  H    0.000034  -0.000011   0.000004  -0.000001   0.000072  -0.000062
    44  H   -0.000001   0.000011   0.001107  -0.000014   0.000536  -0.000053
    45  H   -0.000030  -0.000002   0.000008  -0.000008   0.000237   0.000299
    46  H    0.000006   0.000005   0.000007  -0.000205  -0.000053   0.000140
              43         44         45         46
     1  C    0.000000  -0.000000   0.000000  -0.000000
     2  O   -0.000000  -0.000000   0.000000   0.000000
     3  C   -0.000000   0.000000  -0.000000  -0.000000
     4  C   -0.000002   0.000000  -0.000000   0.000000
     5  C    0.000130  -0.000005  -0.000004  -0.000000
     6  C    0.000003  -0.000000   0.000000   0.000000
     7  C   -0.000000   0.000000   0.000000   0.000000
     8  C    0.000012   0.000000  -0.000000   0.000000
     9  C   -0.000020  -0.000038   0.000000   0.000000
    10  C    0.001583  -0.000303   0.000028  -0.000009
    11  C   -0.000606   0.000080   0.000058   0.000001
    12  C   -0.005440  -0.005676   0.006136   0.000597
    13  C   -0.033537  -0.030055  -0.032094  -0.006694
    14  C   -0.006890   0.005190  -0.004976   0.002932
    15  C    0.002121   0.000036  -0.000296  -0.000141
    16  C   -0.000020   0.002679  -0.000222  -0.000370
    17  C   -0.000391   0.004296  -0.000283   0.007124
    18  C    0.005555  -0.005305  -0.008919  -0.034700
    19  C    0.376116   0.381162   0.373153  -0.001526
    20  O    0.000445  -0.000597   0.009212   0.242842
    21  H   -0.000000   0.000000   0.000000   0.000000
    22  H    0.000143   0.000002   0.000001  -0.000000
    23  H    0.000000   0.000000   0.000000   0.000000
    24  H   -0.000002   0.000000   0.000000   0.000000
    25  H   -0.000000   0.000000   0.000000   0.000000
    26  H    0.000000  -0.000000  -0.000000   0.000000
    27  H   -0.000000  -0.000000   0.000000   0.000000
    28  H   -0.000004   0.000000   0.000000   0.000000
    29  H   -0.000002   0.000000   0.000000   0.000000
    30  H    0.000003  -0.000001  -0.000000  -0.000000
    31  H    0.002300   0.000371  -0.000010  -0.000000
    32  H   -0.000021   0.000002   0.000002  -0.000000
    33  H   -0.000035  -0.000029  -0.000110   0.000001
    34  H   -0.000021  -0.000142   0.000009  -0.000084
    35  H   -0.000238  -0.000043   0.004100   0.004965
    36  H    0.002435  -0.000028   0.000307  -0.000004
    37  H    0.000034  -0.000001  -0.000030   0.000006
    38  H   -0.000011   0.000011  -0.000002   0.000005
    39  H    0.000004   0.001107   0.000008   0.000007
    40  H   -0.000001  -0.000014  -0.000008  -0.000205
    41  H    0.000072   0.000536   0.000237  -0.000053
    42  H   -0.000062  -0.000053   0.000299   0.000140
    43  H    0.551330  -0.027993  -0.028639  -0.000231
    44  H   -0.027993   0.525177  -0.024999   0.000104
    45  H   -0.028639  -0.024999   0.548045   0.003791
    46  H   -0.000231   0.000104   0.003791   0.374683
 Mulliken charges:
               1
     1  C    0.456675
     2  O   -0.513427
     3  C   -0.269898
     4  C    0.170839
     5  C   -0.187294
     6  C   -0.331520
     7  C   -0.404634
     8  C   -0.388699
     9  C   -0.307923
    10  C   -0.133441
    11  C   -0.117107
    12  C   -0.115230
    13  C   -0.021889
    14  C   -0.306724
    15  C   -0.323864
    16  C   -0.331092
    17  C   -0.348361
    18  C    0.162973
    19  C   -0.498881
    20  O   -0.657825
    21  H    0.170013
    22  H    0.161754
    23  H    0.167559
    24  H    0.167423
    25  H    0.182970
    26  H    0.194693
    27  H    0.183920
    28  H    0.183929
    29  H    0.158630
    30  H    0.167684
    31  H    0.139172
    32  H    0.143246
    33  H    0.136075
    34  H    0.153010
    35  H    0.137837
    36  H    0.154400
    37  H    0.167476
    38  H    0.163618
    39  H    0.158238
    40  H    0.169874
    41  H    0.179170
    42  H    0.128193
    43  H    0.161880
    44  H    0.174529
    45  H    0.155205
    46  H    0.406820
 Sum of Mulliken charges =  -0.00000
 Mulliken charges with hydrogens summed into heavy atoms:
               1
     1  C    0.456675
     2  O   -0.513427
     3  C   -0.099885
     4  C    0.170839
     5  C   -0.025540
     6  C    0.003463
     7  C   -0.026971
     8  C   -0.020849
     9  C    0.018392
    10  C    0.005731
    11  C    0.026139
    12  C    0.020845
    13  C   -0.021889
    14  C   -0.015877
    15  C   -0.001987
    16  C   -0.009235
    17  C    0.000684
    18  C    0.291166
    19  C   -0.007266
    20  O   -0.251005
 Electronic spatial extent (au):  <R**2>=           6817.9888
 Charge=             -0.0000 electrons
 Dipole moment (field-independent basis, Debye):
    X=             -3.3257    Y=             -0.1238    Z=             -0.0466  Tot=              3.3284
 Quadrupole moment (field-independent basis, Debye-Ang):
   XX=           -175.4848   YY=           -112.2374   ZZ=           -118.7326
   XY=             -0.7523   XZ=              0.7304   YZ=             -0.2142
 Traceless Quadrupole moment (field-independent basis, Debye-Ang):
   XX=            -39.9999   YY=             23.2475   ZZ=             16.7524
   XY=             -0.7523   XZ=              0.7304   YZ=             -0.2142
 Octapole moment (field-independent basis, Debye-Ang**2):
  XXX=           -183.1967  YYY=            -12.7534  ZZZ=              0.3142  XYY=             -2.8023
  XXY=              6.6816  XXZ=             -8.5704  XZZ=             -0.3665  YZZ=             -1.3587
  YYZ=              0.7511  XYZ=              1.2513
 Hexadecapole moment (field-independent basis, Debye-Ang**3):
 XXXX=          -9570.2799 YYYY=          -1386.5250 ZZZZ=           -400.6541 XXXY=            -64.0013
 XXXZ=            -18.1489 YYYX=             77.9213 YYYZ=             -7.0790 ZZZX=              9.4978
 ZZZY=              2.6507 XXYY=          -1300.1094 XXZZ=          -1220.8501 YYZZ=           -305.3867
 XXYZ=             -8.8677 YYXZ=             -7.5096 ZZXY=             -5.2171
 N-N= 1.673160789540D+03 E-N=-5.323348002435D+03  KE= 8.443575050309D+02

 **********************************************************************

            Electrostatic Properties Using The SCF Density.

 **********************************************************************

       Atomic Center    1 is at   4.669323 -0.175757  0.070288
       Atomic Center    2 is at   5.912559 -0.110503  0.100675
       Atomic Center    3 is at   3.834120  0.964732 -0.074645
       Atomic Center    4 is at   2.479863  0.916894  0.038185
       Atomic Center    5 is at   1.763845 -0.387498  0.175656
       Atomic Center    6 is at   2.623222 -1.523434 -0.382872
       Atomic Center    7 is at   3.995595 -1.504087  0.266662
       Atomic Center    8 is at   1.707087  2.165810  0.184466
       Atomic Center    9 is at   0.273963  2.121136 -0.338673
       Atomic Center   10 is at  -0.424457  0.841867  0.113593
       Atomic Center   11 is at   0.357725 -0.359035 -0.449580
       Atomic Center   12 is at  -1.867155  0.766785 -0.375766
       Atomic Center   13 is at  -2.538765 -0.544423  0.049485
       Atomic Center   14 is at  -1.812936 -1.696164 -0.632943
       Atomic Center   15 is at  -0.342855 -1.705801 -0.222102
       Atomic Center   16 is at  -2.868361  1.837532  0.073275
       Atomic Center   17 is at  -4.248296  1.153366 -0.048381
       Atomic Center   18 is at  -3.968912 -0.305372 -0.461747
       Atomic Center   19 is at  -2.580900 -0.745507  1.564681
       Atomic Center   20 is at  -4.933838 -1.197756  0.051330
       Atomic Center   21 is at   4.329738  1.918342 -0.191644
       Atomic Center   22 is at   1.638734 -0.548494  1.258304
       Atomic Center   23 is at   2.724804 -1.403801 -1.465490
       Atomic Center   24 is at   2.157402 -2.487913 -0.185050
       Atomic Center   25 is at   3.888149 -1.650708  1.346567
       Atomic Center   26 is at   4.633958 -2.305321 -0.111982
       Atomic Center   27 is at   2.249981  3.008382 -0.245756
       Atomic Center   28 is at   1.673036  2.343221  1.276711
       Atomic Center   29 is at   0.278755  2.172117 -1.431198
       Atomic Center   30 is at  -0.267094  2.993606  0.029037
       Atomic Center   31 is at  -0.402404  0.810334  1.204795
       Atomic Center   32 is at   0.460605 -0.211861 -1.533583
       Atomic Center   33 is at  -1.843174  0.776714 -1.473705
       Atomic Center   34 is at  -1.888558 -1.571361 -1.717812
       Atomic Center   35 is at  -2.267505 -2.652919 -0.372263
       Atomic Center   36 is at  -0.257062 -1.986106  0.827530
       Atomic Center   37 is at   0.160750 -2.474153 -0.810111
       Atomic Center   38 is at  -2.808726  2.729976 -0.547354
       Atomic Center   39 is at  -2.669129  2.141787  1.099358
       Atomic Center   40 is at  -4.888983  1.656822 -0.772568
       Atomic Center   41 is at  -4.782109  1.150434  0.901533
       Atomic Center   42 is at  -3.970077 -0.388768 -1.562309
       Atomic Center   43 is at  -1.586372 -0.849313  1.979190
       Atomic Center   44 is at  -3.071752  0.086453  2.058914
       Atomic Center   45 is at  -3.132565 -1.651706  1.797353
       Atomic Center   46 is at  -4.502796 -2.065959  0.127999
 -----------------------------------------------------------------

              Electrostatic Properties (Atomic Units)

 -----------------------------------------------------------------
    Center     Electric         -------- Electric Field --------
               Potential          X             Y             Z
 -----------------------------------------------------------------
    1 Atom    -14.674811      0.004189     -0.003712     -0.000018
    2 Atom    -22.354491      0.104795      0.005161      0.002299
    3 Atom    -14.749198     -0.009635      0.001267      0.000627
    4 Atom    -14.709620      0.013409     -0.000663     -0.001730
    5 Atom    -14.719655     -0.002359     -0.004321     -0.003119
    6 Atom    -14.733735      0.000043     -0.000726      0.000808
    7 Atom    -14.743000      0.001142     -0.000315     -0.002757
    8 Atom    -14.725566     -0.002445      0.003230     -0.000521
    9 Atom    -14.732530     -0.002367     -0.002176      0.000297
   10 Atom    -14.729967     -0.001359      0.000363     -0.003549
   11 Atom    -14.725037     -0.001702      0.000647      0.002222
   12 Atom    -14.736707     -0.000193     -0.001581      0.004018
   13 Atom    -14.733482     -0.001594      0.001955     -0.003637
   14 Atom    -14.736223     -0.000737      0.004571      0.001616
   15 Atom    -14.734909     -0.000118      0.000291     -0.001308
   16 Atom    -14.740161      0.001322     -0.000033     -0.000687
   17 Atom    -14.746304     -0.002792     -0.001738      0.000731
   18 Atom    -14.694045      0.018526      0.013949     -0.006972
   19 Atom    -14.747520     -0.000050      0.000836     -0.001812
   20 Atom    -22.314018     -0.108419      0.028416      0.027152
   21 Atom     -1.108007      0.019052      0.032415     -0.003146
   22 Atom     -1.100357     -0.005799     -0.007871      0.032018
   23 Atom     -1.116114      0.001790      0.001416     -0.032669
   24 Atom     -1.117400     -0.014615     -0.029117      0.003312
   25 Atom     -1.106085     -0.000880     -0.007781      0.032661
   26 Atom     -1.117243      0.022116     -0.019495     -0.009310
   27 Atom     -1.106928      0.017039      0.025670     -0.011745
   28 Atom     -1.098878     -0.001819      0.009773      0.026191
   29 Atom     -1.115887     -0.001736      0.003215     -0.032821
   30 Atom     -1.116456     -0.017226      0.027331      0.008921
   31 Atom     -1.115513     -0.001744     -0.001147      0.036016
   32 Atom     -1.115201      0.003198      0.004417     -0.032167
   33 Atom     -1.121302      0.000662      0.000224     -0.032872
   34 Atom     -1.117140     -0.004027      0.000955     -0.032234
   35 Atom     -1.114649     -0.012268     -0.033001      0.005234
   36 Atom     -1.115988      0.004273     -0.012415      0.032280
   37 Atom     -1.118567      0.015940     -0.023899     -0.014657
   38 Atom     -1.124987      0.002002      0.028400     -0.017314
   39 Atom     -1.123203      0.005616      0.011267      0.032378
   40 Atom     -1.128794     -0.020324      0.013998     -0.020173
   41 Atom     -1.127655     -0.018450     -0.002030      0.027329
   42 Atom     -1.133068     -0.000306     -0.001725     -0.030602
   43 Atom     -1.116324      0.031305     -0.003396      0.017778
   44 Atom     -1.117288     -0.017055      0.023771      0.019397
   45 Atom     -1.116469     -0.018858     -0.026418      0.013419
   46 Atom     -0.995893      0.010465     -0.036208      0.003068
 -----------------------------------------------------------------
 -----------------------------------------------------
    Center         ---- Electric Field Gradient ----
                     XX            YY            ZZ
 -----------------------------------------------------
    1 Atom     -493.296590   -493.222743   -493.971138
    2 Atom    -1217.184737  -1214.576680  -1217.599494
    3 Atom     -493.132757   -493.192764   -493.436749
    4 Atom     -493.194976   -493.282572   -493.872218
    5 Atom     -492.774180   -492.808323   -492.809450
    6 Atom     -492.654698   -492.629651   -492.634414
    7 Atom     -492.732540   -492.747735   -492.765024
    8 Atom     -492.591538   -492.624877   -492.616202
    9 Atom     -492.683885   -492.630107   -492.640877
   10 Atom     -492.780567   -492.798241   -492.786013
   11 Atom     -492.837997   -492.809656   -492.816516
   12 Atom     -492.913865   -492.926457   -492.913180
   13 Atom     -492.965020   -492.966783   -493.012441
   14 Atom     -492.741564   -492.716023   -492.722918
   15 Atom     -492.669814   -492.664471   -492.637798
   16 Atom     -492.664735   -492.605251   -492.585206
   17 Atom     -492.672562   -492.690560   -492.614114
   18 Atom     -492.828463   -492.818062   -492.685072
   19 Atom     -492.576069   -492.590018   -492.626549
   20 Atom    -1214.446190  -1215.839517  -1212.981828
   21 Atom       -1.712185     -1.978781     -1.605451
   22 Atom       -1.625285     -1.628506     -2.016141
   23 Atom       -1.626698     -1.625021     -2.046472
   24 Atom       -1.720766     -1.983718     -1.647128
   25 Atom       -1.609293     -1.612499     -2.026639
   26 Atom       -1.754464     -1.842567     -1.658718
   27 Atom       -1.734868     -1.884807     -1.685427
   28 Atom       -1.600600     -1.611808     -1.991999
   29 Atom       -1.628322     -1.627793     -2.061235
   30 Atom       -1.740974     -1.914926     -1.679425
   31 Atom       -1.645609     -1.644787     -2.078523
   32 Atom       -1.640139     -1.645751     -2.042133
   33 Atom       -1.648900     -1.644567     -2.062350
   34 Atom       -1.630956     -1.633526     -2.052236
   35 Atom       -1.721206     -1.980183     -1.660607
   36 Atom       -1.639595     -1.663409     -2.047708
   37 Atom       -1.734186     -1.855016     -1.760472
   38 Atom       -1.636091     -1.936077     -1.780262
   39 Atom       -1.648207     -1.666016     -2.034029
   40 Atom       -1.781544     -1.725978     -1.827293
   41 Atom       -1.722843     -1.616228     -1.960029
   42 Atom       -1.672655     -1.674837     -2.071420
   43 Atom       -2.023279     -1.626586     -1.695446
   44 Atom       -1.703019     -1.885040     -1.712664
   45 Atom       -1.730103     -1.938736     -1.643599
   46 Atom       -1.577075     -1.957345     -1.417394
 -----------------------------------------------------
 -----------------------------------------------------
    Center         ---- Electric Field Gradient ----
                     XY            XZ            YZ
 -----------------------------------------------------
    1 Atom       -0.010861      0.025366     -0.102250
    2 Atom       -0.093523      0.039634     -0.404202
    3 Atom       -0.009960     -0.025298     -0.026892
    4 Atom       -0.001451     -0.055906     -0.005213
    5 Atom       -0.019216     -0.010197     -0.004886
    6 Atom        0.030335     -0.001139     -0.026241
    7 Atom       -0.005630     -0.031643      0.002236
    8 Atom        0.021718     -0.019251     -0.008324
    9 Atom       -0.006185     -0.018036      0.020136
   10 Atom       -0.000190      0.004634     -0.003700
   11 Atom       -0.008438     -0.013627     -0.008623
   12 Atom        0.016228     -0.009458      0.006173
   13 Atom        0.004240      0.004886      0.002534
   14 Atom       -0.017682     -0.003513     -0.008391
   15 Atom       -0.018899     -0.007742      0.016442
   16 Atom       -0.004680      0.006530     -0.014045
   17 Atom       -0.024043     -0.009426     -0.034519
   18 Atom       -0.187065      0.112543      0.119229
   19 Atom       -0.004709     -0.002133      0.010402
   20 Atom       -0.079762      0.624927      0.813143
   21 Atom       -0.182261      0.023477      0.045697
   22 Atom       -0.007019      0.048630      0.061377
   23 Atom       -0.001826      0.038144      0.046260
   24 Atom       -0.168446      0.033931      0.070634
   25 Atom       -0.007692      0.043521      0.058234
   26 Atom        0.187105      0.088179     -0.113087
   27 Atom       -0.167349      0.086952      0.136320
   28 Atom        0.005406      0.014148     -0.065836
   29 Atom       -0.002324      0.000665      0.019360
   30 Atom        0.174898      0.073343     -0.120538
   31 Atom       -0.001192     -0.008636      0.014115
   32 Atom       -0.005376      0.038087      0.055986
   33 Atom       -0.000042      0.009458      0.002763
   34 Atom        0.004895     -0.029998      0.048913
   35 Atom       -0.163508      0.046906      0.093528
   36 Atom        0.006823     -0.034574      0.109828
   37 Atom        0.143517      0.109688     -0.167693
   38 Atom       -0.020891      0.013830      0.211258
   39 Atom       -0.023277     -0.076807     -0.117975
   40 Atom        0.119816     -0.175136      0.137448
   41 Atom        0.000526      0.188097     -0.001317
   42 Atom       -0.004927      0.004114     -0.028482
   43 Atom        0.041477     -0.163194      0.017082
   44 Atom        0.162181      0.094659     -0.159554
   45 Atom       -0.199007      0.047649      0.079476
   46 Atom        0.245391     -0.007255      0.056795
 -----------------------------------------------------
 -----------------------------------------------------
    Center         ---- Electric Field Gradient ----
                   ----       Eigenvalues       ----
 -----------------------------------------------------
    1 Atom     -493.985672   -493.298019   -493.206781
    2 Atom    -1217.654185  -1217.186757  -1214.519969
    3 Atom     -493.441905   -493.190681   -493.129685
    4 Atom     -493.876849   -493.282536   -493.190380
    5 Atom     -492.822908   -492.804717   -492.764329
    6 Atom     -492.679855   -492.643349   -492.595560
    7 Atom     -492.784379   -492.748710   -492.712210
    8 Atom     -492.635681   -492.625839   -492.571098
    9 Atom     -492.690469   -492.653339   -492.611061
   10 Atom     -492.799338   -492.787772   -492.777712
   11 Atom     -492.848009   -492.812377   -492.803783
   12 Atom     -492.941483   -492.911239   -492.900780
   13 Atom     -493.013035   -492.970205   -492.961004
   14 Atom     -492.752292   -492.723269   -492.704944
   15 Atom     -492.686822   -492.660814   -492.624446
   16 Atom     -492.665482   -492.612457   -492.577252
   17 Atom     -492.718392   -492.658011   -492.600834
   18 Atom     -493.078603   -492.638081   -492.614912
   19 Atom     -492.629317   -492.589235   -492.574083
   20 Atom    -1216.091099  -1214.594188  -1212.582248
   21 Atom       -2.076886     -1.619682     -1.599849
   22 Atom       -2.031569     -1.619695     -1.618667
   23 Atom       -2.054884     -1.624476     -1.618832
   24 Atom       -2.080105     -1.638600     -1.632907
   25 Atom       -2.039209     -1.606282     -1.602941
   26 Atom       -2.044094     -1.606940     -1.604714
   27 Atom       -2.062536     -1.626566     -1.615999
   28 Atom       -2.003624     -1.603392     -1.597392
   29 Atom       -2.062100     -1.630020     -1.625230
   30 Atom       -2.073763     -1.632907     -1.628655
   31 Atom       -2.079153     -1.646456     -1.643310
   32 Atom       -2.053468     -1.638002     -1.636553
   33 Atom       -2.062584     -1.648684     -1.644549
   34 Atom       -2.060023     -1.629845     -1.626851
   35 Atom       -2.085053     -1.642404     -1.634539
   36 Atom       -2.079692     -1.638117     -1.632904
   37 Atom       -2.077118     -1.639137     -1.633421
   38 Atom       -2.084733     -1.634884     -1.632813
   39 Atom       -2.083400     -1.633647     -1.631205
   40 Atom       -2.076023     -1.631094     -1.627698
   41 Atom       -2.063802     -1.619085     -1.616213
   42 Atom       -2.073490     -1.677919     -1.667503
   43 Atom       -2.094961     -1.628060     -1.622290
   44 Atom       -2.074990     -1.617768     -1.607965
   45 Atom       -2.078838     -1.623879     -1.609721
   46 Atom       -2.082064     -1.463494     -1.406257
 -----------------------------------------------------
 -----------------------------------------------------
    Center         ---- Electric Field Gradient ----
                       ( tensor representation )
                   3XX-RR        3YY-RR        3ZZ-RR
 -----------------------------------------------------
    1 Atom        0.200234      0.274081     -0.474314
    2 Atom       -0.731100      1.876957     -1.145857
    3 Atom        0.121333      0.061326     -0.182659
    4 Atom        0.254946      0.167350     -0.422296
    5 Atom        0.023138     -0.011005     -0.012132
    6 Atom       -0.015110      0.009937      0.005174
    7 Atom        0.015893      0.000698     -0.016591
    8 Atom        0.019335     -0.014005     -0.005330
    9 Atom       -0.032262      0.021516      0.010746
   10 Atom        0.007706     -0.009967      0.002261
   11 Atom       -0.016608      0.011734      0.004874
   12 Atom        0.003969     -0.008623      0.004654
   13 Atom        0.016395      0.014631     -0.031027
   14 Atom       -0.014729      0.010812      0.003916
   15 Atom       -0.012453     -0.007110      0.019563
   16 Atom       -0.046338      0.013146      0.033191
   17 Atom       -0.013483     -0.031481      0.044965
   18 Atom       -0.051264     -0.040863      0.092127
   19 Atom        0.021476      0.007528     -0.029004
   20 Atom       -0.023679     -1.417005      1.440684
   21 Atom        0.053288     -0.213309      0.160021
   22 Atom        0.131359      0.128138     -0.259497
   23 Atom        0.139366      0.141042     -0.280408
   24 Atom        0.063104     -0.199847      0.136742
   25 Atom        0.140184      0.136978     -0.277162
   26 Atom       -0.002548     -0.090650      0.093198
   27 Atom        0.033500     -0.116439      0.082940
   28 Atom        0.134202      0.122994     -0.257197
   29 Atom        0.144128      0.144657     -0.288785
   30 Atom        0.037467     -0.136484      0.099017
   31 Atom        0.144031      0.144853     -0.288884
   32 Atom        0.135869      0.130256     -0.266125
   33 Atom        0.136372      0.140705     -0.277077
   34 Atom        0.141283      0.138714     -0.279997
   35 Atom        0.066126     -0.192851      0.126725
   36 Atom        0.143976      0.120162     -0.264138
   37 Atom        0.049039     -0.071791      0.022752
   38 Atom        0.148052     -0.151933      0.003881
   39 Atom        0.134544      0.116735     -0.251278
   40 Atom       -0.003273      0.052294     -0.049021
   41 Atom        0.043524      0.150139     -0.193663
   42 Atom        0.133649      0.131467     -0.265116
   43 Atom       -0.241509      0.155184      0.086324
   44 Atom        0.063889     -0.118132      0.054243
   45 Atom        0.040709     -0.167923      0.127214
   46 Atom        0.073530     -0.306740      0.233211
 -----------------------------------------------------
 -----------------------------------------------------
    Center         ---- Electric Field Gradient ----
                       ( tensor representation )
                   ----       Eigenvalues       ----
 -----------------------------------------------------
    1 Atom       -0.488848      0.198805      0.290043
    2 Atom       -1.200548     -0.733120      1.933668
    3 Atom       -0.187815      0.063410      0.124405
    4 Atom       -0.426927      0.167386      0.259541
    5 Atom       -0.025590     -0.007399      0.032989
    6 Atom       -0.040267     -0.003761      0.044028
    7 Atom       -0.035946     -0.000277      0.036223
    8 Atom       -0.024808     -0.014966      0.039775
    9 Atom       -0.038846     -0.001716      0.040562
   10 Atom       -0.011065      0.000502      0.010562
   11 Atom       -0.026619      0.009013      0.017606
   12 Atom       -0.023649      0.006595      0.017054
   13 Atom       -0.031620      0.011209      0.020411
   14 Atom       -0.025457      0.003566      0.021891
   15 Atom       -0.029461     -0.003453      0.032915
   16 Atom       -0.047085      0.005940      0.041146
   17 Atom       -0.059313      0.001068      0.058245
   18 Atom       -0.301404      0.139117      0.162287
   19 Atom       -0.031772      0.008310      0.023462
   20 Atom       -1.668588     -0.171676      1.840264
   21 Atom       -0.311414      0.145791      0.165623
   22 Atom       -0.274925      0.136948      0.137976
   23 Atom       -0.288820      0.141588      0.147232
   24 Atom       -0.296235      0.145270      0.150964
   25 Atom       -0.289732      0.143196      0.146536
   26 Atom       -0.292178      0.144976      0.147202
   27 Atom       -0.294169      0.141801      0.152368
   28 Atom       -0.268821      0.131411      0.137411
   29 Atom       -0.289650      0.142430      0.147220
   30 Atom       -0.295322      0.145534      0.149787
   31 Atom       -0.289513      0.143184      0.146329
   32 Atom       -0.277460      0.138005      0.139455
   33 Atom       -0.277312      0.136588      0.140724
   34 Atom       -0.287783      0.142395      0.145389
   35 Atom       -0.297721      0.144928      0.152793
   36 Atom       -0.296121      0.145454      0.150667
   37 Atom       -0.293893      0.144088      0.149804
   38 Atom       -0.300590      0.149259      0.151330
   39 Atom       -0.300650      0.149104      0.151546
   40 Atom       -0.297751      0.147178      0.150574
   41 Atom       -0.297435      0.147282      0.150154
   42 Atom       -0.267186      0.128385      0.138802
   43 Atom       -0.313191      0.153710      0.159481
   44 Atom       -0.308082      0.149139      0.158943
   45 Atom       -0.308026      0.146934      0.161092
   46 Atom       -0.431459      0.187111      0.244348
 -----------------------------------------------------
 Unable to Open any file for archive entry.
 1\1\GINC-EXP-3-07\SP\RwB97XD\6-31G(d)\C18H26O2\HKLEM\12-Aug-2024\0\\# 
 wb97xd 6-31G(d) prop=efg\\19nt_mm_min_distance_cutoff3_xtb_ligand_conf
 _1\\0,1\C,0,42.6109,41.7355,31.0767\O,0,42.1692,40.7236,31.6527\C,0,42
 .9182,42.9451,31.7562\C,0,43.26,44.0947,31.1154\C,0,43.4826,44.1162,29
 .6379\C,0,43.8286,42.7132,29.1352\C,0,42.7664,41.7246,29.5825\C,0,43.2
 632,45.3754,31.849\C,0,44.2287,46.4348,31.3246\C,0,44.1472,46.5317,29.
 8038\C,0,44.5287,45.162,29.2126\C,0,45.0868,47.5932,29.2409\C,0,45.024
 8,47.6456,27.7097\C,0,45.5325,46.3171,27.1653\C,0,44.6654,45.1728,27.6
 837\C,0,44.8961,49.0579,29.6518\C,0,45.5241,49.8695,28.4968\C,0,45.952
 6,48.8398,27.4324\C,0,43.6316,47.9632,27.1655\O,0,45.8664,49.3602,26.1
 238\H,0,42.7801,42.9488,32.8284\H,0,42.5198,44.4152,29.1937\H,0,44.802
 8,42.4145,29.5332\H,0,43.8819,42.6993,28.0474\H,0,41.7991,42.0148,29.1
 59\H,0,42.9855,40.7116,29.238\H,0,43.4142,45.2086,32.9163\H,0,42.2311,
 45.7601,31.7376\H,0,45.2501,46.1829,31.6238\H,0,43.9816,47.3966,31.775
 2\H,0,43.1165,46.7698,29.5333\H,0,45.5013,44.8749,29.6356\H,0,46.1107,
 47.3043,29.5135\H,0,46.5664,46.17,27.4934\H,0,45.5223,46.313,26.0745\H
 ,0,43.6753,45.2289,27.2318\H,0,45.1226,44.2371,27.3594\H,0,45.38,49.27
 56,30.6024\H,0,43.8384,49.2891,29.7655\H,0,46.3698,50.4689,28.8343\H,0
 ,44.8058,50.5556,28.0489\H,0,46.9956,48.5273,27.6132\H,0,42.9253,47.17
 7,27.3994\H,0,43.2527,48.8949,27.5726\H,0,43.675,48.0581,26.0844\H,0,4
 5.7312,48.604,25.5277\\Version=ES64L-G16RevC.01\State=1-A\HF=-851.7875
 881\RMSD=4.086e-09\Dipole=0.4502375,1.0778251,-0.5918784\Quadrupole=8.
 2412441,-16.398523,8.1572789,-11.3770783,5.6002163,17.5294196\PG=C01 [
 X(C18H26O2)]\\@
 The archive entry for this job was punched.


 STEINBACH'S GUIDELINES FOR SYSTEMS PROGRAMMING:
 NEVER TEST FOR AN ERROR CONDITION YOU DON'T KNOW HOW
 TO HANDLE.
 Job cpu time:       0 days  0 hours  9 minutes 49.9 seconds.
 Elapsed time:       0 days  0 hours  0 minutes 24.9 seconds.
 File lengths (MBytes):  RWF=     71 Int=      0 D2E=      0 Chk=      8 Scr=      1
 Normal termination of Gaussian 16 at Mon Aug 12 07:19:55 2024.
