 Entering Gaussian System, Link 0=g16
 Initial command:
 /cm/shared/apps/spack/cpu/opt/spack/linux-centos8-zen/gcc-8.3.1/gaussian-16.C.01-po5bqktfeugvmjyga3v7eigbecnokxng/g16/l1.exe "/scratch/hklem/job_32994902/Gau-402873.inp" -scrdir="/scratch/hklem/job_32994902/"
 Entering Link 1 = /cm/shared/apps/spack/cpu/opt/spack/linux-centos8-zen/gcc-8.3.1/gaussian-16.C.01-po5bqktfeugvmjyga3v7eigbecnokxng/g16/l1.exe PID=    402875.
  
 Copyright (c) 1988-2019, Gaussian, Inc.  All Rights Reserved.
  
 This is part of the Gaussian(R) 16 program.  It is based on
 the Gaussian(R) 09 system (copyright 2009, Gaussian, Inc.),
 the Gaussian(R) 03 system (copyright 2003, Gaussian, Inc.),
 the Gaussian(R) 98 system (copyright 1998, Gaussian, Inc.),
 the Gaussian(R) 94 system (copyright 1995, Gaussian, Inc.),
 the Gaussian 92(TM) system (copyright 1992, Gaussian, Inc.),
 the Gaussian 90(TM) system (copyright 1990, Gaussian, Inc.),
 the Gaussian 88(TM) system (copyright 1988, Gaussian, Inc.),
 the Gaussian 86(TM) system (copyright 1986, Carnegie Mellon
 University), and the Gaussian 82(TM) system (copyright 1983,
 Carnegie Mellon University). Gaussian is a federally registered
 trademark of Gaussian, Inc.
  
 This software contains proprietary and confidential information,
 including trade secrets, belonging to Gaussian, Inc.
  
 This software is provided under written license and may be
 used, copied, transmitted, or stored only in accord with that
 written license.
  
 The following legend is applicable only to US Government
 contracts under FAR:
  
                    RESTRICTED RIGHTS LEGEND
  
 Use, reproduction and disclosure by the US Government is
 subject to restrictions as set forth in subparagraphs (a)
 and (c) of the Commercial Computer Software - Restricted
 Rights clause in FAR 52.227-19.
  
 Gaussian, Inc.
 340 Quinnipiac St., Bldg. 40, Wallingford CT 06492
  
  
 ---------------------------------------------------------------
 Warning -- This program may not be used in any manner that
 competes with the business of Gaussian, Inc. or will provide
 assistance to any competitor of Gaussian, Inc.  The licensee
 of this program is prohibited from giving any competitor of
 Gaussian, Inc. access to this program.  By using this program,
 the user acknowledges that Gaussian, Inc. is engaged in the
 business of creating and licensing software in the field of
 computational chemistry and represents and warrants to the
 licensee that it is not a competitor of Gaussian, Inc. and that
 it will not use this program in any manner prohibited above.
 ---------------------------------------------------------------
  

 Cite this work as:
 Gaussian 16, Revision C.01,
 M. J. Frisch, G. W. Trucks, H. B. Schlegel, G. E. Scuseria, 
 M. A. Robb, J. R. Cheeseman, G. Scalmani, V. Barone, 
 G. A. Petersson, H. Nakatsuji, X. Li, M. Caricato, A. V. Marenich, 
 J. Bloino, B. G. Janesko, R. Gomperts, B. Mennucci, H. P. Hratchian, 
 J. V. Ortiz, A. F. Izmaylov, J. L. Sonnenberg, D. Williams-Young, 
 F. Ding, F. Lipparini, F. Egidi, J. Goings, B. Peng, A. Petrone, 
 T. Henderson, D. Ranasinghe, V. G. Zakrzewski, J. Gao, N. Rega, 
 G. Zheng, W. Liang, M. Hada, M. Ehara, K. Toyota, R. Fukuda, 
 J. Hasegawa, M. Ishida, T. Nakajima, Y. Honda, O. Kitao, H. Nakai, 
 T. Vreven, K. Throssell, J. A. Montgomery, Jr., J. E. Peralta, 
 F. Ogliaro, M. J. Bearpark, J. J. Heyd, E. N. Brothers, K. N. Kudin, 
 V. N. Staroverov, T. A. Keith, R. Kobayashi, J. Normand, 
 K. Raghavachari, A. P. Rendell, J. C. Burant, S. S. Iyengar, 
 J. Tomasi, M. Cossi, J. M. Millam, M. Klene, C. Adamo, R. Cammi, 
 J. W. Ochterski, R. L. Martin, K. Morokuma, O. Farkas, 
 J. B. Foresman, and D. J. Fox, Gaussian, Inc., Wallingford CT, 2019.
 
 ******************************************
 Gaussian 16:  ES64L-G16RevC.01  3-Jul-2019
                12-Aug-2024 
 ******************************************
 %nprocshared=24
 Will use up to   24 processors via shared memory.
 %mem=48GB
 --------------------------
 # wb97xd 6-31G(d) prop=efg
 --------------------------
 1/38=1,172=1/1;
 2/12=2,17=6,18=5,40=1/2;
 3/5=1,6=6,7=1,11=2,25=1,30=1,74=-58/1,2,3;
 4//1;
 5/5=2,38=5/2;
 6/7=2,8=2,9=2,10=2,14=1,28=1/1,2;
 99/5=1,9=1/99;
 ----------------------------------------------------
 19nt_mm_min_distance_cutoff5_nowat_xtb_ligand_conf_1
 ----------------------------------------------------
 Symbolic Z-matrix:
 Charge =  0 Multiplicity = 1
 C                     42.169    42.2895   31.0459 
 O                     42.0898   41.1283   31.5006 
 C                     42.6459   43.3921   31.7986 
 C                     42.8087   44.6281   31.256 
 C                     42.7115   44.881    29.7915 
 C                     42.6369   43.5783   28.9924 
 C                     41.6774   42.6054   29.6624 
 C                     42.9819   45.8199   32.107 
 C                     44.02     46.819    31.6041 
 C                     43.8391   47.108    30.1163 
 C                     43.8821   45.7799   29.3405 
 C                     44.9542   48.0112   29.6003 
 C                     44.8783   48.2647   28.0883 
 C                     44.9975   46.9243   27.374 
 C                     43.8709   45.9946   27.8234 
 C                     45.1116   49.4188   30.1767 
 C                     46.0104   50.1313   29.1462 
 C                     46.0898   49.2041   27.9146 
 C                     43.6122   49.0015   27.643 
 O                     46.1074   49.9614   26.7293 
 H                     42.8283   43.2351   32.8531 
 H                     41.7714   45.4479   29.6623 
 H                     43.6315   43.1233   28.9344 
 H                     42.2882   43.7731   27.9783 
 H                     40.6983   43.0859   29.7611 
 H                     41.5507   41.693    29.0774 
 H                     43.1868   45.5398   33.1393 
 H                     41.9883   46.2993   32.0858 
 H                     45.0208   46.4097   31.7748 
 H                     43.9358   47.7432   32.1765 
 H                     42.8632   47.5766   29.9725 
 H                     44.8215   45.269    29.5962 
 H                     45.8992   47.4799   29.7812 
 H                     45.9573   46.4632   27.628 
 H                     44.9693   47.0548   26.2911 
 H                     42.9051   46.4038   27.5264 
 H                     43.9984   45.0365   27.317 
 H                     45.5682   49.4108   31.164 
 H                     44.1414   49.9053   30.267 
 H                     47.0044   50.3194   29.5512 
 H                     45.5977   51.0892   28.8335 
 H                     47.0111   48.5951   27.961 
 H                     42.7174   48.5419   28.0487 
 H                     43.6379   50.0385   27.9613 
 H                     43.5463   48.9875   26.5561 
 H                     45.9897   49.3541   25.9888 
 
                          Input orientation:                          
 ---------------------------------------------------------------------
 Center     Atomic      Atomic             Coordinates (Angstroms)
 Number     Number       Type             X           Y           Z
 ---------------------------------------------------------------------
      1          6           0       42.169000   42.289500   31.045900
      2          8           0       42.089800   41.128300   31.500600
      3          6           0       42.645900   43.392100   31.798600
      4          6           0       42.808700   44.628100   31.256000
      5          6           0       42.711500   44.881000   29.791500
      6          6           0       42.636900   43.578300   28.992400
      7          6           0       41.677400   42.605400   29.662400
      8          6           0       42.981900   45.819900   32.107000
      9          6           0       44.020000   46.819000   31.604100
     10          6           0       43.839100   47.108000   30.116300
     11          6           0       43.882100   45.779900   29.340500
     12          6           0       44.954200   48.011200   29.600300
     13          6           0       44.878300   48.264700   28.088300
     14          6           0       44.997500   46.924300   27.374000
     15          6           0       43.870900   45.994600   27.823400
     16          6           0       45.111600   49.418800   30.176700
     17          6           0       46.010400   50.131300   29.146200
     18          6           0       46.089800   49.204100   27.914600
     19          6           0       43.612200   49.001500   27.643000
     20          8           0       46.107400   49.961400   26.729300
     21          1           0       42.828300   43.235100   32.853100
     22          1           0       41.771400   45.447900   29.662300
     23          1           0       43.631500   43.123300   28.934400
     24          1           0       42.288200   43.773100   27.978300
     25          1           0       40.698300   43.085900   29.761100
     26          1           0       41.550700   41.693000   29.077400
     27          1           0       43.186800   45.539800   33.139300
     28          1           0       41.988300   46.299300   32.085800
     29          1           0       45.020800   46.409700   31.774800
     30          1           0       43.935800   47.743200   32.176500
     31          1           0       42.863200   47.576600   29.972500
     32          1           0       44.821500   45.269000   29.596200
     33          1           0       45.899200   47.479900   29.781200
     34          1           0       45.957300   46.463200   27.628000
     35          1           0       44.969300   47.054800   26.291100
     36          1           0       42.905100   46.403800   27.526400
     37          1           0       43.998400   45.036500   27.317000
     38          1           0       45.568200   49.410800   31.164000
     39          1           0       44.141400   49.905300   30.267000
     40          1           0       47.004400   50.319400   29.551200
     41          1           0       45.597700   51.089200   28.833500
     42          1           0       47.011100   48.595100   27.961000
     43          1           0       42.717400   48.541900   28.048700
     44          1           0       43.637900   50.038500   27.961300
     45          1           0       43.546300   48.987500   26.556100
     46          1           0       45.989700   49.354100   25.988800
 ---------------------------------------------------------------------
                    Distance matrix (angstroms):
                    1          2          3          4          5
     1  C    0.000000
     2  O    1.249564   0.000000
     3  C    1.417645   2.350073   0.000000
     4  C    2.433600   3.581235   1.359638   0.000000
     5  C    2.929795   4.170167   2.499915   1.489351   0.000000
     6  C    2.469170   3.548646   2.812385   2.501096   1.530083
     7  C    1.501844   2.393925   2.473912   2.812599   2.502875
     8  C    3.774979   4.814008   2.470267   1.474648   2.513203
     9  C    4.924851   6.010029   3.697246   2.527541   2.958637
    10  C    5.183757   6.382253   4.249914   2.917284   2.517242
    11  C    4.245703   5.432840   3.643080   2.479510   1.543284
    12  C    6.525714   7.693519   5.612206   4.334729   3.855439
    13  C    7.196577   8.387355   6.518602   5.248088   4.364096
    14  C    6.554741   7.686167   6.130542   5.013313   3.904507
    15  C    5.196993   6.354132   4.906714   3.844260   2.541207
    16  C    7.761528   8.922801   6.710540   5.423932   5.147862
    17  C    8.936389  10.097936   7.985731   6.707261   6.234164
    18  C    8.543384   9.699378   7.792641   6.547545   5.798695
    19  C    7.662473   8.898655   7.047561   5.729399   4.733480
    20  O    9.643759  10.813421   8.990856   7.734114   6.835179
    21  H    2.143550   2.610219   1.081614   2.119330   3.477934
    22  H    3.471012   4.705281   3.091091   2.070735   1.105376
    23  H    2.700474   3.597533   3.040938   2.886390   2.161141
    24  H    3.409611   4.409187   3.855879   3.427136   2.166638
    25  H    2.109010   2.965524   2.835191   3.011129   2.697459
    26  H    2.147813   2.545862   3.389887   3.865705   3.467094
    27  H    3.997836   4.832192   2.588950   2.126259   3.444952
    28  H    4.146389   5.204998   2.994450   2.038267   2.792563
    29  H    5.063606   6.046415   3.840134   2.887324   3.406357
    30  H    5.843174   6.900830   4.553979   3.438244   3.921648
    31  H    5.439442   6.671867   4.570766   3.216208   2.705926
    32  H    4.244385   5.313598   3.620298   2.686457   2.154248
    33  H    6.515682   7.603334   5.600355   4.456343   4.112884
    34  H    6.591891   7.643019   6.147433   5.142340   4.209431
    35  H    7.290946   8.399632   7.010429   5.933574   4.698496
    36  H    5.464082   6.655064   5.233471   4.131866   2.736253
    37  H    4.979700   6.034840   4.961658   4.134960   2.793464
    38  H    7.891858   8.989570   6.720662   5.522456   5.528434
    39  H    7.905533   9.097613   6.855953   5.532002   5.245408
    40  H    9.491813  10.603291   8.487333   7.273317   6.932743
    41  H    9.699764  10.892122   8.760724   7.442637   6.913007
    42  H    8.527786   9.617747   7.800856   6.652389   5.969240
    43  H    6.955319   8.201888   6.370816   5.060923   4.054575
    44  H    8.468732   9.711587   7.738447   6.388666   5.550464
    45  H    8.180371   9.398750   7.720300   6.452711   5.294152
    46  H    9.491079  10.642037   8.971077   7.758688   6.724265
                    6          7          8          9         10
     6  C    0.000000
     7  C    1.521866   0.000000
     8  C    3.852860   4.243913   0.000000
     9  C    4.385895   5.197345   1.526028   0.000000
    10  C    3.894511   5.015215   2.521285   1.526366   0.000000
    11  C    2.553182   3.878372   2.909550   2.494520   1.538689
    12  C    5.038851   6.321705   3.869794   2.511829   1.524951
    13  C    5.272913   6.689636   5.071817   3.897124   2.555519
    14  C    4.403109   5.908700   5.261524   4.342849   2.982590
    15  C    2.954289   4.436219   4.378364   3.872410   2.549130
    16  C    6.452763   7.647264   4.605840   3.160383   2.638693
    17  C    7.371972   8.699455   6.043701   4.579770   3.846554
    18  C    6.688333   8.128156   6.219973   4.856458   3.782429
    19  C    5.673023   6.980797   5.517894   4.540916   3.123146
    20  O    7.609859   9.074068   7.472645   6.164056   4.975826
    21  H    3.880647   3.449878   2.694708   3.978001   4.848829
    22  H    2.166393   2.844054   2.753226   3.272110   2.690247
    23  H    1.095271   2.148653   4.214146   4.575634   4.161468
    24  H    1.089925   2.138409   4.660126   5.042129   4.254162
    25  H    2.142785   1.095107   4.265306   5.326009   5.115475
    26  H    2.177478   1.091216   5.315836   6.225555   5.969783
    27  H    4.620244   4.793519   1.089075   2.165044   3.467460
    28  H    4.170569   4.428817   1.103411   2.151727   2.821061
    29  H    4.630503   5.487555   2.148333   1.094653   2.152826
    30  H    5.401113   6.149639   2.147985   1.090356   2.158067
    31  H    4.122889   5.120070   2.766979   2.138753   1.092083
    32  H    2.827635   4.121227   3.160971   2.660181   2.148845
    33  H    5.146580   6.449687   4.083575   2.700212   2.120050
    34  H    4.605355   6.110560   5.415559   4.437240   3.330792
    35  H    4.982285   6.480697   6.268926   5.402290   3.989027
    36  H    3.194454   4.527426   4.618304   4.247709   2.841801
    37  H    2.605186   4.098559   4.958940   4.642952   3.486054
    38  H    6.879420   7.981641   4.524683   3.050908   3.064368
    39  H    6.627145   7.728220   4.628232   3.365683   2.817620
    40  H    8.051692   9.375238   6.554244   5.037245   4.544398
    41  H    8.074974   9.382467   6.732290   5.329162   4.537423
    42  H    6.735406   8.198757   6.412917   5.037200   4.113194
    43  H    5.053155   6.239203   4.893776   4.160051   2.754859
    44  H    6.618108   7.873263   5.950945   4.876594   3.643122
    45  H    6.001834   7.339829   6.415974   5.514444   4.036493
    46  H    7.322755   8.811142   7.679180   6.468233   5.167814
                   11         12         13         14         15
    11  C    0.000000
    12  C    2.489095   0.000000
    13  C    2.955444   1.534981   0.000000
    14  C    2.533948   2.477829   1.523517   0.000000
    15  C    1.532258   2.897859   2.497675   1.528244   0.000000
    16  C    3.930966   1.529166   2.397455   3.753755   4.336185
    17  C    4.847896   2.411761   2.425902   3.801514   4.841441
    18  C    4.316512   2.356731   1.542847   2.585122   3.902912
    19  C    3.651446   2.571513   1.531070   2.511210   3.023395
    20  O    5.408814   3.657293   2.497270   3.297195   4.683427
    21  H    4.463727   6.157214   7.225143   6.952421   5.830929
    22  H    2.160748   4.087122   4.479360   4.221824   2.844000
    23  H    2.699119   5.107301   5.357648   4.329943   3.088041
    24  H    2.902301   5.263072   5.186057   4.199470   2.732031
    25  H    4.191792   6.511307   6.862261   6.238163   4.720234
    26  H    4.712473   7.195616   7.432260   6.492188   5.045751
    27  H    3.869363   4.664337   5.983214   6.199529   5.378999
    28  H    3.375341   4.231415   5.309887   5.625564   4.669591
    29  H    2.760272   2.701423   4.129360   4.430846   4.136199
    30  H    3.449685   2.783122   4.227724   4.986162   4.691620
    31  H    2.160026   2.167877   2.843294   3.425337   2.852510
    32  H    1.099488   2.745412   3.354282   2.776539   2.138447
    33  H    2.674492   1.099104   2.126983   2.629898   3.186393
    34  H    2.775970   2.700459   2.149772   1.094690   2.147285
    35  H    3.479399   3.444667   2.168425   1.091099   2.162972
    36  H    2.152844   3.329205   2.769873   2.161547   1.090148
    37  H    2.158870   3.869865   3.433716   2.136642   1.091170
    38  H    4.399036   2.186558   3.354018   4.568641   5.070588
    39  H    4.236102   2.166275   2.825124   4.241311   4.619299
    40  H    5.513639   3.087640   3.298813   4.504947   5.613200
    41  H    5.602589   3.236689   3.008431   4.453849   5.473307
    42  H    4.429335   2.694268   2.161991   2.681553   4.079509
    43  H    3.264034   2.773514   2.178967   2.875883   2.805363
    44  H    4.483024   2.920430   2.168199   3.448431   4.052954
    45  H    4.260791   3.493207   2.155064   2.651742   3.266323
    46  H    5.333927   3.989809   2.613408   2.967687   4.375078
                   16         17         18         19         20
    16  C    0.000000
    17  C    1.541891   0.000000
    18  C    2.473877   1.543646   0.000000
    19  C    2.973546   3.047527   2.500663   0.000000
    20  O    3.629132   2.424805   1.406680   2.825293   0.000000
    21  H    7.114402   8.451298   8.405660   7.810954   9.669361
    22  H    5.214364   6.337958   5.984319   4.482654   6.911951
    23  H    6.585387   7.403789   6.637722   6.018415   7.599484
    24  H    6.684196   7.459589   6.629629   5.403848   7.378438
    25  H    7.730172   8.845008   8.361232   6.926145   9.258654
    26  H    8.577672   9.544557   8.852805   7.727966   9.728490
    27  H    5.246760   6.708162   7.010848   6.509504   8.316763
    28  H    4.809464   6.285122   6.531391   5.447697   7.685704
    29  H    3.408350   4.662526   4.883910   5.076746   6.265169
    30  H    2.861702   4.380606   4.993770   4.716000   6.269629
    31  H    2.913881   4.136923   4.158684   2.831592   5.170150
    32  H    4.200236   5.025728   4.463337   4.382802   5.647236
    33  H    2.129805   2.728647   2.548213   3.481025   3.938944
    34  H    3.993326   3.970228   2.759027   3.455819   3.614913
    35  H    4.550454   4.324389   2.917321   2.731116   3.152081
    36  H    4.580716   5.114772   4.258485   2.694741   4.852485
    37  H    5.349921   5.775041   4.701060   3.997080   5.389612
    38  H    1.087800   2.187734   3.297483   4.048568   4.501162
    39  H    1.089093   2.190988   3.133964   2.825293   4.047669
    40  H    2.187469   1.089698   2.181478   4.109149   2.982598
    41  H    2.197889   1.088887   2.154099   3.117369   2.441185
    42  H    3.032476   2.183119   1.105363   3.437849   2.049520
    43  H    3.321074   3.817663   3.439415   1.084662   3.904856
    44  H    2.731999   2.653555   2.590409   1.085055   2.760833
    45  H    3.967988   3.753490   2.891683   1.088986   2.745490
    46  H    4.279457   3.251714   1.934225   2.917741   0.964887
                   21         22         23         24         25
    21  H    0.000000
    22  H    4.024267   0.000000
    23  H    4.001730   3.064894   0.000000
    24  H    4.934048   2.430616   1.772236   0.000000
    25  H    3.757609   2.596218   3.047703   2.485639   0.000000
    26  H    4.273903   3.806585   2.529019   2.465511   1.770368
    27  H    2.349910   3.755174   4.870155   5.528529   4.860709
    28  H    3.268589   2.577844   4.766383   4.831478   4.170644
    29  H    4.005980   3.993284   4.560532   5.369560   5.812628
    30  H    4.691195   4.034133   5.652193   6.008424   6.164901
    31  H    5.210345   2.412388   4.636790   4.332906   4.989776
    32  H    4.326314   3.056057   2.541281   3.357518   4.668393
    33  H    6.073329   4.602379   4.983924   5.479976   6.808598
    34  H    6.892963   4.763504   4.274454   4.563074   6.604041
    35  H    7.888842   4.916674   4.922747   4.561195   6.784873
    36  H    6.198410   2.600209   3.643048   2.739592   4.568622
    37  H    5.938230   3.260247   2.531982   2.226720   4.546331
    38  H    6.964150   5.689936   6.946552   7.258839   8.104839
    39  H    7.273494   5.084386   6.930465   6.802674   7.656049
    40  H    8.861696   7.150395   7.971245   8.220134   9.598671
    41  H    9.247359   6.866713   8.205589   8.075238   9.429601
    42  H    8.376041   6.344584   6.504598   6.749649   8.569894
    43  H    7.159377   3.615447   5.566082   4.788593   6.064406
    44  H    8.418516   5.239354   6.983334   6.409151   7.760101
    45  H    8.559079   5.032645   6.328697   5.549364   7.294656
    46  H    9.723951   6.822540   7.284266   6.986184   9.028815
                   26         27         28         29         30
    26  H    0.000000
    27  H    5.828698   0.000000
    28  H    5.519055   1.767231   0.000000
    29  H    6.447078   2.445842   3.050404   0.000000
    30  H    7.204030   2.518523   2.426073   1.765449   0.000000
    31  H    6.094310   3.779139   2.619729   3.043876   2.456795
    32  H    4.873917   3.911411   3.909814   2.467228   3.682944
    33  H    7.272757   4.732646   4.690430   2.427211   3.108332
    34  H    6.653848   6.237208   5.970913   4.251570   5.139427
    35  H    6.942564   7.236738   6.560159   5.521754   6.014977
    36  H    5.141171   5.685991   4.651835   4.746064   4.947703
    37  H    4.502137   5.900100   5.326971   4.775245   5.562813
    38  H    8.947550   4.955554   4.831856   3.111161   2.543772
    39  H    8.693029   5.312152   4.576801   3.907176   2.891909
    40  H   10.216756   7.091763   6.909896   4.915773   4.790127
    41  H   10.233585   7.426183   6.822636   5.557138   5.013310
    42  H    8.871375   7.125652   6.892981   4.825177   5.287121
    43  H    7.023307   5.928503   4.675363   4.871935   4.377345
    44  H    8.674644   6.874116   5.806401   5.442737   4.808852
    45  H    7.971769   7.440054   6.342820   6.004501   5.769652
    46  H    9.377453   8.575242   7.906732   6.563997   6.715738
                   31         32         33         34         35
    31  H    0.000000
    32  H    3.049846   0.000000
    33  H    3.043558   2.466524   0.000000
    34  H    4.038539   2.567093   2.381874   0.000000
    35  H    4.273247   3.759603   3.636787   1.764493   0.000000
    36  H    2.713046   3.040466   3.899583   3.054468   2.492125
    37  H    3.846098   2.434400   3.956706   2.443253   2.463464
    38  H    3.478647   4.491110   2.397931   4.619853   5.445601
    39  H    2.672708   4.733686   3.034539   4.702113   4.961708
    40  H    4.984976   5.502147   3.055671   4.434568   5.042569
    41  H    4.594907   5.921058   3.743806   4.793998   4.809893
    42  H    4.721075   4.304784   2.406890   2.401329   3.054511
    43  H    2.157329   4.187346   3.775348   3.872329   3.220509
    44  H    3.272008   5.178990   3.869360   4.274749   3.669422
    45  H    3.758863   4.969465   4.267349   3.651572   2.414639
    46  H    5.366971   5.573694   4.231207   3.323451   2.533650
                   36         37         38         39         40
    36  H    0.000000
    37  H    1.763140   0.000000
    38  H    5.419067   6.033091   0.000000
    39  H    4.615174   5.694573   1.756388   0.000000
    40  H    6.019634   6.475857   2.342936   2.980036   0.000000
    41  H    5.559818   6.441484   2.872129   2.361642   1.756841
    42  H    4.674389   4.706881   3.606458   3.907613   2.345632
    43  H    2.208959   3.803180   4.311281   2.967742   4.878051
    44  H    3.733253   5.056193   3.791748   2.363791   3.733632
    45  H    2.833395   4.048921   5.049753   3.868757   4.764770
    46  H    4.536876   4.936705   5.192646   4.692870   3.827808
                   41         42         43         44         45
    41  H    0.000000
    42  H    2.996580   0.000000
    43  H    3.924382   4.294925   0.000000
    44  H    2.388623   3.669044   1.759196   0.000000
    45  H    3.716441   3.759330   1.764508   1.757151   0.000000
    46  H    3.355079   2.347107   3.951051   3.144857   2.535040
                   46
    46  H    0.000000
 Stoichiometry    C18H26O2
 Framework group  C1[X(C18H26O2)]
 Deg. of freedom   132
 Full point group                 C1      NOp   1
 Largest Abelian subgroup         C1      NOp   1
 Largest concise Abelian subgroup C1      NOp   1
                         Standard orientation:                         
 ---------------------------------------------------------------------
 Center     Atomic      Atomic             Coordinates (Angstroms)
 Number     Number       Type             X           Y           Z
 ---------------------------------------------------------------------
      1          6           0        4.637559   -0.165324   -0.238644
      2          8           0        5.805335   -0.161733   -0.683276
      3          6           0        3.786013    0.967603   -0.271232
      4          6           0        2.489623    0.915836    0.135350
      5          6           0        1.794578   -0.365587    0.440365
      6          6           0        2.630858   -1.578992    0.028736
      7          6           0        4.081707   -1.382158    0.443909
      8          6           0        1.724022    2.146412    0.407608
      9          6           0        0.278466    2.121055   -0.080740
     10          6           0       -0.420547    0.823734    0.316921
     11          6           0        0.396728   -0.367113   -0.213652
     12          6           0       -1.822292    0.758560   -0.280020
     13          6           0       -2.543619   -0.565069    0.009563
     14          6           0       -1.725556   -1.696629   -0.599905
     15          6           0       -0.320666   -1.703841    0.001564
     16          6           0       -2.860242    1.808953    0.117076
     17          6           0       -4.196753    1.178836   -0.323512
     18          6           0       -3.893187   -0.290632   -0.685941
     19          6           0       -2.796571   -0.824139    1.497203
     20          8           0       -4.958341   -1.123113   -0.297134
     21          1           0        4.218993    1.908673   -0.582367
     22          1           0        1.662157   -0.363397    1.537778
     23          1           0        2.580130   -1.711044   -1.057361
     24          1           0        2.249391   -2.483017    0.503244
     25          1           0        4.119217   -1.201847    1.523418
     26          1           0        4.689152   -2.261852    0.225047
     27          1           0        2.242868    3.024932    0.026707
     28          1           0        1.725595    2.213505    1.508976
     29          1           0        0.268637    2.218656   -1.170989
     30          1           0       -0.256200    2.975456    0.335201
     31          1           0       -0.461062    0.774359    1.407135
     32          1           0        0.527748   -0.231697   -1.296874
     33          1           0       -1.703234    0.817568   -1.371063
     34          1           0       -1.645283   -1.543366   -1.680836
     35          1           0       -2.210222   -2.660573   -0.437402
     36          1           0       -0.370359   -1.916093    1.069695
     37          1           0        0.248084   -2.505219   -0.472745
     38          1           0       -2.689398    2.763554   -0.375729
     39          1           0       -2.834437    1.984328    1.191647
     40          1           0       -4.620370    1.706421   -1.177705
     41          1           0       -4.940205    1.193693    0.471933
     42          1           0       -3.747328   -0.386449   -1.777441
     43          1           0       -1.896825   -0.685316    2.086844
     44          1           0       -3.561946   -0.156885    1.879719
     45          1           0       -3.146064   -1.846373    1.634255
     46          1           0       -4.665719   -2.038282   -0.385708
 ---------------------------------------------------------------------
 Rotational constants (GHZ):           0.9196495           0.1773821           0.1575860
 Standard basis: 6-31G(d) (6D, 7F)
 There are   352 symmetry adapted cartesian basis functions of A   symmetry.
 There are   352 symmetry adapted basis functions of A   symmetry.
   352 basis functions,   664 primitive gaussians,   352 cartesian basis functions
    75 alpha electrons       75 beta electrons
       nuclear repulsion energy      1673.3129311272 Hartrees.
 NAtoms=   46 NActive=   46 NUniq=   46 SFac= 1.00D+00 NAtFMM=   60 NAOKFM=F Big=F
 Integral buffers will be    131072 words long.
 Raffenetti 2 integral format.
 Two-electron integral symmetry is turned on.
 Nuclear repulsion after empirical dispersion term =     1673.2635814954 Hartrees.
 One-electron integrals computed using PRISM.
 NBasis=   352 RedAO= T EigKep=  1.21D-03  NBF=   352
 NBsUse=   352 1.00D-06 EigRej= -1.00D+00 NBFU=   352
 ExpMin= 1.61D-01 ExpMax= 5.48D+03 ExpMxC= 8.25D+02 IAcc=3 IRadAn=         5 AccDes= 0.00D+00
 Harris functional with IExCor= 4639 and IRadAn=       5 diagonalized for initial guess.
 HarFok:  IExCor= 4639 AccDes= 0.00D+00 IRadAn=         5 IDoV= 1 UseB2=F ITyADJ=14
 ICtDFT=  3500011 ScaDFX=  1.000000  1.000000  1.000000  1.000000
 FoFCou: FMM=F IPFlag=           0 FMFlag=      100000 FMFlg1=           0
         NFxFlg=           0 DoJE=T BraDBF=F KetDBF=T FulRan=T
         wScrn=  0.000000 ICntrl=       500 IOpCl=  0 I1Cent=   200000004 NGrid=           0
         NMat0=    1 NMatS0=      1 NMatT0=    0 NMatD0=    1 NMtDS0=    0 NMtDT0=    0
 Petite list used in FoFCou.
 Requested convergence on RMS density matrix=1.00D-08 within 128 cycles.
 Requested convergence on MAX density matrix=1.00D-06.
 Requested convergence on             energy=1.00D-06.
 No special actions if energy rises.
 Integral accuracy reduced to 1.0D-05 until final iterations.
 Initial convergence to 1.0D-05 achieved.  Increase integral accuracy.
 SCF Done:  E(RwB97XD) =  -851.789046745     A.U. after   15 cycles
            NFock= 15  Conv=0.54D-08     -V/T= 2.0088

 **********************************************************************

            Population analysis using the SCF Density.

 **********************************************************************

 Orbital symmetries:
       Occupied  (A) (A) (A) (A) (A) (A) (A) (A) (A) (A) (A) (A)
                 (A) (A) (A) (A) (A) (A) (A) (A) (A) (A) (A) (A)
                 (A) (A) (A) (A) (A) (A) (A) (A) (A) (A) (A) (A)
                 (A) (A) (A) (A) (A) (A) (A) (A) (A) (A) (A) (A)
                 (A) (A) (A) (A) (A) (A) (A) (A) (A) (A) (A) (A)
                 (A) (A) (A) (A) (A) (A) (A) (A) (A) (A) (A) (A)
                 (A) (A) (A)
       Virtual   (A) (A) (A) (A) (A) (A) (A) (A) (A) (A) (A) (A)
                 (A) (A) (A) (A) (A) (A) (A) (A) (A) (A) (A) (A)
                 (A) (A) (A) (A) (A) (A) (A) (A) (A) (A) (A) (A)
                 (A) (A) (A) (A) (A) (A) (A) (A) (A) (A) (A) (A)
                 (A) (A) (A) (A) (A) (A) (A) (A) (A) (A) (A) (A)
                 (A) (A) (A) (A) (A) (A) (A) (A) (A) (A) (A) (A)
                 (A) (A) (A) (A) (A) (A) (A) (A) (A) (A) (A) (A)
                 (A) (A) (A) (A) (A) (A) (A) (A) (A) (A) (A) (A)
                 (A) (A) (A) (A) (A) (A) (A) (A) (A) (A) (A) (A)
                 (A) (A) (A) (A) (A) (A) (A) (A) (A) (A) (A) (A)
                 (A) (A) (A) (A) (A) (A) (A) (A) (A) (A) (A) (A)
                 (A) (A) (A) (A) (A) (A) (A) (A) (A) (A) (A) (A)
                 (A) (A) (A) (A) (A) (A) (A) (A) (A) (A) (A) (A)
                 (A) (A) (A) (A) (A) (A) (A) (A) (A) (A) (A) (A)
                 (A) (A) (A) (A) (A) (A) (A) (A) (A) (A) (A) (A)
                 (A) (A) (A) (A) (A) (A) (A) (A) (A) (A) (A) (A)
                 (A) (A) (A) (A) (A) (A) (A) (A) (A) (A) (A) (A)
                 (A) (A) (A) (A) (A) (A) (A) (A) (A) (A) (A) (A)
                 (A) (A) (A) (A) (A) (A) (A) (A) (A) (A) (A) (A)
                 (A) (A) (A) (A) (A) (A) (A) (A) (A) (A) (A) (A)
                 (A) (A) (A) (A) (A) (A) (A) (A) (A) (A) (A) (A)
                 (A) (A) (A) (A) (A) (A) (A) (A) (A) (A) (A) (A)
                 (A) (A) (A) (A) (A) (A) (A) (A) (A) (A) (A) (A)
                 (A)
 The electronic state is 1-A.
 Alpha  occ. eigenvalues --  -19.26759 -19.23456 -10.36576 -10.34083 -10.32967
 Alpha  occ. eigenvalues --  -10.31552 -10.30995 -10.30771 -10.30468 -10.30264
 Alpha  occ. eigenvalues --  -10.30202 -10.30067 -10.29847 -10.29828 -10.29715
 Alpha  occ. eigenvalues --  -10.29275 -10.29257 -10.29187 -10.28810 -10.28502
 Alpha  occ. eigenvalues --   -1.12518  -1.10072  -0.98705  -0.96104  -0.91181
 Alpha  occ. eigenvalues --   -0.90524  -0.87415  -0.84621  -0.82899  -0.81606
 Alpha  occ. eigenvalues --   -0.78114  -0.77571  -0.73792  -0.72254  -0.69671
 Alpha  occ. eigenvalues --   -0.67892  -0.65798  -0.65410  -0.63186  -0.61094
 Alpha  occ. eigenvalues --   -0.60217  -0.58400  -0.57395  -0.55798  -0.55581
 Alpha  occ. eigenvalues --   -0.54430  -0.53587  -0.53123  -0.51799  -0.50744
 Alpha  occ. eigenvalues --   -0.50386  -0.49653  -0.48827  -0.48056  -0.47750
 Alpha  occ. eigenvalues --   -0.46975  -0.46831  -0.46666  -0.45253  -0.44699
 Alpha  occ. eigenvalues --   -0.44167  -0.43482  -0.42972  -0.42642  -0.42028
 Alpha  occ. eigenvalues --   -0.41765  -0.40978  -0.40209  -0.39750  -0.38440
 Alpha  occ. eigenvalues --   -0.37278  -0.36357  -0.34040  -0.32436  -0.30851
 Alpha virt. eigenvalues --    0.02165   0.13268   0.14073   0.14970   0.16656
 Alpha virt. eigenvalues --    0.17019   0.17941   0.18685   0.19599   0.20363
 Alpha virt. eigenvalues --    0.20634   0.21023   0.22122   0.22694   0.23676
 Alpha virt. eigenvalues --    0.23738   0.24276   0.24740   0.25016   0.25266
 Alpha virt. eigenvalues --    0.25368   0.26069   0.26368   0.26700   0.27092
 Alpha virt. eigenvalues --    0.27346   0.28714   0.28964   0.29582   0.30859
 Alpha virt. eigenvalues --    0.30923   0.31428   0.31984   0.32686   0.33360
 Alpha virt. eigenvalues --    0.33836   0.34116   0.35411   0.35822   0.36253
 Alpha virt. eigenvalues --    0.37092   0.37276   0.39082   0.39527   0.40798
 Alpha virt. eigenvalues --    0.41699   0.42447   0.44870   0.45294   0.49743
 Alpha virt. eigenvalues --    0.52469   0.58063   0.58640   0.59505   0.60038
 Alpha virt. eigenvalues --    0.61745   0.62031   0.62233   0.63396   0.65190
 Alpha virt. eigenvalues --    0.65899   0.66164   0.66667   0.68315   0.69601
 Alpha virt. eigenvalues --    0.70346   0.70870   0.72597   0.72712   0.72956
 Alpha virt. eigenvalues --    0.73611   0.74277   0.75199   0.75924   0.76514
 Alpha virt. eigenvalues --    0.77564   0.78011   0.78683   0.80100   0.81081
 Alpha virt. eigenvalues --    0.82724   0.82901   0.84397   0.84851   0.85870
 Alpha virt. eigenvalues --    0.86502   0.87660   0.88916   0.90197   0.90402
 Alpha virt. eigenvalues --    0.91130   0.93228   0.93694   0.94517   0.94934
 Alpha virt. eigenvalues --    0.95183   0.96054   0.96171   0.96679   0.96914
 Alpha virt. eigenvalues --    0.97527   0.97629   0.97806   0.98766   0.99115
 Alpha virt. eigenvalues --    0.99423   1.00202   1.00733   1.00999   1.02372
 Alpha virt. eigenvalues --    1.02878   1.03619   1.03923   1.04608   1.04827
 Alpha virt. eigenvalues --    1.05831   1.06099   1.06401   1.07498   1.08526
 Alpha virt. eigenvalues --    1.08742   1.10234   1.10839   1.11805   1.13557
 Alpha virt. eigenvalues --    1.13997   1.15792   1.16550   1.19250   1.20991
 Alpha virt. eigenvalues --    1.21858   1.23788   1.25917   1.27637   1.27933
 Alpha virt. eigenvalues --    1.30359   1.30492   1.34221   1.36824   1.39085
 Alpha virt. eigenvalues --    1.40805   1.43151   1.45303   1.48873   1.49475
 Alpha virt. eigenvalues --    1.51211   1.53015   1.54301   1.56307   1.58564
 Alpha virt. eigenvalues --    1.62150   1.62865   1.64649   1.66577   1.66985
 Alpha virt. eigenvalues --    1.70326   1.71797   1.73356   1.75659   1.75809
 Alpha virt. eigenvalues --    1.77144   1.79342   1.80742   1.82030   1.84108
 Alpha virt. eigenvalues --    1.85537   1.87206   1.87415   1.87701   1.88875
 Alpha virt. eigenvalues --    1.90100   1.92302   1.93535   1.94246   1.95641
 Alpha virt. eigenvalues --    1.96188   1.96957   1.97801   1.98948   2.00111
 Alpha virt. eigenvalues --    2.00764   2.02086   2.02807   2.03403   2.04465
 Alpha virt. eigenvalues --    2.05609   2.06594   2.07076   2.08106   2.08262
 Alpha virt. eigenvalues --    2.09106   2.09513   2.10906   2.11890   2.12909
 Alpha virt. eigenvalues --    2.13830   2.14426   2.15628   2.15994   2.19176
 Alpha virt. eigenvalues --    2.19472   2.20583   2.23123   2.23756   2.25955
 Alpha virt. eigenvalues --    2.26705   2.28150   2.30582   2.31601   2.33478
 Alpha virt. eigenvalues --    2.35284   2.37041   2.37428   2.40001   2.41365
 Alpha virt. eigenvalues --    2.41881   2.42813   2.43704   2.45911   2.47286
 Alpha virt. eigenvalues --    2.49524   2.49549   2.51132   2.52384   2.53652
 Alpha virt. eigenvalues --    2.54680   2.57513   2.59091   2.62792   2.63646
 Alpha virt. eigenvalues --    2.64149   2.64459   2.66159   2.66990   2.68342
 Alpha virt. eigenvalues --    2.69467   2.71065   2.73081   2.75636   2.77328
 Alpha virt. eigenvalues --    2.79531   2.80402   2.81650   2.83672   2.84913
 Alpha virt. eigenvalues --    2.87089   2.90499   2.94105   2.97328   2.99268
 Alpha virt. eigenvalues --    3.01515   3.02193   3.07315   3.08927   3.10917
 Alpha virt. eigenvalues --    3.21037   3.27973   4.01625   4.09421   4.26073
 Alpha virt. eigenvalues --    4.27056   4.31591   4.35187   4.36931   4.39419
 Alpha virt. eigenvalues --    4.42758   4.43886   4.48807   4.54761   4.55991
 Alpha virt. eigenvalues --    4.66010   4.68270   4.75822   4.78313   4.82466
 Alpha virt. eigenvalues --    4.86664   4.92411
          Condensed to atoms (all electrons):
               1          2          3          4          5          6
     1  C    4.444134   0.534209   0.347888   0.003481  -0.024346  -0.024381
     2  O    0.534209   8.107331  -0.062739   0.005252   0.000434   0.001279
     3  C    0.347888  -0.062739   5.319166   0.523369  -0.043344  -0.000379
     4  C    0.003481   0.005252   0.523369   4.863428   0.379627  -0.044895
     5  C   -0.024346   0.000434  -0.043344   0.379627   5.107540   0.341722
     6  C   -0.024381   0.001279  -0.000379  -0.044895   0.341722   5.153394
     7  C    0.344091  -0.076184  -0.141260   0.003252  -0.036016   0.294083
     8  C    0.004028  -0.000095  -0.035704   0.362268  -0.073201   0.006129
     9  C   -0.000145   0.000000   0.001955  -0.035120  -0.011517  -0.000271
    10  C   -0.000023   0.000000   0.000554  -0.015147  -0.038729   0.004142
    11  C   -0.000214   0.000002   0.001458  -0.034551   0.365340  -0.047350
    12  C   -0.000000   0.000000   0.000002   0.000148   0.004073  -0.000140
    13  C   -0.000000   0.000000   0.000000   0.000001   0.000066  -0.000001
    14  C    0.000000   0.000000   0.000001  -0.000105   0.004190   0.000148
    15  C   -0.000003  -0.000000  -0.000085   0.004558  -0.045826  -0.004981
    16  C   -0.000000  -0.000000   0.000000  -0.000003  -0.000109   0.000001
    17  C    0.000000  -0.000000  -0.000000   0.000000   0.000002  -0.000000
    18  C    0.000000   0.000000  -0.000000   0.000000   0.000005  -0.000000
    19  C   -0.000000   0.000000   0.000000  -0.000000   0.000056  -0.000000
    20  O   -0.000000   0.000000   0.000000   0.000000  -0.000000   0.000000
    21  H   -0.029577   0.000173   0.360093  -0.044342   0.004917  -0.000404
    22  H    0.000969   0.000001  -0.001380  -0.046461   0.363431  -0.032154
    23  H   -0.003027   0.000233   0.004259  -0.004821  -0.042259   0.386581
    24  H    0.003665  -0.000075  -0.000323   0.004487  -0.027820   0.377915
    25  H   -0.030838   0.000469   0.003909  -0.003945  -0.002934  -0.041177
    26  H   -0.025750   0.003723   0.006317  -0.000063   0.004170  -0.029806
    27  H    0.000223  -0.000001  -0.002803  -0.039708   0.004706  -0.000153
    28  H   -0.000062   0.000002  -0.006407  -0.045129  -0.001533   0.000197
    29  H   -0.000001  -0.000000  -0.000020  -0.003079   0.000082   0.000013
    30  H    0.000002  -0.000000  -0.000079   0.004283  -0.000059   0.000012
    31  H    0.000003  -0.000000  -0.000144  -0.003181  -0.002492   0.000139
    32  H    0.000070  -0.000001   0.000444  -0.002654  -0.043198  -0.003801
    33  H    0.000000   0.000000  -0.000003  -0.000083   0.000193   0.000000
    34  H   -0.000000   0.000000  -0.000000   0.000002   0.000085  -0.000029
    35  H    0.000000  -0.000000  -0.000000   0.000002  -0.000116   0.000002
    36  H    0.000000  -0.000000  -0.000004   0.000159  -0.002504  -0.001692
    37  H   -0.000014  -0.000000   0.000019  -0.000117  -0.008213   0.004671
    38  H    0.000000  -0.000000   0.000000  -0.000001   0.000000  -0.000000
    39  H    0.000000   0.000000  -0.000000  -0.000001   0.000001   0.000000
    40  H    0.000000  -0.000000   0.000000   0.000000  -0.000000   0.000000
    41  H    0.000000  -0.000000   0.000000  -0.000000  -0.000000   0.000000
    42  H    0.000000  -0.000000   0.000000   0.000000  -0.000000   0.000000
    43  H    0.000000  -0.000000  -0.000000   0.000001   0.000038   0.000003
    44  H   -0.000000   0.000000   0.000000   0.000000  -0.000001  -0.000000
    45  H    0.000000  -0.000000  -0.000000   0.000000  -0.000004   0.000000
    46  H   -0.000000  -0.000000   0.000000   0.000000  -0.000000   0.000000
               7          8          9         10         11         12
     1  C    0.344091   0.004028  -0.000145  -0.000023  -0.000214  -0.000000
     2  O   -0.076184  -0.000095   0.000000   0.000000   0.000002   0.000000
     3  C   -0.141260  -0.035704   0.001955   0.000554   0.001458   0.000002
     4  C    0.003252   0.362268  -0.035120  -0.015147  -0.034551   0.000148
     5  C   -0.036016  -0.073201  -0.011517  -0.038729   0.365340   0.004073
     6  C    0.294083   0.006129  -0.000271   0.004142  -0.047350  -0.000140
     7  C    5.347863  -0.000371   0.000047  -0.000097   0.004715   0.000002
     8  C   -0.000371   5.158945   0.334436  -0.043817  -0.015879   0.004083
     9  C    0.000047   0.334436   5.099767   0.371071  -0.044767  -0.045086
    10  C   -0.000097  -0.043817   0.371071   5.019962   0.372545   0.364742
    11  C    0.004715  -0.015879  -0.044767   0.372545   5.047156  -0.039302
    12  C    0.000002   0.004083  -0.045086   0.364742  -0.039302   5.107316
    13  C    0.000000  -0.000137   0.004419  -0.026501  -0.013390   0.351674
    14  C   -0.000003  -0.000012  -0.000040  -0.012076  -0.039896  -0.050329
    15  C    0.000347   0.000345   0.004504  -0.041071   0.371444  -0.018429
    16  C   -0.000000   0.000080  -0.003597  -0.033305   0.004340   0.360659
    17  C    0.000000  -0.000001   0.000076   0.004273  -0.000176  -0.061918
    18  C   -0.000000   0.000002  -0.000114   0.004081   0.000126  -0.063410
    19  C    0.000000   0.000000   0.000167  -0.006421  -0.002160  -0.057681
    20  O    0.000000  -0.000000   0.000000  -0.000070  -0.000003   0.003841
    21  H    0.006636  -0.008023   0.000192  -0.000001  -0.000093  -0.000000
    22  H   -0.004776  -0.000701  -0.000885  -0.006104  -0.040680   0.000090
    23  H   -0.043475  -0.000070  -0.000031   0.000178  -0.002428  -0.000001
    24  H   -0.032200  -0.000126  -0.000007  -0.000095  -0.007384  -0.000002
    25  H    0.367571  -0.000138  -0.000002   0.000002   0.000119   0.000000
    26  H    0.367354   0.000008   0.000000   0.000001  -0.000068  -0.000000
    27  H    0.000015   0.379654  -0.031055   0.004093  -0.000122  -0.000109
    28  H   -0.000114   0.379592  -0.041565  -0.003906  -0.000979  -0.000022
    29  H   -0.000004  -0.037552   0.381344  -0.039335  -0.007071  -0.005128
    30  H   -0.000000  -0.031828   0.379263  -0.032025   0.005026  -0.006628
    31  H   -0.000010   0.000128  -0.045445   0.379360  -0.048458  -0.039782
    32  H   -0.000197  -0.000366  -0.005211  -0.045340   0.377405  -0.003964
    33  H   -0.000000   0.000093  -0.006606  -0.045489  -0.006539   0.383183
    34  H   -0.000000  -0.000000  -0.000036  -0.000542  -0.005027  -0.006775
    35  H   -0.000000  -0.000000   0.000011  -0.000147   0.004369   0.006789
    36  H   -0.000059  -0.000021   0.000021  -0.004363  -0.042968  -0.000520
    37  H    0.000118  -0.000010  -0.000134   0.004374  -0.031596   0.000116
    38  H   -0.000000  -0.000011   0.001598  -0.001627  -0.000078  -0.027467
    39  H   -0.000000  -0.000023  -0.000649  -0.004123   0.000078  -0.038530
    40  H   -0.000000  -0.000000  -0.000005  -0.000066   0.000004   0.001473
    41  H   -0.000000  -0.000000   0.000002  -0.000136   0.000002   0.003567
    42  H   -0.000000  -0.000000   0.000007  -0.000267  -0.000010  -0.002494
    43  H    0.000000   0.000011  -0.000060   0.002062  -0.000304  -0.006138
    44  H    0.000000  -0.000000  -0.000016   0.000005   0.000006  -0.003389
    45  H   -0.000000  -0.000000   0.000001  -0.000033   0.000114   0.005683
    46  H    0.000000   0.000000   0.000000  -0.000004   0.000001   0.000375
              13         14         15         16         17         18
     1  C   -0.000000   0.000000  -0.000003  -0.000000   0.000000   0.000000
     2  O    0.000000   0.000000  -0.000000  -0.000000  -0.000000   0.000000
     3  C    0.000000   0.000001  -0.000085   0.000000  -0.000000  -0.000000
     4  C    0.000001  -0.000105   0.004558  -0.000003   0.000000   0.000000
     5  C    0.000066   0.004190  -0.045826  -0.000109   0.000002   0.000005
     6  C   -0.000001   0.000148  -0.004981   0.000001  -0.000000  -0.000000
     7  C    0.000000  -0.000003   0.000347  -0.000000   0.000000  -0.000000
     8  C   -0.000137  -0.000012   0.000345   0.000080  -0.000001   0.000002
     9  C    0.004419  -0.000040   0.004504  -0.003597   0.000076  -0.000114
    10  C   -0.026501  -0.012076  -0.041071  -0.033305   0.004273   0.004081
    11  C   -0.013390  -0.039896   0.371444   0.004340  -0.000176   0.000126
    12  C    0.351674  -0.050329  -0.018429   0.360659  -0.061918  -0.063410
    13  C    5.120240   0.377196  -0.038178  -0.062829  -0.064112   0.372738
    14  C    0.377196   5.120121   0.355958   0.006355   0.006923  -0.044920
    15  C   -0.038178   0.355958   5.091885   0.000166  -0.000255   0.004577
    16  C   -0.062829   0.006355   0.000166   5.107283   0.343580  -0.063156
    17  C   -0.064112   0.006923  -0.000255   0.343580   5.173881   0.357026
    18  C    0.372738  -0.044920   0.004577  -0.063156   0.357026   4.807587
    19  C    0.339524  -0.069155  -0.004713  -0.002615  -0.011645  -0.055461
    20  O   -0.051311  -0.000572   0.000020   0.002271  -0.046556   0.249928
    21  H   -0.000000  -0.000000   0.000002   0.000000  -0.000000  -0.000000
    22  H   -0.000031   0.000033  -0.005529  -0.000001   0.000000  -0.000000
    23  H   -0.000002  -0.000062  -0.002565   0.000000   0.000000  -0.000000
    24  H   -0.000003   0.000049   0.002922  -0.000000   0.000000   0.000000
    25  H   -0.000000  -0.000000  -0.000031   0.000000   0.000000  -0.000000
    26  H   -0.000000  -0.000000  -0.000002   0.000000  -0.000000  -0.000000
    27  H    0.000001  -0.000000   0.000010  -0.000001  -0.000000  -0.000000
    28  H    0.000004   0.000001  -0.000020  -0.000009  -0.000000  -0.000000
    29  H    0.000083  -0.000012   0.000041  -0.000616  -0.000025  -0.000007
    30  H   -0.000022  -0.000004  -0.000135   0.003573  -0.000001  -0.000006
    31  H   -0.007337   0.000275  -0.003279  -0.003741  -0.000005   0.000025
    32  H   -0.001456  -0.001595  -0.045929  -0.000025   0.000003  -0.000072
    33  H   -0.053905  -0.006811  -0.000957  -0.044541  -0.002297  -0.002136
    34  H   -0.038429   0.378754  -0.038587   0.000045   0.000078  -0.005581
    35  H   -0.036777   0.369688  -0.033120  -0.000244  -0.000002  -0.003804
    36  H   -0.009196  -0.035010   0.381452  -0.000020  -0.000001  -0.000008
    37  H    0.004957  -0.034956   0.381292   0.000009   0.000003  -0.000087
    38  H    0.005796  -0.000155  -0.000004   0.379293  -0.029544   0.002764
    39  H   -0.006128   0.000017  -0.000020   0.386038  -0.032940   0.001890
    40  H    0.003845  -0.000150   0.000004  -0.032012   0.378910  -0.026930
    41  H   -0.002704  -0.000131   0.000004  -0.026373   0.371952  -0.031933
    42  H   -0.068683  -0.009543   0.000123   0.003646  -0.050143   0.389588
    43  H   -0.034208  -0.003877   0.000979  -0.000269  -0.000293   0.005257
    44  H   -0.031933   0.004792   0.000137   0.001535   0.003714  -0.006855
    45  H   -0.030599  -0.005987  -0.000747  -0.000171   0.000023  -0.005271
    46  H   -0.005313   0.002357  -0.000094  -0.000346   0.007349  -0.029598
              19         20         21         22         23         24
     1  C   -0.000000  -0.000000  -0.029577   0.000969  -0.003027   0.003665
     2  O    0.000000   0.000000   0.000173   0.000001   0.000233  -0.000075
     3  C    0.000000   0.000000   0.360093  -0.001380   0.004259  -0.000323
     4  C   -0.000000   0.000000  -0.044342  -0.046461  -0.004821   0.004487
     5  C    0.000056  -0.000000   0.004917   0.363431  -0.042259  -0.027820
     6  C   -0.000000   0.000000  -0.000404  -0.032154   0.386581   0.377915
     7  C    0.000000   0.000000   0.006636  -0.004776  -0.043475  -0.032200
     8  C    0.000000  -0.000000  -0.008023  -0.000701  -0.000070  -0.000126
     9  C    0.000167   0.000000   0.000192  -0.000885  -0.000031  -0.000007
    10  C   -0.006421  -0.000070  -0.000001  -0.006104   0.000178  -0.000095
    11  C   -0.002160  -0.000003  -0.000093  -0.040680  -0.002428  -0.007384
    12  C   -0.057681   0.003841  -0.000000   0.000090  -0.000001  -0.000002
    13  C    0.339524  -0.051311  -0.000000  -0.000031  -0.000002  -0.000003
    14  C   -0.069155  -0.000572  -0.000000   0.000033  -0.000062   0.000049
    15  C   -0.004713   0.000020   0.000002  -0.005529  -0.002565   0.002922
    16  C   -0.002615   0.002271   0.000000  -0.000001   0.000000  -0.000000
    17  C   -0.011645  -0.046556  -0.000000   0.000000   0.000000   0.000000
    18  C   -0.055461   0.249928  -0.000000  -0.000000  -0.000000   0.000000
    19  C    5.211364   0.005243   0.000000  -0.000044  -0.000000  -0.000001
    20  O    0.005243   8.276795   0.000000  -0.000000  -0.000000   0.000000
    21  H    0.000000   0.000000   0.532427  -0.000205  -0.000084   0.000013
    22  H   -0.000044  -0.000000  -0.000205   0.592147   0.005064  -0.003609
    23  H   -0.000000  -0.000000  -0.000084   0.005064   0.552341  -0.029563
    24  H   -0.000001   0.000000   0.000013  -0.003609  -0.029563   0.547873
    25  H   -0.000000  -0.000000  -0.000164   0.004830   0.005281  -0.004227
    26  H    0.000000  -0.000000  -0.000104  -0.000184  -0.002318  -0.003294
    27  H    0.000000   0.000000   0.005498  -0.000106   0.000002   0.000002
    28  H   -0.000002   0.000000   0.000169   0.003338   0.000001   0.000013
    29  H   -0.000004   0.000000  -0.000001   0.000109  -0.000005   0.000001
    30  H   -0.000001  -0.000000  -0.000009  -0.000030   0.000000   0.000000
    31  H    0.001611  -0.000001  -0.000001   0.005938   0.000007   0.000000
    32  H    0.000052   0.000000  -0.000037   0.005880   0.004696   0.000086
    33  H    0.006580   0.000055  -0.000000   0.000000  -0.000002  -0.000000
    34  H    0.006278  -0.000062  -0.000000   0.000002   0.000007   0.000008
    35  H   -0.006807   0.001426   0.000000   0.000001   0.000001   0.000004
    36  H    0.004144  -0.000003  -0.000000   0.004184   0.000199   0.001011
    37  H    0.000009   0.000001   0.000000   0.000011   0.001368   0.000020
    38  H    0.000075  -0.000038  -0.000000   0.000000   0.000000  -0.000000
    39  H    0.002913  -0.000004   0.000000  -0.000002  -0.000000  -0.000000
    40  H    0.000217   0.001829   0.000000  -0.000000  -0.000000   0.000000
    41  H    0.001110   0.002975   0.000000  -0.000000   0.000000   0.000000
    42  H    0.007952  -0.042669   0.000000  -0.000000   0.000000   0.000000
    43  H    0.374396   0.000462  -0.000000  -0.000009  -0.000000  -0.000001
    44  H    0.382440   0.000787  -0.000000   0.000001   0.000000   0.000000
    45  H    0.376022   0.004473   0.000000   0.000001   0.000000  -0.000000
    46  H   -0.001430   0.243945   0.000000   0.000000   0.000000   0.000000
              25         26         27         28         29         30
     1  C   -0.030838  -0.025750   0.000223  -0.000062  -0.000001   0.000002
     2  O    0.000469   0.003723  -0.000001   0.000002  -0.000000  -0.000000
     3  C    0.003909   0.006317  -0.002803  -0.006407  -0.000020  -0.000079
     4  C   -0.003945  -0.000063  -0.039708  -0.045129  -0.003079   0.004283
     5  C   -0.002934   0.004170   0.004706  -0.001533   0.000082  -0.000059
     6  C   -0.041177  -0.029806  -0.000153   0.000197   0.000013   0.000012
     7  C    0.367571   0.367354   0.000015  -0.000114  -0.000004  -0.000000
     8  C   -0.000138   0.000008   0.379654   0.379592  -0.037552  -0.031828
     9  C   -0.000002   0.000000  -0.031055  -0.041565   0.381344   0.379263
    10  C    0.000002   0.000001   0.004093  -0.003906  -0.039335  -0.032025
    11  C    0.000119  -0.000068  -0.000122  -0.000979  -0.007071   0.005026
    12  C    0.000000  -0.000000  -0.000109  -0.000022  -0.005128  -0.006628
    13  C   -0.000000  -0.000000   0.000001   0.000004   0.000083  -0.000022
    14  C   -0.000000  -0.000000  -0.000000   0.000001  -0.000012  -0.000004
    15  C   -0.000031  -0.000002   0.000010  -0.000020   0.000041  -0.000135
    16  C    0.000000   0.000000  -0.000001  -0.000009  -0.000616   0.003573
    17  C    0.000000  -0.000000  -0.000000  -0.000000  -0.000025  -0.000001
    18  C   -0.000000  -0.000000  -0.000000  -0.000000  -0.000007  -0.000006
    19  C   -0.000000   0.000000   0.000000  -0.000002  -0.000004  -0.000001
    20  O   -0.000000  -0.000000   0.000000   0.000000   0.000000  -0.000000
    21  H   -0.000164  -0.000104   0.005498   0.000169  -0.000001  -0.000009
    22  H    0.004830  -0.000184  -0.000106   0.003338   0.000109  -0.000030
    23  H    0.005281  -0.002318   0.000002   0.000001  -0.000005   0.000000
    24  H   -0.004227  -0.003294   0.000002   0.000013   0.000001   0.000000
    25  H    0.545470  -0.022531   0.000001   0.000021  -0.000000  -0.000000
    26  H   -0.022531   0.511133  -0.000000  -0.000002  -0.000000   0.000000
    27  H    0.000001  -0.000000   0.529002  -0.024612  -0.003533  -0.001745
    28  H    0.000021  -0.000002  -0.024612   0.559600   0.005151  -0.005355
    29  H   -0.000000  -0.000000  -0.003533   0.005151   0.564097  -0.029910
    30  H   -0.000000   0.000000  -0.001745  -0.005355  -0.029910   0.550236
    31  H   -0.000001  -0.000000  -0.000030   0.004112   0.005503  -0.003591
    32  H    0.000011  -0.000002  -0.000067   0.000172   0.005120   0.000049
    33  H   -0.000000   0.000000   0.000001   0.000002   0.005320  -0.000022
    34  H    0.000000   0.000000  -0.000000  -0.000000  -0.000015   0.000001
    35  H    0.000000   0.000000   0.000000  -0.000000   0.000000  -0.000000
    36  H    0.000005   0.000000  -0.000000  -0.000002  -0.000001   0.000003
    37  H    0.000006   0.000002  -0.000000   0.000000  -0.000001   0.000002
    38  H    0.000000  -0.000000   0.000001   0.000003   0.000361   0.000422
    39  H   -0.000000   0.000000   0.000001  -0.000001   0.000073   0.000574
    40  H    0.000000   0.000000   0.000000  -0.000000  -0.000000   0.000003
    41  H   -0.000000   0.000000   0.000000   0.000000   0.000000   0.000001
    42  H   -0.000000   0.000000   0.000000  -0.000000  -0.000003  -0.000000
    43  H    0.000000   0.000000  -0.000000  -0.000004  -0.000001   0.000002
    44  H    0.000000   0.000000  -0.000000   0.000000   0.000000  -0.000000
    45  H    0.000000  -0.000000   0.000000   0.000000   0.000000  -0.000000
    46  H   -0.000000   0.000000   0.000000   0.000000   0.000000  -0.000000
              31         32         33         34         35         36
     1  C    0.000003   0.000070   0.000000  -0.000000   0.000000   0.000000
     2  O   -0.000000  -0.000001   0.000000   0.000000  -0.000000  -0.000000
     3  C   -0.000144   0.000444  -0.000003  -0.000000  -0.000000  -0.000004
     4  C   -0.003181  -0.002654  -0.000083   0.000002   0.000002   0.000159
     5  C   -0.002492  -0.043198   0.000193   0.000085  -0.000116  -0.002504
     6  C    0.000139  -0.003801   0.000000  -0.000029   0.000002  -0.001692
     7  C   -0.000010  -0.000197  -0.000000  -0.000000  -0.000000  -0.000059
     8  C    0.000128  -0.000366   0.000093  -0.000000  -0.000000  -0.000021
     9  C   -0.045445  -0.005211  -0.006606  -0.000036   0.000011   0.000021
    10  C    0.379360  -0.045340  -0.045489  -0.000542  -0.000147  -0.004363
    11  C   -0.048458   0.377405  -0.006539  -0.005027   0.004369  -0.042968
    12  C   -0.039782  -0.003964   0.383183  -0.006775   0.006789  -0.000520
    13  C   -0.007337  -0.001456  -0.053905  -0.038429  -0.036777  -0.009196
    14  C    0.000275  -0.001595  -0.006811   0.378754   0.369688  -0.035010
    15  C   -0.003279  -0.045929  -0.000957  -0.038587  -0.033120   0.381452
    16  C   -0.003741  -0.000025  -0.044541   0.000045  -0.000244  -0.000020
    17  C   -0.000005   0.000003  -0.002297   0.000078  -0.000002  -0.000001
    18  C    0.000025  -0.000072  -0.002136  -0.005581  -0.003804  -0.000008
    19  C    0.001611   0.000052   0.006580   0.006278  -0.006807   0.004144
    20  O   -0.000001   0.000000   0.000055  -0.000062   0.001426  -0.000003
    21  H   -0.000001  -0.000037  -0.000000  -0.000000   0.000000  -0.000000
    22  H    0.005938   0.005880   0.000000   0.000002   0.000001   0.004184
    23  H    0.000007   0.004696  -0.000002   0.000007   0.000001   0.000199
    24  H    0.000000   0.000086  -0.000000   0.000008   0.000004   0.001011
    25  H   -0.000001   0.000011  -0.000000   0.000000   0.000000   0.000005
    26  H   -0.000000  -0.000002   0.000000   0.000000   0.000000   0.000000
    27  H   -0.000030  -0.000067   0.000001  -0.000000   0.000000  -0.000000
    28  H    0.004112   0.000172   0.000002  -0.000000  -0.000000  -0.000002
    29  H    0.005503   0.005120   0.005320  -0.000015   0.000000  -0.000001
    30  H   -0.003591   0.000049  -0.000022   0.000001  -0.000000   0.000003
    31  H    0.601358   0.005770   0.005879   0.000044  -0.000006   0.002110
    32  H    0.005770   0.600139   0.004839   0.004239  -0.000028   0.005548
    33  H    0.005879   0.004839   0.619051   0.005324   0.000031   0.000079
    34  H    0.000044   0.004239   0.005324   0.576049  -0.031932   0.005003
    35  H   -0.000006  -0.000028   0.000031  -0.031932   0.589345  -0.003129
    36  H    0.002110   0.005548   0.000079   0.005003  -0.003129   0.570361
    37  H   -0.000059  -0.004263  -0.000067  -0.003776  -0.002803  -0.030862
    38  H   -0.000129  -0.000001  -0.006418  -0.000003   0.000003   0.000000
    39  H    0.003793   0.000003   0.005298  -0.000007   0.000004  -0.000008
    40  H    0.000001  -0.000000   0.000613  -0.000015   0.000001   0.000000
    41  H   -0.000008  -0.000000  -0.000034   0.000000  -0.000000  -0.000000
    42  H   -0.000010  -0.000011   0.005029   0.006033   0.000058  -0.000003
    43  H    0.003829  -0.000025   0.000026  -0.000124  -0.000128   0.000916
    44  H    0.000046   0.000002  -0.000079  -0.000138  -0.000020  -0.000013
    45  H   -0.000048   0.000002  -0.000118   0.000084   0.005425   0.000575
    46  H    0.000000   0.000000  -0.000006  -0.000037   0.003045  -0.000000
              37         38         39         40         41         42
     1  C   -0.000014   0.000000   0.000000   0.000000   0.000000   0.000000
     2  O   -0.000000  -0.000000   0.000000  -0.000000  -0.000000  -0.000000
     3  C    0.000019   0.000000  -0.000000   0.000000   0.000000   0.000000
     4  C   -0.000117  -0.000001  -0.000001   0.000000  -0.000000   0.000000
     5  C   -0.008213   0.000000   0.000001  -0.000000  -0.000000  -0.000000
     6  C    0.004671  -0.000000   0.000000   0.000000   0.000000   0.000000
     7  C    0.000118  -0.000000  -0.000000  -0.000000  -0.000000  -0.000000
     8  C   -0.000010  -0.000011  -0.000023  -0.000000  -0.000000  -0.000000
     9  C   -0.000134   0.001598  -0.000649  -0.000005   0.000002   0.000007
    10  C    0.004374  -0.001627  -0.004123  -0.000066  -0.000136  -0.000267
    11  C   -0.031596  -0.000078   0.000078   0.000004   0.000002  -0.000010
    12  C    0.000116  -0.027467  -0.038530   0.001473   0.003567  -0.002494
    13  C    0.004957   0.005796  -0.006128   0.003845  -0.002704  -0.068683
    14  C   -0.034956  -0.000155   0.000017  -0.000150  -0.000131  -0.009543
    15  C    0.381292  -0.000004  -0.000020   0.000004   0.000004   0.000123
    16  C    0.000009   0.379293   0.386038  -0.032012  -0.026373   0.003646
    17  C    0.000003  -0.029544  -0.032940   0.378910   0.371952  -0.050143
    18  C   -0.000087   0.002764   0.001890  -0.026930  -0.031933   0.389588
    19  C    0.000009   0.000075   0.002913   0.000217   0.001110   0.007952
    20  O    0.000001  -0.000038  -0.000004   0.001829   0.002975  -0.042669
    21  H    0.000000  -0.000000   0.000000   0.000000   0.000000   0.000000
    22  H    0.000011   0.000000  -0.000002  -0.000000  -0.000000  -0.000000
    23  H    0.001368   0.000000  -0.000000  -0.000000   0.000000   0.000000
    24  H    0.000020  -0.000000  -0.000000   0.000000   0.000000   0.000000
    25  H    0.000006   0.000000  -0.000000   0.000000  -0.000000  -0.000000
    26  H    0.000002  -0.000000   0.000000   0.000000   0.000000   0.000000
    27  H   -0.000000   0.000001   0.000001   0.000000   0.000000   0.000000
    28  H    0.000000   0.000003  -0.000001  -0.000000   0.000000  -0.000000
    29  H   -0.000001   0.000361   0.000073  -0.000000   0.000000  -0.000003
    30  H    0.000002   0.000422   0.000574   0.000003   0.000001  -0.000000
    31  H   -0.000059  -0.000129   0.003793   0.000001  -0.000008  -0.000010
    32  H   -0.004263  -0.000001   0.000003  -0.000000  -0.000000  -0.000011
    33  H   -0.000067  -0.006418   0.005298   0.000613  -0.000034   0.005029
    34  H   -0.003776  -0.000003  -0.000007  -0.000015   0.000000   0.006033
    35  H   -0.002803   0.000003   0.000004   0.000001  -0.000000   0.000058
    36  H   -0.030862   0.000000  -0.000008   0.000000  -0.000000  -0.000003
    37  H    0.553518  -0.000000  -0.000000  -0.000000  -0.000000  -0.000004
    38  H   -0.000000   0.550735  -0.032829  -0.006933   0.002424  -0.000132
    39  H   -0.000000  -0.032829   0.560923   0.003687  -0.008834  -0.000182
    40  H   -0.000000  -0.006933   0.003687   0.539977  -0.026740  -0.006806
    41  H   -0.000000   0.002424  -0.008834  -0.026740   0.526799   0.004987
    42  H   -0.000004  -0.000132  -0.000182  -0.006806   0.004987   0.638975
    43  H    0.000043  -0.000025   0.000244   0.000000   0.000040  -0.000074
    44  H   -0.000001   0.000037   0.000136  -0.000048   0.001245   0.000188
    45  H   -0.000050  -0.000001   0.000019  -0.000003   0.000043   0.000023
    46  H    0.000003   0.000005   0.000004  -0.000219  -0.000073  -0.002102
              43         44         45         46
     1  C    0.000000  -0.000000   0.000000  -0.000000
     2  O   -0.000000   0.000000  -0.000000  -0.000000
     3  C   -0.000000   0.000000  -0.000000   0.000000
     4  C    0.000001   0.000000   0.000000   0.000000
     5  C    0.000038  -0.000001  -0.000004  -0.000000
     6  C    0.000003  -0.000000   0.000000   0.000000
     7  C    0.000000   0.000000  -0.000000   0.000000
     8  C    0.000011  -0.000000  -0.000000   0.000000
     9  C   -0.000060  -0.000016   0.000001   0.000000
    10  C    0.002062   0.000005  -0.000033  -0.000004
    11  C   -0.000304   0.000006   0.000114   0.000001
    12  C   -0.006138  -0.003389   0.005683   0.000375
    13  C   -0.034208  -0.031933  -0.030599  -0.005313
    14  C   -0.003877   0.004792  -0.005987   0.002357
    15  C    0.000979   0.000137  -0.000747  -0.000094
    16  C   -0.000269   0.001535  -0.000171  -0.000346
    17  C   -0.000293   0.003714   0.000023   0.007349
    18  C    0.005257  -0.006855  -0.005271  -0.029598
    19  C    0.374396   0.382440   0.376022  -0.001430
    20  O    0.000462   0.000787   0.004473   0.243945
    21  H   -0.000000  -0.000000   0.000000   0.000000
    22  H   -0.000009   0.000001   0.000001   0.000000
    23  H   -0.000000   0.000000   0.000000   0.000000
    24  H   -0.000001   0.000000  -0.000000   0.000000
    25  H    0.000000   0.000000   0.000000  -0.000000
    26  H    0.000000   0.000000  -0.000000   0.000000
    27  H   -0.000000  -0.000000   0.000000   0.000000
    28  H   -0.000004   0.000000   0.000000   0.000000
    29  H   -0.000001   0.000000   0.000000   0.000000
    30  H    0.000002  -0.000000  -0.000000  -0.000000
    31  H    0.003829   0.000046  -0.000048   0.000000
    32  H   -0.000025   0.000002   0.000002   0.000000
    33  H    0.000026  -0.000079  -0.000118  -0.000006
    34  H   -0.000124  -0.000138   0.000084  -0.000037
    35  H   -0.000128  -0.000020   0.005425   0.003045
    36  H    0.000916  -0.000013   0.000575  -0.000000
    37  H    0.000043  -0.000001  -0.000050   0.000003
    38  H   -0.000025   0.000037  -0.000001   0.000005
    39  H    0.000244   0.000136   0.000019   0.000004
    40  H    0.000000  -0.000048  -0.000003  -0.000219
    41  H    0.000040   0.001245   0.000043  -0.000073
    42  H   -0.000074   0.000188   0.000023  -0.002102
    43  H    0.553919  -0.027567  -0.028490  -0.000099
    44  H   -0.027567   0.520760  -0.024648   0.000089
    45  H   -0.028490  -0.024648   0.544570   0.001472
    46  H   -0.000099   0.000089   0.001472   0.374059
 Mulliken charges:
               1
     1  C    0.455617
     2  O   -0.514015
     3  C   -0.274762
     4  C    0.169087
     5  C   -0.176457
     6  C   -0.338818
     7  C   -0.401327
     8  C   -0.381717
     9  C   -0.306518
    10  C   -0.130585
    11  C   -0.122753
    12  C   -0.120567
    13  C    0.002642
    14  C   -0.311456
    15  C   -0.316206
    16  C   -0.324891
    17  C   -0.347878
    18  C    0.143760
    19  C   -0.502011
    20  O   -0.652762
    21  H    0.172924
    22  H    0.156862
    23  H    0.170495
    24  H    0.170661
    25  H    0.178293
    26  H    0.191414
    27  H    0.180834
    28  H    0.177344
    29  H    0.159024
    30  H    0.168000
    31  H    0.137830
    32  H    0.143709
    33  H    0.134516
    34  H    0.149076
    35  H    0.138856
    36  H    0.154614
    37  H    0.166470
    38  H    0.161879
    39  H    0.158586
    40  H    0.169367
    41  H    0.181817
    42  H    0.126529
    43  H    0.159470
    44  H    0.178789
    45  H    0.157640
    46  H    0.406620
 Sum of Mulliken charges =  -0.00000
 Mulliken charges with hydrogens summed into heavy atoms:
               1
     1  C    0.455617
     2  O   -0.514015
     3  C   -0.101838
     4  C    0.169087
     5  C   -0.019595
     6  C    0.002338
     7  C   -0.031619
     8  C   -0.023539
     9  C    0.020505
    10  C    0.007246
    11  C    0.020956
    12  C    0.013949
    13  C    0.002642
    14  C   -0.023525
    15  C    0.004878
    16  C   -0.004426
    17  C    0.003305
    18  C    0.270288
    19  C   -0.006112
    20  O   -0.246142
 Electronic spatial extent (au):  <R**2>=           6806.1413
 Charge=             -0.0000 electrons
 Dipole moment (field-independent basis, Debye):
    X=             -3.4313    Y=             -0.1694    Z=              1.1993  Tot=              3.6388
 Quadrupole moment (field-independent basis, Debye-Ang):
   XX=           -171.2342   YY=           -112.1312   ZZ=           -119.5249
   XY=              1.6446   XZ=              8.7866   YZ=              0.2590
 Traceless Quadrupole moment (field-independent basis, Debye-Ang):
   XX=            -36.9375   YY=             22.1656   ZZ=             14.7719
   XY=              1.6446   XZ=              8.7866   YZ=              0.2590
 Octapole moment (field-independent basis, Debye-Ang**2):
  XXX=           -174.9562  YYY=            -14.0573  ZZZ=             -2.3407  XYY=             -7.5682
  XXY=              1.3742  XXZ=             41.8825  XZZ=             -6.0241  YZZ=             -0.8712
  YYZ=             -3.9257  XYZ=             -4.4271
 Hexadecapole moment (field-independent basis, Debye-Ang**3):
 XXXX=          -9301.9101 YYYY=          -1367.1801 ZZZZ=           -428.6291 XXXY=             20.4350
 XXXZ=            249.2777 YYYX=             82.6222 YYYZ=             -0.0183 ZZZX=              8.3379
 ZZZY=              5.3388 XXYY=          -1275.7077 XXZZ=          -1254.8315 YYZZ=           -307.6948
 XXYZ=             -5.9127 YYXZ=              2.6393 ZZXY=             -2.2378
 N-N= 1.673263581495D+03 E-N=-5.323659824529D+03  KE= 8.443509645656D+02

 **********************************************************************

            Electrostatic Properties Using The SCF Density.

 **********************************************************************

       Atomic Center    1 is at   4.637559 -0.165324 -0.238644
       Atomic Center    2 is at   5.805335 -0.161733 -0.683276
       Atomic Center    3 is at   3.786013  0.967603 -0.271232
       Atomic Center    4 is at   2.489623  0.915836  0.135350
       Atomic Center    5 is at   1.794578 -0.365587  0.440365
       Atomic Center    6 is at   2.630858 -1.578992  0.028736
       Atomic Center    7 is at   4.081707 -1.382158  0.443909
       Atomic Center    8 is at   1.724022  2.146412  0.407608
       Atomic Center    9 is at   0.278466  2.121055 -0.080740
       Atomic Center   10 is at  -0.420547  0.823734  0.316921
       Atomic Center   11 is at   0.396728 -0.367113 -0.213652
       Atomic Center   12 is at  -1.822292  0.758560 -0.280020
       Atomic Center   13 is at  -2.543619 -0.565069  0.009563
       Atomic Center   14 is at  -1.725556 -1.696629 -0.599905
       Atomic Center   15 is at  -0.320666 -1.703841  0.001564
       Atomic Center   16 is at  -2.860242  1.808953  0.117076
       Atomic Center   17 is at  -4.196753  1.178836 -0.323512
       Atomic Center   18 is at  -3.893187 -0.290632 -0.685941
       Atomic Center   19 is at  -2.796571 -0.824139  1.497203
       Atomic Center   20 is at  -4.958341 -1.123113 -0.297134
       Atomic Center   21 is at   4.218993  1.908673 -0.582367
       Atomic Center   22 is at   1.662157 -0.363397  1.537778
       Atomic Center   23 is at   2.580130 -1.711044 -1.057361
       Atomic Center   24 is at   2.249391 -2.483017  0.503244
       Atomic Center   25 is at   4.119217 -1.201847  1.523418
       Atomic Center   26 is at   4.689152 -2.261852  0.225047
       Atomic Center   27 is at   2.242868  3.024932  0.026707
       Atomic Center   28 is at   1.725595  2.213505  1.508976
       Atomic Center   29 is at   0.268637  2.218656 -1.170989
       Atomic Center   30 is at  -0.256200  2.975456  0.335201
       Atomic Center   31 is at  -0.461062  0.774359  1.407135
       Atomic Center   32 is at   0.527748 -0.231697 -1.296874
       Atomic Center   33 is at  -1.703234  0.817568 -1.371063
       Atomic Center   34 is at  -1.645283 -1.543366 -1.680836
       Atomic Center   35 is at  -2.210222 -2.660573 -0.437402
       Atomic Center   36 is at  -0.370359 -1.916093  1.069695
       Atomic Center   37 is at   0.248084 -2.505219 -0.472745
       Atomic Center   38 is at  -2.689398  2.763554 -0.375729
       Atomic Center   39 is at  -2.834437  1.984328  1.191647
       Atomic Center   40 is at  -4.620370  1.706421 -1.177705
       Atomic Center   41 is at  -4.940205  1.193693  0.471933
       Atomic Center   42 is at  -3.747328 -0.386449 -1.777441
       Atomic Center   43 is at  -1.896825 -0.685316  2.086844
       Atomic Center   44 is at  -3.561946 -0.156885  1.879719
       Atomic Center   45 is at  -3.146064 -1.846373  1.634255
       Atomic Center   46 is at  -4.665719 -2.038282 -0.385708
 -----------------------------------------------------------------

              Electrostatic Properties (Atomic Units)

 -----------------------------------------------------------------
    Center     Electric         -------- Electric Field --------
               Potential          X             Y             Z
 -----------------------------------------------------------------
    1 Atom    -14.675389      0.004554     -0.004001     -0.001188
    2 Atom    -22.353719      0.097198     -0.000191     -0.037072
    3 Atom    -14.749227     -0.009671      0.001256      0.002706
    4 Atom    -14.712068      0.012520     -0.000140     -0.004299
    5 Atom    -14.719931     -0.001752     -0.003864     -0.002306
    6 Atom    -14.731915     -0.000066     -0.000714      0.000709
    7 Atom    -14.743331      0.001885     -0.001520     -0.002612
    8 Atom    -14.727377     -0.001817      0.002576     -0.000875
    9 Atom    -14.732787     -0.002366     -0.002045      0.000102
   10 Atom    -14.730515     -0.000825      0.000239     -0.003824
   11 Atom    -14.725391     -0.002401      0.000205      0.001975
   12 Atom    -14.737904     -0.000836     -0.001653      0.003942
   13 Atom    -14.735432     -0.001368      0.001647     -0.003325
   14 Atom    -14.738161     -0.001260      0.004336      0.001705
   15 Atom    -14.736409      0.000012      0.000272     -0.001182
   16 Atom    -14.741940      0.001454     -0.000310     -0.000563
   17 Atom    -14.746766     -0.002585     -0.001305      0.000469
   18 Atom    -14.693274      0.020176      0.013245     -0.004708
   19 Atom    -14.749927     -0.000644      0.001036     -0.001811
   20 Atom    -22.313130     -0.103218      0.039718      0.035516
   21 Atom     -1.106682      0.016843      0.031707     -0.009338
   22 Atom     -1.101039     -0.006180     -0.006371      0.030376
   23 Atom     -1.115473     -0.002663     -0.006272     -0.031279
   24 Atom     -1.116675     -0.013042     -0.027940      0.011302
   25 Atom     -1.107319      0.004014      0.001990      0.033499
   26 Atom     -1.120083      0.021632     -0.021348     -0.007591
   27 Atom     -1.109227      0.017009      0.027610     -0.009720
   28 Atom     -1.099386     -0.001421      0.009932      0.029485
   29 Atom     -1.116338     -0.002189      0.005024     -0.032070
   30 Atom     -1.116780     -0.017110      0.027016      0.010152
   31 Atom     -1.115456     -0.004139     -0.001859      0.035570
   32 Atom     -1.115675      0.004725      0.004050     -0.031921
   33 Atom     -1.122270      0.003528      0.001984     -0.032638
   34 Atom     -1.119031      0.000443      0.002146     -0.032923
   35 Atom     -1.117411     -0.012765     -0.032322      0.003765
   36 Atom     -1.117622     -0.000742     -0.010793      0.033342
   37 Atom     -1.120201      0.017752     -0.024525     -0.011066
   38 Atom     -1.125899      0.005496      0.030702     -0.013684
   39 Atom     -1.124691     -0.000026      0.006676      0.033769
   40 Atom     -1.128575     -0.015086      0.015327     -0.024012
   41 Atom     -1.127546     -0.024743     -0.000746      0.022588
   42 Atom     -1.132074      0.003644     -0.001623     -0.029521
   43 Atom     -1.118906      0.027081      0.002876      0.022363
   44 Atom     -1.122449     -0.026156      0.017933      0.015132
   45 Atom     -1.119538     -0.012231     -0.029507      0.008869
   46 Atom     -0.996576      0.008749     -0.044507     -0.004018
 -----------------------------------------------------------------
 -----------------------------------------------------
    Center         ---- Electric Field Gradient ----
                     XX            YY            ZZ
 -----------------------------------------------------
    1 Atom     -493.396492   -493.308939   -493.859923
    2 Atom    -1217.222808  -1214.828070  -1217.354820
    3 Atom     -493.152505   -493.188963   -493.403704
    4 Atom     -493.288811   -493.322963   -493.870464
    5 Atom     -492.786236   -492.817910   -492.821019
    6 Atom     -492.649089   -492.619332   -492.603639
    7 Atom     -492.730436   -492.732613   -492.742489
    8 Atom     -492.615536   -492.641455   -492.641078
    9 Atom     -492.695721   -492.639775   -492.646206
   10 Atom     -492.785333   -492.804554   -492.794801
   11 Atom     -492.867242   -492.821648   -492.837584
   12 Atom     -492.926503   -492.936905   -492.930748
   13 Atom     -492.964626   -492.968901   -493.006138
   14 Atom     -492.741559   -492.721176   -492.732078
   15 Atom     -492.660778   -492.653960   -492.633787
   16 Atom     -492.670095   -492.613561   -492.599788
   17 Atom     -492.657196   -492.689317   -492.621166
   18 Atom     -492.865638   -492.796814   -492.660467
   19 Atom     -492.563223   -492.581560   -492.616747
   20 Atom    -1214.426294  -1215.871625  -1212.786321
   21 Atom       -1.684863     -1.965146     -1.635205
   22 Atom       -1.622394     -1.619843     -2.014638
   23 Atom       -1.624636     -1.625423     -2.042751
   24 Atom       -1.689365     -1.937384     -1.713609
   25 Atom       -1.607200     -1.618874     -2.029092
   26 Atom       -1.744540     -1.896587     -1.626132
   27 Atom       -1.730482     -1.916199     -1.676009
   28 Atom       -1.604960     -1.610056     -2.016311
   29 Atom       -1.628101     -1.629230     -2.054829
   30 Atom       -1.738878     -1.903788     -1.693382
   31 Atom       -1.644013     -1.644042     -2.076790
   32 Atom       -1.642355     -1.642473     -2.037292
   33 Atom       -1.655986     -1.645952     -2.054622
   34 Atom       -1.632835     -1.637814     -2.051020
   35 Atom       -1.729996     -1.983748     -1.644279
   36 Atom       -1.633469     -1.648028     -2.058072
   37 Atom       -1.756641     -1.871773     -1.714074
   38 Atom       -1.646226     -1.983051     -1.727566
   39 Atom       -1.633038     -1.642347     -2.069522
   40 Atom       -1.696418     -1.737311     -1.906437
   41 Atom       -1.822310     -1.615280     -1.858285
   42 Atom       -1.680396     -1.675811     -2.058484
   43 Atom       -1.944113     -1.627050     -1.760173
   44 Atom       -1.836782     -1.788131     -1.675128
   45 Atom       -1.655231     -2.014589     -1.625632
   46 Atom       -1.523990     -2.064855     -1.427669
 -----------------------------------------------------
 -----------------------------------------------------
    Center         ---- Electric Field Gradient ----
                     XY            XZ            YZ
 -----------------------------------------------------
    1 Atom       -0.093529     -0.196787     -0.219704
    2 Atom       -0.319100     -0.044907     -0.900304
    3 Atom       -0.023270     -0.083745     -0.037229
    4 Atom       -0.009297     -0.178790     -0.029639
    5 Atom       -0.012471     -0.012696     -0.002794
    6 Atom        0.018983     -0.003555     -0.023100
    7 Atom       -0.014825     -0.037961      0.003698
    8 Atom        0.020033     -0.020291     -0.011037
    9 Atom       -0.005611     -0.018332      0.019992
   10 Atom       -0.000859      0.006976     -0.004743
   11 Atom       -0.007844     -0.020578     -0.006547
   12 Atom        0.012530     -0.012234      0.003952
   13 Atom        0.001962      0.010848      0.004507
   14 Atom       -0.015222     -0.012375     -0.011333
   15 Atom       -0.020523     -0.012675      0.012896
   16 Atom       -0.002380     -0.007862     -0.016337
   17 Atom       -0.012214     -0.022794     -0.039891
   18 Atom       -0.197107      0.093633      0.092851
   19 Atom       -0.011361      0.002294      0.014573
   20 Atom       -0.399335      0.676034      0.212841
   21 Atom       -0.156134      0.056355      0.115916
   22 Atom        0.000742      0.050904      0.002880
   23 Atom       -0.001220     -0.021727     -0.052798
   24 Atom       -0.129197      0.067881      0.159999
   25 Atom       -0.003526     -0.013728     -0.069126
   26 Atom        0.196576      0.047938     -0.072127
   27 Atom       -0.169112      0.075302      0.126421
   28 Atom        0.003206      0.001648     -0.028128
   29 Atom       -0.002254     -0.005393      0.037988
   30 Atom        0.169466      0.082233     -0.133511
   31 Atom       -0.002006      0.016714      0.021409
   32 Atom       -0.006732      0.048244      0.050910
   33 Atom       -0.002863      0.044613      0.021332
   34 Atom       -0.003433      0.030402      0.060093
   35 Atom       -0.175378      0.030296      0.058767
   36 Atom       -0.005682      0.018688      0.085080
   37 Atom        0.168157      0.099116     -0.140700
   38 Atom       -0.063468      0.031496      0.180614
   39 Atom       -0.001965     -0.009586     -0.070771
   40 Atom        0.082846     -0.136857      0.169645
   41 Atom        0.005988      0.222868     -0.007006
   42 Atom       -0.001366      0.055606     -0.033634
   43 Atom       -0.049917     -0.208190     -0.030966
   44 Atom        0.202646      0.116122     -0.097670
   45 Atom       -0.138213      0.018765      0.051611
   46 Atom        0.185346      0.035363     -0.056267
 -----------------------------------------------------
 -----------------------------------------------------
    Center         ---- Electric Field Gradient ----
                   ----       Eigenvalues       ----
 -----------------------------------------------------
    1 Atom     -494.013011   -493.325519   -493.226824
    2 Atom    -1217.687532  -1217.209178  -1214.508987
    3 Atom     -493.436334   -493.183958   -493.124880
    4 Atom     -493.922634   -493.321365   -493.238240
    5 Atom     -492.829739   -492.816504   -492.778923
    6 Atom     -492.659377   -492.628745   -492.583938
    7 Atom     -492.776030   -492.736297   -492.693210
    8 Atom     -492.652355   -492.652277   -492.593437
    9 Atom     -492.701785   -492.660700   -492.619216
   10 Atom     -492.806666   -492.796780   -492.781242
   11 Atom     -492.879497   -492.827681   -492.819294
   12 Atom     -492.950863   -492.929716   -492.913577
   13 Atom     -493.009183   -492.969664   -492.960818
   14 Atom     -492.759466   -492.723599   -492.711748
   15 Atom     -492.678222   -492.653230   -492.617073
   16 Atom     -492.671282   -492.623557   -492.588604
   17 Atom     -492.715314   -492.654009   -492.598355
   18 Atom     -493.073189   -492.636930   -492.612801
   19 Atom     -492.622629   -492.581446   -492.557454
   20 Atom    -1216.021139  -1214.520846  -1212.542255
   21 Atom       -2.072739     -1.616076     -1.596399
   22 Atom       -2.021155     -1.620111     -1.615608
   23 Atom       -2.050434     -1.623954     -1.618422
   24 Atom       -2.075847     -1.634310     -1.630201
   25 Atom       -2.040887     -1.608459     -1.605821
   26 Atom       -2.049058     -1.610500     -1.607701
   27 Atom       -2.071076     -1.630429     -1.621185
   28 Atom       -2.018257     -1.610002     -1.603068
   29 Atom       -2.058256     -1.629882     -1.624023
   30 Atom       -2.074333     -1.633108     -1.628605
   31 Atom       -2.078495     -1.644368     -1.641981
   32 Atom       -2.049577     -1.636926     -1.635617
   33 Atom       -2.060670     -1.651094     -1.644796
   34 Atom       -2.061763     -1.631084     -1.628822
   35 Atom       -2.083289     -1.640422     -1.634312
   36 Atom       -2.075878     -1.633912     -1.629777
   37 Atom       -2.074193     -1.636696     -1.631598
   38 Atom       -2.087895     -1.635722     -1.633225
   39 Atom       -2.081155     -1.632910     -1.630841
   40 Atom       -2.078420     -1.632923     -1.628823
   41 Atom       -2.064079     -1.616777     -1.615019
   42 Atom       -2.069277     -1.678840     -1.666574
   43 Atom       -2.087237     -1.624857     -1.619240
   44 Atom       -2.074214     -1.618813     -1.607015
   45 Atom       -2.068406     -1.618945     -1.608101
   46 Atom       -2.128164     -1.472324     -1.416026
 -----------------------------------------------------
 -----------------------------------------------------
    Center         ---- Electric Field Gradient ----
                       ( tensor representation )
                   3XX-RR        3YY-RR        3ZZ-RR
 -----------------------------------------------------
    1 Atom        0.125293      0.212846     -0.338139
    2 Atom       -0.754243      1.640496     -0.886254
    3 Atom        0.095886      0.059427     -0.155313
    4 Atom        0.205269      0.171116     -0.376385
    5 Atom        0.022152     -0.009521     -0.012631
    6 Atom       -0.025069      0.004688      0.020381
    7 Atom        0.004744      0.002567     -0.007310
    8 Atom        0.017154     -0.008766     -0.008389
    9 Atom       -0.035154      0.020792      0.014361
   10 Atom        0.009563     -0.009658      0.000095
   11 Atom       -0.025084      0.020510      0.004574
   12 Atom        0.004883     -0.005519      0.000637
   13 Atom        0.015262      0.010988     -0.026250
   14 Atom       -0.009955      0.010428     -0.000473
   15 Atom       -0.011270     -0.004452      0.015722
   16 Atom       -0.042280      0.014254      0.028027
   17 Atom       -0.001303     -0.033424      0.034727
   18 Atom       -0.091332     -0.022508      0.113839
   19 Atom        0.023954      0.005617     -0.029571
   20 Atom       -0.064880     -1.510212      1.575092
   21 Atom        0.076875     -0.203408      0.126533
   22 Atom        0.129898      0.132449     -0.262346
   23 Atom        0.139634      0.138847     -0.278481
   24 Atom        0.090754     -0.157265      0.066511
   25 Atom        0.144522      0.132848     -0.277370
   26 Atom        0.011213     -0.140834      0.129621
   27 Atom        0.043748     -0.141969      0.098221
   28 Atom        0.138815      0.133719     -0.272535
   29 Atom        0.142619      0.141490     -0.284109
   30 Atom        0.039804     -0.125105      0.085301
   31 Atom        0.144269      0.144239     -0.288508
   32 Atom        0.131685      0.131567     -0.263252
   33 Atom        0.129534      0.139568     -0.269102
   34 Atom        0.141054      0.136076     -0.277130
   35 Atom        0.056011     -0.197740      0.141728
   36 Atom        0.146387      0.131828     -0.278216
   37 Atom        0.024189     -0.090944      0.066755
   38 Atom        0.139388     -0.197437      0.058049
   39 Atom        0.148598      0.139289     -0.287887
   40 Atom        0.083637      0.042744     -0.126381
   41 Atom       -0.057018      0.150011     -0.092993
   42 Atom        0.124501      0.129087     -0.253587
   43 Atom       -0.167001      0.150062      0.016939
   44 Atom       -0.070102     -0.021451      0.091552
   45 Atom        0.109920     -0.249439      0.139519
   46 Atom        0.148181     -0.392683      0.244503
 -----------------------------------------------------
 -----------------------------------------------------
    Center         ---- Electric Field Gradient ----
                       ( tensor representation )
                   ----       Eigenvalues       ----
 -----------------------------------------------------
    1 Atom       -0.491226      0.196266      0.294960
    2 Atom       -1.218966     -0.740613      1.959579
    3 Atom       -0.187944      0.064433      0.123511
    4 Atom       -0.428554      0.172715      0.255840
    5 Atom       -0.021350     -0.008115      0.029466
    6 Atom       -0.035357     -0.004725      0.040082
    7 Atom       -0.040851     -0.001118      0.041969
    8 Atom       -0.019666     -0.019587      0.039253
    9 Atom       -0.041218     -0.000133      0.041351
   10 Atom       -0.011770     -0.001884      0.013654
   11 Atom       -0.037340      0.014476      0.022863
   12 Atom       -0.019477      0.001669      0.017808
   13 Atom       -0.029295      0.010225      0.019070
   14 Atom       -0.027861      0.008006      0.019856
   15 Atom       -0.028714     -0.003721      0.032435
   16 Atom       -0.043468      0.004258      0.039210
   17 Atom       -0.059421      0.001884      0.057537
   18 Atom       -0.298882      0.137377      0.161505
   19 Atom       -0.035453      0.005730      0.029723
   20 Atom       -1.659726     -0.159433      1.819159
   21 Atom       -0.311001      0.145662      0.165339
   22 Atom       -0.268864      0.132181      0.136683
   23 Atom       -0.286164      0.140316      0.145848
   24 Atom       -0.295728      0.145809      0.149919
   25 Atom       -0.289164      0.143263      0.145901
   26 Atom       -0.293305      0.145253      0.148052
   27 Atom       -0.296846      0.143801      0.153045
   28 Atom       -0.274482      0.133774      0.140708
   29 Atom       -0.287535      0.140838      0.146697
   30 Atom       -0.295651      0.145574      0.150077
   31 Atom       -0.290214      0.143913      0.146300
   32 Atom       -0.275537      0.137114      0.138423
   33 Atom       -0.275150      0.134426      0.140724
   34 Atom       -0.287873      0.142805      0.145067
   35 Atom       -0.297281      0.145585      0.151695
   36 Atom       -0.296022      0.145944      0.150079
   37 Atom       -0.293364      0.144133      0.149231
   38 Atom       -0.302280      0.149892      0.152389
   39 Atom       -0.299519      0.148725      0.150794
   40 Atom       -0.298365      0.147132      0.151233
   41 Atom       -0.298788      0.148515      0.150273
   42 Atom       -0.264380      0.126057      0.138323
   43 Atom       -0.310126      0.152255      0.157871
   44 Atom       -0.307533      0.147868      0.159666
   45 Atom       -0.303256      0.146206      0.157049
   46 Atom       -0.455993      0.199847      0.256145
 -----------------------------------------------------
 Unable to Open any file for archive entry.
 1\1\GINC-EXP-3-26\SP\RwB97XD\6-31G(d)\C18H26O2\HKLEM\12-Aug-2024\0\\# 
 wb97xd 6-31G(d) prop=efg\\19nt_mm_min_distance_cutoff5_nowat_xtb_ligan
 d_conf_1\\0,1\C,0,42.169,42.2895,31.0459\O,0,42.0898,41.1283,31.5006\C
 ,0,42.6459,43.3921,31.7986\C,0,42.8087,44.6281,31.256\C,0,42.7115,44.8
 81,29.7915\C,0,42.6369,43.5783,28.9924\C,0,41.6774,42.6054,29.6624\C,0
 ,42.9819,45.8199,32.107\C,0,44.02,46.819,31.6041\C,0,43.8391,47.108,30
 .1163\C,0,43.8821,45.7799,29.3405\C,0,44.9542,48.0112,29.6003\C,0,44.8
 783,48.2647,28.0883\C,0,44.9975,46.9243,27.374\C,0,43.8709,45.9946,27.
 8234\C,0,45.1116,49.4188,30.1767\C,0,46.0104,50.1313,29.1462\C,0,46.08
 98,49.2041,27.9146\C,0,43.6122,49.0015,27.643\O,0,46.1074,49.9614,26.7
 293\H,0,42.8283,43.2351,32.8531\H,0,41.7714,45.4479,29.6623\H,0,43.631
 5,43.1233,28.9344\H,0,42.2882,43.7731,27.9783\H,0,40.6983,43.0859,29.7
 611\H,0,41.5507,41.693,29.0774\H,0,43.1868,45.5398,33.1393\H,0,41.9883
 ,46.2993,32.0858\H,0,45.0208,46.4097,31.7748\H,0,43.9358,47.7432,32.17
 65\H,0,42.8632,47.5766,29.9725\H,0,44.8215,45.269,29.5962\H,0,45.8992,
 47.4799,29.7812\H,0,45.9573,46.4632,27.628\H,0,44.9693,47.0548,26.2911
 \H,0,42.9051,46.4038,27.5264\H,0,43.9984,45.0365,27.317\H,0,45.5682,49
 .4108,31.164\H,0,44.1414,49.9053,30.267\H,0,47.0044,50.3194,29.5512\H,
 0,45.5977,51.0892,28.8335\H,0,47.0111,48.5951,27.961\H,0,42.7174,48.54
 19,28.0487\H,0,43.6379,50.0385,27.9613\H,0,43.5463,48.9875,26.5561\H,0
 ,45.9897,49.3541,25.9888\\Version=ES64L-G16RevC.01\State=1-A\HF=-851.7
 890467\RMSD=5.366e-09\Dipole=0.1245024,1.3026536,-0.58059\Quadrupole=9
 .2359333,-20.4996763,11.263743,-9.6236402,3.6018958,13.9854593\PG=C01 
 [X(C18H26O2)]\\@
 The archive entry for this job was punched.


 THE SOLUTION TO A PROBLEM CHANGES THE PROBLEM.

                                 -- JOHN PEERS
           PAUL DICKSON'S "THE OFFICIAL RULES"
 Job cpu time:       0 days  0 hours 10 minutes 60.0 seconds.
 Elapsed time:       0 days  0 hours  0 minutes 28.1 seconds.
 File lengths (MBytes):  RWF=     71 Int=      0 D2E=      0 Chk=      8 Scr=      1
 Normal termination of Gaussian 16 at Mon Aug 12 07:19:58 2024.
