 Entering Gaussian System, Link 0=g16
 Input=19NT_md_min_distance_cutoff8_current.gjf
 Output=19NT_md_min_distance_cutoff8_current.log
 Initial command:
 /usr/bin/gaussian/g16/l1.exe "/media/work/klemlab/arkanil/elecfield_gaussian/gauss_scratch/Gau-2588422.inp" -scrdir="/media/work/klemlab/arkanil/elecfield_gaussian/gauss_scratch/"
 Entering Link 1 = /usr/bin/gaussian/g16/l1.exe PID=   2588424.
  
 Copyright (c) 1988-2021, Gaussian, Inc.  All Rights Reserved.
  
 This is part of the Gaussian(R) 16 program.  It is based on
 the Gaussian(R) 09 system (copyright 2009, Gaussian, Inc.),
 the Gaussian(R) 03 system (copyright 2003, Gaussian, Inc.),
 the Gaussian(R) 98 system (copyright 1998, Gaussian, Inc.),
 the Gaussian(R) 94 system (copyright 1995, Gaussian, Inc.),
 the Gaussian 92(TM) system (copyright 1992, Gaussian, Inc.),
 the Gaussian 90(TM) system (copyright 1990, Gaussian, Inc.),
 the Gaussian 88(TM) system (copyright 1988, Gaussian, Inc.),
 the Gaussian 86(TM) system (copyright 1986, Carnegie Mellon
 University), and the Gaussian 82(TM) system (copyright 1983,
 Carnegie Mellon University). Gaussian is a federally registered
 trademark of Gaussian, Inc.
  
 This software contains proprietary and confidential information,
 including trade secrets, belonging to Gaussian, Inc.
  
 This software is provided under written license and may be
 used, copied, transmitted, or stored only in accord with that
 written license.
  
 The following legend is applicable only to US Government
 contracts under FAR:
  
                    RESTRICTED RIGHTS LEGEND
  
 Use, reproduction and disclosure by the US Government is
 subject to restrictions as set forth in subparagraphs (a)
 and (c) of the Commercial Computer Software - Restricted
 Rights clause in FAR 52.227-19.
  
 Gaussian, Inc.
 340 Quinnipiac St., Bldg. 40, Wallingford CT 06492
  
  
 ---------------------------------------------------------------
 Warning -- This program may not be used in any manner that
 competes with the business of Gaussian, Inc. or will provide
 assistance to any competitor of Gaussian, Inc.  The licensee
 of this program is prohibited from giving any competitor of
 Gaussian, Inc. access to this program.  By using this program,
 the user acknowledges that Gaussian, Inc. is engaged in the
 business of creating and licensing software in the field of
 computational chemistry and represents and warrants to the
 licensee that it is not a competitor of Gaussian, Inc. and that
 it will not use this program in any manner prohibited above.
 ---------------------------------------------------------------
  

 Cite this work as:
 Gaussian 16, Revision C.02,
 M. J. Frisch, G. W. Trucks, H. B. Schlegel, G. E. Scuseria, 
 M. A. Robb, J. R. Cheeseman, G. Scalmani, V. Barone, 
 G. A. Petersson, H. Nakatsuji, X. Li, M. Caricato, A. V. Marenich, 
 J. Bloino, B. G. Janesko, R. Gomperts, B. Mennucci, H. P. Hratchian, 
 J. V. Ortiz, A. F. Izmaylov, J. L. Sonnenberg, D. Williams-Young, 
 F. Ding, F. Lipparini, F. Egidi, J. Goings, B. Peng, A. Petrone, 
 T. Henderson, D. Ranasinghe, V. G. Zakrzewski, J. Gao, N. Rega, 
 G. Zheng, W. Liang, M. Hada, M. Ehara, K. Toyota, R. Fukuda, 
 J. Hasegawa, M. Ishida, T. Nakajima, Y. Honda, O. Kitao, H. Nakai, 
 T. Vreven, K. Throssell, J. A. Montgomery, Jr., J. E. Peralta, 
 F. Ogliaro, M. J. Bearpark, J. J. Heyd, E. N. Brothers, K. N. Kudin, 
 V. N. Staroverov, T. A. Keith, R. Kobayashi, J. Normand, 
 K. Raghavachari, A. P. Rendell, J. C. Burant, S. S. Iyengar, 
 J. Tomasi, M. Cossi, J. M. Millam, M. Klene, C. Adamo, R. Cammi, 
 J. W. Ochterski, R. L. Martin, K. Morokuma, O. Farkas, 
 J. B. Foresman, and D. J. Fox, Gaussian, Inc., Wallingford CT, 2019.
 
 ******************************************
 Gaussian 16:  ES64L-G16RevC.02  7-Dec-2021
                22-May-2026 
 ******************************************
 %nprocshared=5
 Will use up to    5 processors via shared memory.
 %mem=10GB
 --------------------------
 # wb97xd/6-31g(d) prop=efg
 --------------------------
 1/38=1,172=1/1;
 2/12=2,17=6,18=5,40=1/2;
 3/5=1,6=6,7=1,11=2,25=1,30=1,74=-58/1,2,3;
 4//1;
 5/5=2,38=5/2;
 6/7=2,8=2,9=2,10=2,14=1,28=1/1,2;
 99/5=1,9=1/99;
 ----------------------------
 19NT_md_min_distance_cutoff8
 ----------------------------
 Symbolic Z-matrix:
 Charge = -2 Multiplicity = 1
 H                    0    -4.85236  -9.28092   6.6966 
 C                    -1   -4.59926  -8.78704   5.74927 
 H                    0    -4.35498  -9.57273   5.0302 
 C                    0    -5.79524  -7.96472   5.24656 
 H                    0    -6.62726  -8.65448   5.06271 
 H                    0    -6.14468  -7.27054   6.0204 
 C                    0    -5.44196  -7.19782   3.99896 
 C                    0    -5.15359  -7.86181   2.80286 
 H                    0    -5.27194  -8.94152   2.74096 
 C                    0    -4.70991  -7.16439   1.68815 
 H                    0    -4.48389  -7.67518   0.75631 
 C                    0    -4.54731  -5.78215   1.76626 
 O                    0    -4.04703  -5.13412   0.67802 
 H                    0    -3.98833  -4.14421   0.82969 
 C                    0    -4.86732  -5.0955    2.93293 
 H                    0    -4.78044  -4.01584   2.98312 
 C                    0    -5.30812  -5.81261   4.03635 
 H                    0    -5.55379  -5.27379   4.94698 
 C                    0    -3.288    -8.00996   5.95599 
 O                    0    -2.23028  -8.41499   5.46173 
 N                    0    -3.33829  -6.90648   6.73229 
 H                    0    -4.2287   -6.62772   7.11913 
 C                    -1   -2.15909  -6.1421    7.14293 
 H                    0    -1.45176  -6.15373   6.30879 
 C                    0    -2.49804  -4.70124   7.53602 
 H                    0    -3.24506  -4.73809   8.34352 
 C                    0    -1.23828  -4.04137   8.10523 
 H                    0    -1.4223   -2.98755   8.33801 
 H                    0    -0.41276  -4.08281   7.39016 
 H                    0    -0.89235  -4.53725   9.01824 
 C                    0    -3.11122  -3.88724   6.3809 
 H                    0    -4.1378   -4.2257    6.20056 
 H                    0    -3.19755  -2.84298   6.70222 
 C                    0    -2.33234  -3.94752   5.06854 
 H                    0    -2.75506  -3.24291   4.34685 
 H                    0    -2.37969  -4.94899   4.62699 
 H                    0    -1.2784   -3.67647   5.20696 
 H                    0    -1.67149  -6.65334   7.98371 
 H                    0    -0.08871  -10.19496   6.08053 
 C                    -1    0.23783  -10.69967   5.164 
 H                    0     0.93708  -11.49759   5.42117 
 C                    0    -0.99306  -11.23236   4.41359 
 H                    0    -0.65616  -11.89823   3.60555 
 H                    0    -1.50482  -10.38137   3.95033 
 C                    0    -2.01765  -11.95913   5.2885 
 H                    0    -2.3769   -11.22955   6.02772 
 C                    0    -3.20879  -12.39436   4.43117 
 H                    0    -4.00347  -12.83468   5.04338 
 H                    0    -2.90144  -13.14642   3.69261 
 H                    0    -3.63359  -11.5458   3.88155 
 C                    0    -1.41524  -13.15274   6.03159 
 H                    0    -2.1761   -13.6696   6.62687 
 H                    0    -0.99523  -13.87814   5.32256 
 H                    0    -0.614    -12.84609   6.71222 
 C                    0     0.99116  -9.70763   4.2599 
 O                    0     1.9383   -10.05453   3.5605 
 N                    0     0.52218  -8.42143   4.24967 
 H                    0    -0.35216  -8.22572   4.73773 
 C                    -1    1.17175  -7.34691   3.48477 
 H                    0     1.42329  -7.70553   2.4833 
 C                    0     0.20943  -6.13854   3.40364 
 H                    0    -0.09799  -5.90753   4.43389 
 C                    0     0.87706  -4.88603   2.83409 
 H                    0     1.75546  -4.581     3.40769 
 H                    0     1.19814  -5.05094   1.8008 
 H                    0     0.163    -4.05544   2.8414 
 C                    0    -1.04501  -6.48758   2.59439 
 H                    0    -1.72611  -5.63154   2.56261 
 H                    0    -1.60255  -7.32886   3.01835 
 H                    0    -0.77874  -6.73426   1.55804 
 C                    0     2.52531  -6.96808   4.12648 
 O                    0     3.46425  -6.62292   3.40695 
 N                    0     2.57866  -6.98012   5.47574 
 H                    0     1.79665  -7.39342   5.96388 
 C                    -1    3.81091  -6.71658   6.22443 
 H                    0     4.23785  -5.79553   5.80961 
 C                    0     3.63994  -6.56054   7.72736 
 H                    0     2.95899  -5.74474   7.98637 
 H                    0     3.28856  -7.49768   8.17192 
 C                    0     5.05664  -6.24984   8.23756 
 O                    0     5.38041  -5.05394   8.4183 
 O                    0     5.84289  -7.24369   8.32211 
 H                    0     4.52489  -7.5247    6.02512 
 H                    0     4.02427  -9.8464    2.3794 
 C                    -1    4.98962  -9.80339   1.86633 
 H                    0     4.9288   -9.12016   1.01075 
 H                    0     5.73596  -9.38829   2.54632 
 H                    0     5.29828  -10.80546   1.5491 
 H                    0    -2.79095  -12.70791   0.87842 
 C                    -1   -3.18822  -12.03107   0.11411 
 H                    0    -4.05026  -11.50792   0.54661 
 C                    0    -2.12692  -11.02697  -0.34318 
 H                    0    -1.26886  -11.60452  -0.72767 
 C                    0    -2.65772  -10.14462  -1.47756 
 H                    0    -3.53467  -9.57535  -1.14568 
 H                    0    -2.96527  -10.74656  -2.34019 
 H                    0    -1.91849  -9.41407  -1.82549 
 C                    0    -1.62857  -10.19422   0.84745 
 H                    0    -2.38004  -9.43627   1.10782 
 H                    0    -1.53345  -10.84487   1.72244 
 C                    0    -0.28309  -9.51251   0.61776 
 H                    0     0.03835  -8.95978   1.50202 
 H                    0     0.4889   -10.27561   0.43256 
 H                    0    -0.32406  -8.80002  -0.21901 
 H                    0    -3.55381  -12.63593  -0.72298 
 H                    0    -9.0423   -11.89124  -1.30355 
 C                    -1   -9.58141  -11.92303  -2.25666 
 H                    0    -10.51821  -11.37258  -2.1228 
 C                    0    -8.73925  -11.30011  -3.37528 
 H                    0    -7.84041  -11.90701  -3.54002 
 H                    0    -9.30805  -11.31934  -4.31325 
 C                    0    -8.34639  -9.88606  -3.02944 
 C                    0    -7.08571  -9.5853   -2.51968 
 H                    0    -6.33664  -10.37147  -2.44141 
 C                    0    -6.76943  -8.30346  -2.07912 
 H                    0    -5.78951  -8.089    -1.66446 
 C                    0    -7.72679  -7.28998  -2.14681 
 O                    0    -7.48846  -6.03203  -1.70171 
 H                    0    -6.52801  -5.88284  -1.70066 
 C                    0    -8.98857  -7.5696   -2.6734 
 H                    0    -9.71917  -6.77066  -2.73828 
 C                    0    -9.28366  -8.8512   -3.10908 
 H                    0    -10.27212  -9.05651  -3.5146 
 H                    0    -9.83197  -12.96692  -2.47792 
 H                    0    -9.80649  -4.00147  -6.88992 
 C                    -1   -9.32202  -3.34672  -6.15725 
 H                    0    -9.96418  -3.26524  -5.27281 
 C                    0    -7.94555  -3.91715  -5.76917 
 H                    0    -7.38177  -4.05805  -6.69991 
 C                    0    -7.17194  -2.92941  -4.89053 
 H                    0    -6.23996  -3.37558  -4.52039 
 H                    0    -6.90655  -2.0292   -5.45239 
 H                    0    -7.77424  -2.61343  -4.02893 
 C                    0    -8.09837  -5.26553  -5.06841 
 H                    0    -8.6791   -5.97573  -5.66925 
 H                    0    -7.12149  -5.71983  -4.85699 
 H                    0    -8.60811  -5.14116  -4.10682 
 C                    0    -9.1185   -1.96818  -6.81082 
 O                    0    -8.49651  -1.86176  -7.86567 
 N                    0    -9.60088  -0.90879  -6.1159 
 H                    0    -10.03732  -1.06588  -5.2095 
 C                    -1   -9.35292   0.47968  -6.48278 
 H                    0    -9.10796   0.49481  -7.54801 
 C                    0    -10.55008   1.38331  -6.15566 
 H                    0    -10.64223   1.44942  -5.06934 
 H                    0    -10.30521   2.39393  -6.50941 
 C                    0    -11.914    0.95951  -6.69336 
 H                    0    -12.08159  -0.0983   -6.45186 
 H                    0    -11.98206   1.07126  -7.77987 
 C                    0    -13.04745   1.78095  -6.02071 
 O                    0    -12.92975   1.90321  -4.75619 
 O                    0    -13.95172   2.2427   -6.73013 
 C                    0    -8.16016   0.97211  -5.63734 
 O                    0    -8.29006   1.12853  -4.42055 
 N                    0    -6.98307   1.20378  -6.25589 
 H                    0    -6.86735   0.97208  -7.23265 
 C                    -1   -5.80435   1.57168  -5.48311 
 H                    0    -6.1704    2.16091  -4.64274 
 C                    0    -5.12035   0.30287  -4.93924 
 H                    0    -4.95293  -0.39321  -5.76603 
 H                    0    -5.81951  -0.18311  -4.2468 
 C                    0    -3.79214   0.52197  -4.21049 
 O                    0    -3.52074   1.65301  -3.75703 
 O                    0    -3.03231  -0.49498  -4.10479 
 C                    0    -4.82025   2.38008  -6.33229 
 O                    0    -4.22051   1.81364  -7.2484 
 N                    0    -4.60715   3.67402  -6.01424 
 C                    0    -3.69962   4.4792   -6.8337 
 H                    0    -2.66109   4.25436  -6.55884 
 H                    0    -3.83474   4.22732  -7.88767 
 C                    0    -4.07521   5.9219   -6.49239 
 H                    0    -3.22921   6.60616  -6.59383 
 H                    0    -4.88204   6.25681  -7.1506 
 C                    0    -4.58087   5.82483  -5.05047 
 H                    0    -5.21942   6.6576   -4.74773 
 H                    0    -3.74229   5.7811   -4.3517 
 C                    -1   -5.33372   4.48376  -5.03374 
 H                    0    -5.30316   4.02982  -4.03952 
 C                    0    -6.80113   4.68447  -5.49757 
 O                    0    -7.09897   4.65159  -6.68569 
 N                    0    -7.69169   4.94708  -4.51412 
 H                    0    -7.41579   4.79969  -3.54864 
 C                    -1   -9.0985    5.16879  -4.81574 
 H                    0    -9.52448   4.26759  -5.27522 
 C                    0    -9.92417   5.54493  -3.5849 
 H                    0    -9.47817   6.41114  -3.08129 
 H                    0    -9.93002   4.71688  -2.86392 
 C                    0    -11.33238   5.86519  -4.03199 
 C                    0    -12.17051   4.84602  -4.48707 
 H                    0    -11.85811   3.80482  -4.46245 
 C                    0    -13.4344   5.12665  -5.00235 
 H                    0    -14.02479   4.30732  -5.40878 
 C                    0    -13.89169   6.44287  -5.03038 
 H                    0    -14.87699   6.67093  -5.42849 
 C                    0    -13.06977   7.4717   -4.5654 
 H                    0    -13.41345   8.50292  -4.59596 
 C                    0    -11.79163   7.18293  -4.08971 
 H                    0    -11.14529   7.98877  -3.74947 
 H                    0    -9.17275   5.96239  -5.56707 
 H                    0    -0.37466  -6.77927  -9.32456 
 C                    -1   -0.47095  -5.81039  -8.81348 
 H                    0     0.00618  -5.05907  -9.44377 
 C                    0    -1.95837  -5.47993  -8.6073 
 H                    0    -2.44627  -6.23556  -7.97575 
 H                    0    -2.44773  -5.55306  -9.58462 
 C                    0    -2.17302  -4.1009   -8.03025 
 C                    0    -1.9127   -2.97876  -8.82056 
 H                    0    -1.56453  -3.1143   -9.84277 
 C                    0    -2.12745  -1.69568  -8.32896 
 H                    0    -1.93326  -0.83421  -8.95826 
 C                    0    -2.59711  -1.51852  -7.03116 
 H                    0    -2.7893   -0.51993  -6.65563 
 C                    0    -2.85781  -2.62918  -6.22985 
 H                    0    -3.24409  -2.45428  -5.2291 
 C                    0    -2.64084  -3.91547  -6.72753 
 H                    0    -2.87399  -4.78047  -6.10643 
 C                    0     0.34647  -5.91065  -7.53199 
 O                    0     1.43058  -5.34645  -7.40896 
 N                    0    -0.07673  -6.77055  -6.54425 
 H                    0    -1.05816  -7.01553  -6.53331 
 C                    -1    0.63492  -6.86909  -5.26669 
 H                    0     0.68753  -5.88921  -4.77869 
 C                    0    -0.04898  -7.88246  -4.33081 
 H                    0    -0.25205  -8.80009  -4.90244 
 H                    0     0.6916   -8.12083  -3.55983 
 C                    0    -1.29387  -7.36721  -3.65746 
 C                    0    -2.56706  -7.50781  -4.21633 
 H                    0    -2.69519  -8.04725  -5.15393 
 C                    0    -3.69408  -6.99643  -3.58413 
 H                    0    -4.68335  -7.10748  -4.01612 
 C                    0    -3.56012  -6.34213  -2.35641 
 O                    0    -4.66564  -5.85358  -1.76232 
 H                    0    -4.45279  -5.52116  -0.85396 
 C                    0    -2.29541  -6.2204   -1.76822 
 H                    0    -2.19953  -5.74293  -0.79921 
 C                    0    -1.181    -6.71612  -2.42716 
 H                    0    -0.19924  -6.59402  -1.97176 
 C                    0     2.09178  -7.31661  -5.44303 
 O                    0     2.89949  -7.0715   -4.54509 
 N                    0     2.42347  -8.10242  -6.50323 
 H                    0     1.72979  -8.22001  -7.23027 
 C                    -1    3.81328  -8.49662  -6.75012 
 H                    0     4.30694  -8.2264   -5.80704 
 C                    0     4.01694  -9.99659  -6.93843 
 H                    0     3.16277  -10.44759  -7.45719 
 H                    0     4.89939  -10.13942  -7.56836 
 C                    0     4.27201  -10.69115  -5.58439 
 H                    0     4.47754  -11.75604  -5.74147 
 H                    0     5.17839  -10.24524  -5.15348 
 C                    0     3.12105  -10.53156  -4.58253 
 H                    0     2.76247  -9.50228  -4.57663 
 H                    0     2.29316  -11.19407  -4.86633 
 N                    0     3.5553   -10.83367  -3.21061 
 H                    0     4.49473  -11.17748  -3.07149 
 C                    0     2.84227  -10.52285  -2.12393 
 N                    0     1.54854  -10.22003  -2.24168 
 H                    0     1.04705  -10.38775  -3.09951 
 H                    0     1.01003  -9.89162  -1.44866 
 N                    0     3.40931  -10.53151  -0.91317 
 H                    0     4.40927  -10.44798  -0.80096 
 H                    0     2.86963  -10.33963  -0.07814 
 C                    0     4.59874  -7.52375  -7.70234 
 O                    0     5.73181  -7.8357   -8.02925 
 N                    0     4.00542  -6.32412  -7.94608 
 H                    0     3.05911  -6.18169  -7.60732 
 C                    -1    4.71861  -5.05406  -8.22488 
 H                    0     5.70892  -5.32184  -8.59507 
 C                    0     3.97813  -4.11048  -9.17742 
 H                    0     4.70035  -3.38435  -9.56122 
 H                    0     3.25481  -3.51056  -8.62399 
 C                    0     3.25363  -4.79187  -10.34018 
 H                    0     3.95454  -5.20718  -11.06742 
 H                    0     2.62969  -5.60582  -9.9541 
 C                    0     2.36209  -3.79158  -11.06609 
 O                    0     2.57862  -3.42128  -12.2064 
 N                    0     1.27153  -3.3708   -10.34489 
 H                    0     1.33986  -3.37058  -9.32996 
 H                    0     0.81486  -2.54471  -10.71444 
 C                    0     4.91165  -4.41959  -6.81305 
 O                    0     6.00607  -4.47719  -6.22674 
 N                    0     3.8019   -3.93251  -6.23188 
 H                    0     2.96427  -3.75918  -6.7977 
 C                    -1    3.75959  -3.1342   -5.01523 
 H                    0     2.71269  -3.09702  -4.6942 
 H                    0     4.07983  -2.10809  -5.22168 
 C                    0     4.61822  -3.61114  -3.84117 
 O                    0     5.31026  -2.79095  -3.22319 
 N                    0     4.53961  -4.8974   -3.45032 
 H                    0     3.9245   -5.53647  -3.95149 
 C                    -1    5.25453  -5.40692  -2.28494 
 H                    0     5.52554  -4.55074  -1.66425 
 C                    0     4.39231  -6.38438  -1.47576 
 H                    0     4.24483  -7.29887  -2.06816 
 H                    0     4.96599  -6.6596   -0.58317 
 C                    0     3.02263  -5.82969  -1.06394 
 H                    0     2.43612  -5.66367  -1.97791 
 C                    0     2.29485  -6.87295  -0.21041 
 H                    0     1.26783  -6.55932   0.00975 
 H                    0     2.24336  -7.8386   -0.73334 
 H                    0     2.8078   -7.02072   0.7485 
 C                    0     3.14011  -4.50265  -0.3117 
 H                    0     3.75311  -4.62014   0.59053 
 H                    0     3.57765  -3.7128   -0.93182 
 H                    0     2.15483  -4.14644   0.00326 
 C                    0     6.58638  -6.10782  -2.66688 
 O                    0     7.25661  -6.67243  -1.7955 
 N                    0     6.96741  -6.12709  -3.96083 
 H                    0     6.44422  -5.58999  -4.65133 
 C                    -1    8.07614  -6.95681  -4.42328 
 H                    0     7.943    -7.98371  -4.0725 
 H                    0     8.04046  -6.97077  -5.51595 
 C                    0     9.51531  -6.57588  -4.00975 
 O                    0     10.41102  -7.36586  -4.25844 
 N                    0     9.73886  -5.36184  -3.42831 
 H                    0     8.95837  -4.77229  -3.13028 
 C                    -1    11.0851  -4.95094  -3.05087 
 H                    0     11.12219  -3.86802  -2.92023 
 H                    0     11.78559  -5.22401  -3.8439 
 C                    0     11.64133  -5.6009   -1.76592 
 O                    0     12.80106  -5.35143  -1.42743 
 N                    0     10.8474  -6.4227   -1.03345 
 H                    0     9.87557  -6.53335  -1.29632 
 C                    -1    11.30671  -7.0463    0.20373 
 H                    0     10.52438  -7.72128   0.55472 
 H                    0     12.22903  -7.60697   0.03466 
 C                    0     11.5763  -6.03183   1.33193 
 O                    0     12.28012  -6.40158   2.29845 
 N                    0     11.03924  -4.81705   1.24185 
 H                    0     10.51194  -4.58545   0.39761 
 C                    -1    11.20551  -3.75568   2.24218 
 H                    0     11.62068  -4.23446   3.13062 
 C                    0     12.12362  -2.60814   1.76507 
 H                    0     11.58175  -1.98693   1.04344 
 H                    0     12.32407  -1.97625   2.63537 
 C                    0     13.40527  -3.08093   1.08439 
 H                    0     13.9473  -2.20686   0.71314 
 H                    0     13.11212  -3.65035   0.20137 
 C                    0     14.31631  -3.96058   1.95968 
 H                    0     13.71679  -4.41573   2.75504 
 H                    0     15.08643  -3.36082   2.45512 
 C                    0     14.96214  -5.09429   1.15095 
 H                    0     16.00583  -4.90424   0.89269 
 H                    0     14.39961  -5.30176   0.23585 
 N                    0     14.9093  -6.37324   1.94589 
 H                    0     15.34036  -7.15365   1.44816 
 H                    0     13.87544  -6.58543   2.11973 
 H                    0     15.37292  -6.27489   2.85109 
 C                    0     9.86585  -3.12883   2.69354 
 O                    0     9.90766  -2.3478    3.63079 
 N                    0     8.7228   -3.37269   1.97215 
 H                    0     8.61463  -4.29835   1.5314 
 C                    -1    7.47755  -2.77684   2.4837 
 H                    0     7.65324  -1.70323   2.60779 
 C                    0     6.26739  -3.00866   1.559 
 H                    0     5.99038  -4.0702    1.62567 
 C                    0     5.08967  -2.14125   2.02352 
 H                    0     4.78064  -2.3553    3.0503 
 H                    0     5.35286  -1.07675   1.98147 
 H                    0     4.2256   -2.29808   1.36922 
 C                    0     6.61657  -2.69526   0.1038 
 H                    0     7.10363  -1.71531   0.01255 
 H                    0     7.27945  -3.45659  -0.318 
 H                    0     5.70905  -2.65805  -0.50782 
 C                    0     7.20606  -3.38385   3.88768 
 O                    0     7.3978   -4.60355   4.08908 
 N                    0     6.77118  -2.5557    4.82858 
 H                    0     6.73707  -1.55725   4.60497 
 C                    -1    6.29908  -2.95311   6.15621 
 H                    0     6.30957  -4.03806   6.23327 
 C                    0     7.15071  -2.29898   7.26659 
 H                    0     6.99143  -2.87978   8.18164 
 H                    0     6.76555  -1.29098   7.46058 
 C                    0     8.63779  -2.15463   6.93228 
 H                    0     9.12853  -1.65478   7.77729 
 H                    0     8.76657  -1.49615   6.0669 
 C                    0     9.37148  -3.45891   6.62114 
 H                    0     8.9996   -3.91173   5.70302 
 H                    0     10.43219  -3.25542   6.449 
 N                    0     9.26137  -4.42962   7.70815 
 H                    0     9.61314  -4.11679   8.60183 
 C                    0     8.4365   -5.48646   7.7581 
 N                    0     7.87718  -6.00954   6.66617 
 H                    0     7.83866  -5.51235   5.77584 
 H                    0     7.1188   -6.66335   6.86781 
 N                    0     8.23838  -6.12167   8.9269 
 H                    0     8.36815  -5.56383   9.75885 
 H                    0     7.34625  -6.66994   8.92058 
 C                    0     4.84825  -2.40804   6.25477 
 O                    0     4.52701  -1.45457   5.53415 
 N                    0     4.01265  -2.97378   7.13542 
 H                    0     4.33849  -3.76572   7.71516 
 C                    -1    2.62599  -2.50836   7.20691 
 H                    0     2.62664  -1.43145   7.01976 
 C                    0     1.7808   -3.18784   6.12619 
 H                    0     0.77357  -2.75937   6.09992 
 H                    0     1.71442  -4.26766   6.30069 
 H                    0     2.24878  -3.01473   5.153 
 C                    0     2.06102  -2.78127   8.61505 
 O                    0     2.17717  -3.88643   9.13633 
 N                    0     1.41397  -1.73877   9.19871 
 H                    0     1.36382  -0.85696   8.68838 
 C                    -1    0.87399  -1.7985    10.55987 
 H                    0     0.87401  -2.85358   10.84685 
 C                    0     1.70972  -0.99029   11.54682 
 H                    0     2.74241  -1.34881   11.5495 
 H                    0     1.3071   -1.11582   12.55653 
 S                    0     1.67185   0.80809   11.24087 
 H                    0     2.29955   0.78497   10.05197 
 H                    0    -0.15892  -1.43466   10.55155 
 H                    0    -9.7757    0.43563   7.85506 
 C                    -1   -9.07036   0.12276   8.63307 
 H                    0    -9.53774   0.28964   9.60867 
 C                    0    -8.68819  -1.34897   8.45408 
 H                    0    -9.57865  -1.97617   8.57505 
 H                    0    -7.98438  -1.64811   9.24183 
 C                    0    -8.07789  -1.63915   7.07988 
 H                    0    -7.15667  -1.06152   6.93341 
 H                    0    -8.78738  -1.35886   6.29206 
 S                    0    -7.70578  -3.42821   6.91872 
 C                    0    -8.02143  -3.719     5.15447 
 H                    0    -8.95758  -3.24154   4.85085 
 H                    0    -7.20407  -3.36541   4.51989 
 H                    0    -8.13603  -4.79703   5.01633 
 H                    0    -8.18964   0.7733    8.56849 
 H                    0    -3.8829    2.26795   8.37334 
 C                    -1   -2.93852   1.80594   8.66972 
 H                    0    -2.85762   1.85936   9.76278 
 C                    0    -2.8918    0.3337    8.22132 
 H                    0    -1.95557  -0.13639   8.54946 
 H                    0    -3.69689  -0.20267   8.73954 
 C                    0    -3.05078   0.15088   6.7276 
 C                    0    -1.99766  -0.30242   5.93004 
 H                    0    -1.02698  -0.5001    6.38257 
 C                    0    -2.17348  -0.4742    4.55614 
 H                    0    -1.34699  -0.83153   3.94845 
 C                    0    -3.39569  -0.17924   3.96113 
 H                    0    -3.53529  -0.28957   2.89015 
 C                    0    -4.44174   0.30052   4.74607 
 H                    0    -5.3786    0.58686   4.27799 
 C                    0    -4.26944   0.45721   6.11497 
 H                    0    -5.08061   0.86436   6.71286 
 C                    0    -1.84316   2.67761   8.05227 
 O                    0    -2.09358   3.72124   7.46569 
 N                    0    -0.57717   2.22324   8.21066 
 H                    0    -0.39743   1.38357   8.74176 
 C                    -1    0.58294   2.86733   7.63104 
 H                    0     0.23356   3.59661   6.89703 
 C                    0     1.4216    3.58615   8.69268 
 H                    0     0.87564   4.49689   8.95277 
 H                    0     1.47108   2.95746   9.58951 
 C                    0     2.83793   3.91393   8.22935 
 H                    0     3.40554   2.98857   8.07002 
 H                    0     2.81273   4.43805   7.26649 
 C                    0     3.60037   4.76062   9.23723 
 H                    0     4.67441   4.69061   9.03519 
 H                    0     3.43981   4.37792   10.25563 
 N                    0     3.1522    6.14296   9.15028 
 H                    0     2.17447   6.33556   8.82169 
 C                    0     3.91257   7.19194   9.40391 
 N                    0     5.19072   7.04548   9.81414 
 H                    0     5.71037   6.1683    9.66308 
 H                    0     5.76172   7.87336   9.86501 
 N                    0     3.36359   8.41631   9.30723 
 H                    0     2.41632   8.53134   8.87391 
 H                    0     3.97782   9.21251   9.25513 
 C                    0     1.4061    1.78391   6.92068 
 O                    0     1.55383   0.66061   7.43393 
 N                    0     1.9666    2.15047   5.75678 
 H                    0     1.83166   3.11489   5.43991 
 C                    -1    2.96819   1.35626   5.06903 
 H                    0     3.11705   0.44918   5.65887 
 C                    0     2.53291   0.91653   3.65395 
 H                    0     3.38575   0.36571   3.23347 
 C                    0     1.34278  -0.03561   3.76581 
 H                    0     0.47906   0.48847   4.18856 
 H                    0     1.57703  -0.88993   4.4095 
 H                    0     1.05824  -0.41438   2.77587 
 C                    0     2.2026    2.09247   2.73801 
 H                    0     1.40049   2.71198   3.15519 
 H                    0     1.87271   1.73443   1.75714 
 H                    0     3.07233   2.73199   2.57696 
 C                    0     4.2911    2.14782   5.06164 
 O                    0     4.28085   3.37325   4.93113 
 N                    0     5.42776   1.43797   5.20834 
 H                    0     5.35953   0.42772   5.29512 
 C                    -1    6.74514   2.07017   5.19811 
 H                    0     6.58406   3.08724   4.83499 
 C                    0     7.39036   2.18678   6.58638 
 H                    0     8.36731   2.66692   6.47127 
 H                    0     7.58423   1.19084   7.00582 
 C                    0     6.53427   3.0343    7.53594 
 H                    0     5.7548    2.41507   8.00108 
 H                    0     5.99507   3.80205   6.97034 
 C                    0     7.33662   3.73086   8.67387 
 O                    0     8.45411   3.2698    8.94235 
 O                    0     6.74413   4.71387   9.21936 
 C                    0     7.63481   1.36112   4.15601 
 O                    0     7.53415   0.14254   3.94881 
 N                    0     8.50409   2.1469    3.47629 
 H                    0     8.60063   3.12868   3.74493 
 C                    -1    9.25266   1.68435   2.30606 
 H                    0     9.85688   0.81315   2.59676 
 C                    0     8.29675   1.25272   1.17799 
 H                    0     7.70895   0.40788   1.54921 
 H                    0     8.88545   0.85801   0.33875 
 C                    0     7.36247   2.37811   0.70466 
 H                    0     7.8191    3.35654   0.882 
 H                    0     7.18538   2.31666  -0.37358 
 S                    0     5.75395   2.36469   1.58021 
 C                    0     5.62427   4.10369   2.07835 
 H                    0     6.51594   4.3967    2.63856 
 H                    0     5.48849   4.76237   1.21686 
 H                    0     4.76052   4.18453   2.73897 
 C                    0     10.26914   2.79142   1.88587 
 O                    0     10.79111   3.50136   2.72869 
 N                    0     10.59028   2.87562   0.55622 
 H                    0     10.09348   2.33408  -0.13439 
 C                    -1    11.64187   3.74918   0.03167 
 H                    0     11.89057   4.43904   0.84437 
 C                    0     12.90208   2.95453  -0.37247 
 H                    0     12.60206   2.27151  -1.1785 
 C                    0     13.98481   3.89251  -0.9149 
 H                    0     14.23626   4.66448  -0.17598 
 H                    0     14.89807   3.32736  -1.12836 
 H                    0     13.67871   4.38092  -1.8455 
 C                    0     13.41991   2.12765   0.80531 
 H                    0     13.68193   2.77145   1.6528 
 H                    0     12.6718   1.40766   1.15117 
 H                    0     14.31438   1.56965   0.50755 
 C                    0     11.0946   4.50832  -1.19556 
 O                    0     10.66548   3.86385  -2.15932 
 N                    0     11.18121   5.85331  -1.18006 
 H                    0     11.35265   6.28094  -0.28258 
 C                    -1    10.69738   6.72437  -2.25999 
 H                    0     11.05542   6.30375  -3.20124 
 C                    0     9.1653    6.86407  -2.28024 
 H                    0     8.74018   5.8713   -2.08569 
 H                    0     8.85062   7.51716  -1.46006 
 C                    0     8.63551   7.39092  -3.57507 
 C                    0     7.93933   8.55155  -3.7916 
 H                    0     7.65022   9.31442  -3.08132 
 N                    0     7.61051   8.6794   -5.11766 
 H                    0     6.89345   9.27899  -5.5321 
 C                    0     8.07202   7.57824  -5.78654 
 C                    0     7.98087   7.26326  -7.14479 
 H                    0     7.49104   7.93377  -7.84301 
 C                    0     8.53759   6.06855  -7.55641 
 H                    0     8.49316   5.79697  -8.6039 
 C                    0     9.15045   5.19047  -6.63839 
 H                    0     9.53822   4.24084  -6.99154 
 C                    0     9.24596   5.50812  -5.29059 
 H                    0     9.72075   4.82665  -4.58779 
 C                    0     8.72042   6.73586  -4.85197 
 H                    0     11.18006   7.6971   -2.13847 
 H                    0     10.28187   6.34458   3.56467 
 C                    -1    9.4078    6.99524   3.64921 
 H                    0     9.66479   7.85039   4.28448 
 C                    0     8.95962   7.50137   2.27742 
 H                    0     8.0268    8.06712   2.35258 
 H                    0     9.72244   8.15375   1.8437 
 S                    0     8.67614   6.06385   1.18074 
 H                    0     7.82992   6.66397   0.3308 
 C                    0     8.29308   6.16271   4.31094 
 O                    0     8.38491   4.94424   4.44913 
 N                    0     7.20829   6.86537   4.69748 
 H                    0     7.11086   7.83941   4.43992 
 C                    -1    5.99115   6.27265   5.22201 
 H                    0     6.04721   5.19319   5.07045 
 C                    0     5.79824   6.57601   6.70516 
 H                    0     5.76936   7.66007   6.86564 
 H                    0     6.58815   6.12941   7.31356 
 H                    0     4.84419   6.15981   7.04036 
 C                    0     4.80098   6.85006   4.42874 
 O                    0     4.90887   7.95303   3.88942 
 N                    0     3.68051   6.10385   4.4512 
 H                    0     3.73419   5.15084   4.80581 
 C                    -1    2.43012   6.47555   3.79542 
 H                    0     2.41792   7.56544   3.70827 
 C                    0     2.331     5.81077   2.41713 
 H                    0     2.43046   4.73384   2.5806 
 H                    0     3.19987   6.13156   1.82818 
 C                    0     1.04146   6.08781   1.63304 
 H                    0     0.1872    5.97667   2.31312 
 C                    0     1.00394   7.50564   1.06537 
 H                    0     1.19558   8.25583   1.83821 
 H                    0     1.75741   7.62543   0.27675 
 H                    0     0.03309   7.7331    0.61636 
 C                    0     0.89402   5.04691   0.52365 
 H                    0     0.88826   4.03492   0.94441 
 H                    0     1.73388   5.11427  -0.18171 
 H                    0    -0.02953   5.18737  -0.04673 
 C                    0     1.27178   6.00148   4.67865 
 O                    0     1.193     4.812     5.01875 
 N                    0     0.35742   6.9241    4.99718 
 H                    0     0.5041    7.88216   4.68071 
 C                    -1   -0.81108   6.63601   5.82652 
 H                    0    -0.59466   5.71353   6.36813 
 C                    0    -0.95082   7.73716   6.87312 
 H                    0    -1.05246   8.72393   6.41185 
 H                    0    -1.8419    7.54139   7.48068 
 C                    0     0.30232   7.69788   7.78838 
 O                    0     0.64594   6.54802   8.18219 
 O                    0     0.8803    8.77446   8.05208 
 C                    0    -2.01774   6.38785   4.86448 
 O                    0    -2.24272   7.17405   3.94251 
 N                    0    -2.71417   5.23815   5.04902 
 H                    0    -2.49159   4.65092   5.85268 
 C                    -1   -3.65694   4.66698   4.07864 
 H                    0    -3.93411   5.46169   3.3785 
 C                    0    -3.01473   3.48119   3.30741 
 H                    0    -2.80987   2.7001    4.05233 
 C                    0    -3.9761    2.91783   2.25484 
 H                    0    -3.47369   2.13771   1.67152 
 H                    0    -4.8732    2.46797   2.68711 
 H                    0    -4.29227   3.70641   1.56166 
 C                    0    -1.69333   3.88394   2.6525 
 H                    0    -1.25616   3.01671   2.14209 
 H                    0    -0.96446   4.23691   3.38847 
 H                    0    -1.84483   4.66872   1.90182 
 C                    0    -4.90387   4.13344   4.82292 
 O                    0    -4.78309   3.5355    5.88551 
 N                    0    -6.11451   4.28619   4.20745 
 H                    0    -6.19304   4.82435   3.34251 
 C                    -1   -7.31921   3.65551   4.74768 
 H                    0    -6.98282   3.09356   5.6252 
 C                    0    -8.3913    4.67462   5.17836 
 H                    0    -8.64897   5.26808   4.29074 
 C                    0    -9.64999   3.94201   5.6545 
 H                    0    -10.42939   4.65027   5.9485 
 H                    0    -10.07498   3.30589   4.87096 
 H                    0    -9.42672   3.30838   6.52335 
 C                    0    -7.82188   5.6197    6.24366 
 H                    0    -6.86841   6.0169    5.88071 
 H                    0    -7.58994   5.04264   7.14961 
 C                    0    -8.74451   6.78742   6.5902 
 H                    0    -9.01446   7.35152   5.68989 
 H                    0    -8.24896   7.47797   7.28021 
 H                    0    -9.67267   6.45455   7.06718 
 C                    0    -7.88674   2.71065   3.68854 
 O                    0    -8.28798   3.14678   2.61565 
 N                    0    -7.93307   1.388     3.98995 
 H                    0    -7.81174   1.10935   4.95413 
 C                    -1   -8.57061   0.43851   3.09397 
 H                    0    -8.58243   0.89216   2.10098 
 C                    0    -7.84809  -0.89179   3.05047 
 H                    0    -7.62059  -1.24083   4.06327 
 H                    0    -8.49912  -1.65079   2.60161 
 C                    0    -6.57406  -0.88124   2.25249 
 O                    0    -6.03994   0.08972   1.76236 
 O                    0    -6.07837  -2.11602   2.17002 
 H                    0    -5.25824  -2.07804   1.6219 
 C                    0    -10.01838   0.15435   3.56307 
 O                    0    -10.23631  -0.22771   4.71502 
 N                    0    -10.9623   0.30883   2.6158 
 H                    0    -10.66176   0.56826   1.67077 
 C                    -1   -12.35716  -0.09594   2.76034 
 H                    0    -12.57571  -0.17901   3.82989 
 C                    0    -13.28565   0.93055   2.07504 
 H                    0    -12.99246   0.98056   1.02 
 C                    0    -14.7505   0.49705   2.11421 
 H                    0    -15.33837   1.2174    1.54102 
 H                    0    -15.12616   0.4574    3.14648 
 H                    0    -14.90305  -0.48541   1.65366 
 C                    0    -13.11036   2.32255   2.67779 
 H                    0    -12.0684   2.65289   2.63339 
 H                    0    -13.42963   2.34077   3.72839 
 H                    0    -13.71853   3.03613   2.11495 
 C                    0    -12.48785  -1.45349   2.04921 
 O                    0    -11.96988  -1.63345   0.94915 
 N                    0    -13.1964  -2.43394   2.65186 
 H                    0    -13.59571  -2.25179   3.55993 
 C                    -1   -13.44784  -3.72251   2.01556 
 H                    0    -13.30202  -3.58674   0.94219 
 C                    0    -12.54693  -4.841     2.55411 
 H                    0    -12.93118  -5.80078   2.18781 
 H                    0    -12.62379  -4.86687   3.64888 
 C                    0    -11.08473  -4.68795   2.14004 
 H                    0    -10.7001  -3.70656   2.43651 
 H                    0    -10.99667  -4.76911   1.05132 
 S                    0    -10.07354  -5.99195   2.91729 
 C                    0    -8.47112  -5.67469   2.12848 
 H                    0    -8.11191  -4.66236   2.33935 
 H                    0    -7.75783  -6.38845   2.54888 
 H                    0    -8.51791  -5.82947   1.04611 
 H                    0    -14.49781  -3.98379   2.18384 
 H                    0    -12.63821  -10.85035  -0.1404 
 C                    -1   -12.72492  -9.75779  -0.10043 
 H                    0    -13.22977  -9.49653   0.83864 
 C                    0    -11.34914  -9.0893   -0.18021 
 H                    0    -10.86986  -9.40784  -1.1144 
 C                    0    -11.4903  -7.56652  -0.23125 
 H                    0    -12.0712  -7.25285  -1.10675 
 H                    0    -10.51544  -7.07121  -0.28434 
 H                    0    -11.99951  -7.19955   0.66747 
 C                    0    -10.45011  -9.5515    0.97597 
 H                    0    -10.53421  -10.64405   1.06721 
 H                    0    -10.83022  -9.12626   1.91511 
 C                    0    -8.97675  -9.18438   0.80653 
 H                    0    -8.56596  -9.61706  -0.11257 
 H                    0    -8.83286  -8.10213   0.75031 
 H                    0    -8.38199  -9.54858   1.65268 
 H                    0    -13.37149  -9.43849  -0.92596 
 H                    0    -11.86341  -3.67778  -2.65685 
 C                    -1   -11.32978  -3.10648  -1.8935 
 H                    0    -11.95065  -3.0324   -0.99528 
 C                    0    -10.00476  -3.80768  -1.5446 
 H                    0    -10.23646  -4.82966  -1.21377 
 H                    0    -9.38922  -3.90879  -2.44489 
 C                    0    -9.1973   -3.11668  -0.43331 
 H                    0    -9.87388  -2.62631   0.2739 
 H                    0    -8.62117  -3.85851   0.12425 
 S                    0    -8.01007  -1.83395  -0.95457 
 C                    0    -6.58333  -2.88142  -1.34319 
 H                    0    -6.82589  -3.6039   -2.12574 
 H                    0    -6.22681  -3.40371  -0.44808 
 H                    0    -5.78998  -2.22516  -1.71285 
 C                    0    -11.06715  -1.71863  -2.48777 
 O                    0    -10.82175  -1.62315  -3.68823 
 N                    0    -11.07681  -0.67701  -1.62987 
 H                    0    -11.32013  -0.85121  -0.65885 
 C                    -1   -10.77113   0.70845  -1.98687 
 H                    0    -10.48361   0.71748  -3.03876 
 C                    0    -11.95159   1.6504   -1.70904 
 H                    0    -11.88785   1.99792  -0.67243 
 H                    0    -11.84707   2.52702  -2.35561 
 C                    0    -13.32996   1.02404  -1.93193 
 H                    0    -13.3903   0.6455   -2.95486 
 H                    0    -13.50845   0.21791  -1.2137 
 C                    0    -14.33623   2.13394  -1.68358 
 O                    0    -14.72518   2.40806  -0.54148 
 N                    0    -14.67401   2.82252  -2.78576 
 H                    0    -14.17321   2.61069  -3.66916 
 H                    0    -15.08049   3.73597  -2.64199 
 C                    0    -9.61518   1.15344  -1.06975 
 O                    0    -9.74032   1.03541   0.1584 
 N                    0    -8.5279    1.70029  -1.63167 
 H                    0    -8.42171   1.65793  -2.64693 
 C                    -1   -7.39666   2.16912  -0.83209 
 H                    0    -7.58114   1.85604   0.19659 
 C                    0    -6.08546   1.56873  -1.32525 
 H                    0    -5.25915   1.89736  -0.68525 
 H                    0    -5.86691   1.8714   -2.35252 
 H                    0    -6.14212   0.4783   -1.27442 
 C                    0    -7.35452   3.707    -0.91291 
 O                    0    -6.88549   4.27724  -1.90052 
 N                    0    -7.85764   4.37796   0.13542 
 H                    0    -8.11135   3.86513   0.97486 
 C                    -1   -7.90381   5.83472   0.19699 
 H                    0    -8.14289   6.19555  -0.80817 
 C                    0    -9.00622   6.27643   1.17116 
 H                    0    -8.81099   7.31277   1.46769 
 H                    0    -8.93508   5.6663    2.07745 
 C                    0    -10.36699   6.17387   0.52469 
 C                    0    -11.12638   5.00026   0.54603 
 H                    0    -10.76302   4.13695   1.09976 
 C                    0    -12.32321   4.90055  -0.16049 
 H                    0    -12.91905   3.99243  -0.15444 
 C                    0    -12.76872   5.98168  -0.92015 
 O                    0    -13.91548   5.85026  -1.64381 
 H                    0    -13.84252   6.3966   -2.44156 
 C                    0    -12.04849   7.17638  -0.9086 
 H                    0    -12.41146   8.02669  -1.47777 
 C                    0    -10.85747   7.25961  -0.20253 
 H                    0    -10.29071   8.18855  -0.22577 
 C                    0    -6.51351   6.37928   0.61329 
 O                    0    -6.08734   6.18594   1.7584 
 N                    0    -5.83868   7.07402  -0.326 
 H                    0    -6.18331   7.13163  -1.27886 
 C                    -1   -4.55418   7.72546  -0.10983 
 H                    0    -4.64994   8.38859   0.75734 
 C                    0    -3.42092   6.71852   0.22158 
 H                    0    -2.52486   7.28151   0.50681 
 H                    0    -3.73241   6.18656   1.12446 
 C                    0    -3.10601   5.75088  -0.87751 
 C                    0    -3.81291   4.61147  -1.15901 
 H                    0    -4.69346   4.22438  -0.67162 
 N                    0    -3.28041   3.96364  -2.24124 
 H                    0    -3.61993   3.11376  -2.68894 
 C                    0    -2.20333   4.67862  -2.69313 
 C                    0    -1.34607   4.40655  -3.76546 
 H                    0    -1.50479   3.52378  -4.3791 
 C                    0    -0.32808   5.31345  -4.00725 
 H                    0     0.35663   5.14223  -4.83384 
 C                    0    -0.16902   6.46186  -3.20362 
 H                    0     0.6298    7.1625   -3.42891 
 C                    0    -1.02238   6.72759  -2.14576 
 H                    0    -0.89363   7.6313   -1.55558 
 C                    0    -2.06084   5.82187  -1.8677 
 C                    0    -4.21407   8.59437  -1.33645 
 O                    0    -4.93563   8.59844  -2.32773 
 N                    0    -3.09137   9.33065  -1.19088 
 H                    0    -2.49288   9.21576  -0.37984 
 C                    -1   -2.54787   10.26155  -2.17059 
 H                    0    -2.55488   9.80222  -3.16452 
 C                    0    -3.34604   11.58092  -2.19563 
 H                    0    -4.41218   11.32667  -2.29137 
 H                    0    -3.04345   12.15881  -3.07374 
 O                    0    -3.09038   12.40083  -1.07965 
 H                    0    -3.22558   11.92047  -0.24734 
 C                    0    -1.08136   10.58177  -1.713 
 O                    0    -0.63426   10.03941  -0.68631 
 N                    0    -0.40453   11.46798  -2.44329 
 H                    0    -0.84633   11.94217  -3.28284 
 C                    -1    0.82455   12.13447  -1.98709 
 H                    0     1.66151   11.42106  -1.97902 
 C                    0     1.13486   13.32842  -2.88688 
 H                    0     2.02617   13.81693  -2.46985 
 H                    0     1.41317   12.95964  -3.88165 
 C                    0    -0.01919   14.34215  -3.02291 
 H                    0     0.37132   15.36247  -3.07377 
 H                    0    -0.66498   14.28192  -2.13484 
 C                    0    -0.91833   14.12072  -4.27748 
 O                    0    -1.2654    12.91279  -4.5013 
 O                    0    -1.21928   15.12093  -4.93753 
 H                    0     0.67241   12.463   -0.94902 
 H                    0    -0.23176   12.21365   2.46146 
 C                    -1   -0.19399   11.3161   3.08504 
 H                    0    -0.51118   11.56917   4.10116 
 C                    0    -1.08106   10.20695   2.48621 
 H                    0    -0.71585   9.98888   1.47493 
 H                    0    -0.98134   9.29879   3.08663 
 C                    0    -2.54366   10.56218   2.31338 
 O                    0    -2.92641   11.60471   1.79197 
 N                    0    -3.40363   9.5967    2.72612 
 H                    0    -3.09192   8.74102   3.17841 
 H                    0    -4.39241   9.77678   2.63735 
 C                    0     1.21491   10.68513   3.16559 
 O                    0     1.40506   9.68409   3.85806 
 N                    0     2.19802   11.23458   2.40013 
 H                    0     1.91042   11.97907   1.77996 
 C                    -1    3.49471   10.60032   2.08629 
 H                    0     3.55379   9.67975   2.67185 
 C                    0     3.56615   10.34837   0.57739 
 H                    0     3.48349   11.31709   0.06219 
 H                    0     2.6807    9.77371   0.27734 
 C                    0     4.83322   9.64225   0.07613 
 H                    0     5.70765   10.18644   0.46645 
 C                    0     4.92277   8.18907   0.55155 
 H                    0     4.08228   7.60801   0.15222 
 H                    0     5.84503   7.72218   0.17764 
 H                    0     4.91094   8.09968   1.64191 
 C                    0     4.87534   9.69811  -1.45402 
 H                    0     3.97408   9.23745  -1.8768 
 H                    0     4.92369   10.72994  -1.82055 
 H                    0     5.7389    9.14895  -1.84703 
 H                    0     4.3089    11.25812   2.41378 
 O                    0    -0.52593  -0.10181  -4.58708 
 H                    0    -0.28428   0.69465  -4.09765 
 H                    0    -1.52591  -0.20726  -4.399 
 O                    0     6.27915  -0.31073  -4.17986 
 H                    0     5.8284   -1.11126  -3.86666 
 H                    0     5.96752   0.41229  -3.59503 
 O                    0     0.14492  -2.75904  -4.87189 
 H                    0     0.05735  -1.80407  -4.64238 
 H                    0    -0.75689  -2.98654  -5.14768 
 O                    0     6.58425   3.46428  -6.84937 
 H                    0     7.18985   3.8854   -6.22159 
 H                    0     6.37062   2.56612  -6.51062 
 O                    0     5.79517   0.86864  -6.52173 
 H                    0     5.86686   0.35955  -5.67541 
 H                    0     6.68754   0.73452  -6.94638 
 O                    0     3.17914   1.98515  -6.05719 
 H                    0     4.05969   1.65503  -6.30316 
 H                    0     3.21764   2.9461   -6.24783 
 O                    0     4.03141   4.47519  -6.77554 
 H                    0     4.98408   4.24338  -6.79892 
 H                    0     4.01462   5.43654  -6.96367 
 O                    0     8.056    -3.13704  -2.84571 
 H                    0     7.0999   -2.97333  -2.74215 
 H                    0     8.24176  -2.88463  -3.77523 
 O                    0     9.83109  -3.08974  -0.75035 
 H                    0     9.19785  -2.98101  -1.49613 
 H                    0     9.35469  -2.77089   0.03544 
 O                    0     1.26732   0.18557  -6.75567 
 H                    0     0.53289   0.19712  -6.10795 
 H                    0     1.89978   0.90006  -6.5033 
 O                    0     1.56591  -2.47129  -7.21189 
 H                    0     1.72018  -1.51313  -7.02561 
 H                    0     0.93639  -2.7074   -6.49281 
 O                    0     4.87403   0.94543  -9.17017 
 H                    0     4.99285   0.76262  -8.22003 
 H                    0     4.28828   0.23374  -9.52107 
 O                    0     8.50746  -3.42241  -5.54297 
 H                    0     8.96453  -4.26271  -5.41215 
 H                    0     7.63479  -3.64746  -5.91861 
 O                    0     7.74278   3.53237  -9.39458 
 H                    0     8.6943    3.7463   -9.36493 
 H                    0     7.43508   3.4472   -8.46547 
 O                    0     8.19578   0.71187  -7.59953 
 H                    0     8.68843  -0.07387  -7.25887 
 H                    0     8.02327   0.62105  -8.5829 
 O                    0     0.7402   -0.62943  -9.29959 
 H                    0     0.59439  -1.39982  -8.72535 
 H                    0     0.8238    0.06674  -8.61216 
 O                    0     4.55716   6.98225  -7.85012 
 H                    0     5.12952   6.47763  -8.50124 
 H                    0     3.80611   7.26092  -8.38995 
 O                    0     8.18251  -5.949     0.74005 
 H                    0     7.76414  -6.03514  -0.13393 
 H                    0     7.49219  -6.28834   1.35077 
 O                    0     9.686    -1.01884  -6.27755 
 H                    0     10.64747  -0.88783  -6.32797 
 H                    0     9.48579  -1.95316  -6.11299 
 O                    0     12.03336   0.48841  -6.08012 
 H                    0     11.49003   1.07517  -6.66656 
 H                    0     11.67923   0.6649   -5.19796 
 O                    0     6.1966   -6.56424   2.55338 
 H                    0     5.24922  -6.62784   2.76709 
 H                    0     6.5531   -5.90895   3.18292 
 O                    0     10.432    2.14875  -7.46295 
 H                    0     9.52356   1.74998  -7.43118 
 H                    0     10.5454   2.41642  -8.39488 
 O                    0     3.31464  -1.07714  -10.06617 
 H                    0     2.38182  -0.87723  -9.80412 
 H                    0     3.28578  -1.18624  -11.02545 
 O                    0     3.78251   3.55379  -9.42592 
 H                    0     4.16723   2.65561  -9.40715 
 H                    0     3.68259   3.79573  -8.48546 
 O                    0     12.64527   4.47604  -4.07586 
 H                    0     13.099    3.75696  -4.57405 
 H                    0     11.90947   4.07752  -3.58217 
 O                    0     12.24192   4.28426  -7.53965 
 H                    0     11.5942   3.74596  -7.05286 
 H                    0     12.26212   5.15224  -7.04973 
 O                    0     10.554    3.86325  -9.58237 
 H                    0     11.22157   4.25797  -8.96821 
 H                    0     10.9242   3.9149   -10.46963 
 O                    0     12.30605  -2.20302  -1.80902 
 H                    0     11.47176  -2.38881  -1.34113 
 H                    0     12.79149  -3.03752  -1.7608 
 O                    0     7.45939   0.87937  -10.10581 
 H                    0     6.49607   0.80708  -9.92174 
 H                    0     7.59298   1.85144  -10.08596 
 O                    0     5.66674   5.48407  -9.73487 
 H                    0     6.49148   4.97064  -9.66691 
 H                    0     4.9713    4.78151  -9.77941 
 O                    0     12.21938   6.42101  -5.92792 
 H                    0     11.28068   6.64917  -5.86977 
 H                    0     12.37717   5.8299   -5.15427 
 O                    0     13.83725   2.71285  -5.80825 
 H                    0     13.41068   1.84542  -5.93543 
 H                    0     13.55992   3.23694  -6.5837 
 O                    0     5.5251    9.43919  -6.83332 
 H                    0     5.2284    8.54772  -7.11621 
 H                    0     4.71609   9.90798  -6.60036 
 C                    0    -2.85021  -2.05095   0.39528 
 O                    0    -3.85359  -2.58588   0.91107 
 C                    0    -2.788    -0.64634   0.13496 
 C                    0    -1.71302  -0.09186  -0.48769 
 C                    0    -0.44696  -0.8841   -0.74405 
 C                    0    -0.39502  -2.17786   0.06537 
 C                    0    -1.70683  -2.93165  -0.02533 
 C                    0    -1.78023   1.30243  -1.01954 
 C                    0    -0.46091   2.07959  -0.98143 
 C                    0     0.71278   1.21819  -1.44447 
 C                    0     0.80085  -0.00808  -0.50937 
 C                    0     2.03278   1.96724  -1.51615 
 C                    0     3.22602   1.03686  -1.80658 
 C                    0     3.35703   0.02222  -0.67433 
 C                    0     2.0941   -0.83991  -0.60414 
 C                    0     2.19687   3.08937  -2.55833 
 C                    0     3.73704   3.21904  -2.74232 
 C                    0     4.3257    2.10309  -1.86482 
 C                    0     3.10264   0.30882  -3.1594 
 O                    0     5.6002    1.63885  -2.33742 
 H                    0    -3.68319  -0.06664   0.35145 
 H                    0    -0.46852  -1.14337  -1.81788 
 H                    0    -0.17794  -1.94173   1.11666 
 H                    0     0.41739  -2.81317  -0.29647 
 H                    0    -1.89625  -3.2374   -1.06517 
 H                    0    -1.70572  -3.83531   0.59283 
 H                    0    -2.57407   1.86286  -0.5162 
 H                    0    -2.12351   1.20729  -2.06682 
 H                    0    -0.26397   2.42795   0.03959 
 H                    0    -0.56065   2.97449  -1.60122 
 H                    0     0.4826    0.8443   -2.44991 
 H                    0     0.74725   0.37545   0.52169 
 H                    0     2.21115   2.40834  -0.52186 
 H                    0     3.50598   0.54787   0.27879 
 H                    0     4.23401  -0.62676  -0.82238 
 H                    0     2.04927  -1.49613  -1.48488 
 H                    0     2.16004  -1.50142   0.26859 
 H                    0     1.72475   4.02361  -2.24649 
 H                    0     1.72446   2.80293  -3.50553 
 H                    0     4.11249   4.19846  -2.43456 
 H                    0     4.02139   3.07538  -3.78919 
 H                    0     4.4794    2.4848   -0.84861 
 H                    0     3.22468   0.97834  -4.01489 
 H                    0     3.86687  -0.47182  -3.22757 
 H                    0     2.13359  -0.18491  -3.27971 
 H                    0     5.98837   1.14447  -1.60427 
 
 Stoichiometry    C295H536N56O98S6(2-)
 Framework group  C1[X(C295H536N56O98S6)]
 Deg. of freedom  2967
 Full point group                 C1      NOp   1
 Largest Abelian subgroup         C1      NOp   1
 Largest concise Abelian subgroup C1      NOp   1
                         Standard orientation:                         
 ---------------------------------------------------------------------
 Center     Atomic      Atomic             Coordinates (Angstroms)
 Number     Number       Type             X           Y           Z
 ---------------------------------------------------------------------
      1          1           0       -4.852359   -9.280921    6.696595
      2          6           0       -4.599256   -8.787038    5.749267
      3          1           0       -4.354984   -9.572728    5.030204
      4          6           0       -5.795244   -7.964717    5.246556
      5          1           0       -6.627257   -8.654476    5.062715
      6          1           0       -6.144681   -7.270540    6.020396
      7          6           0       -5.441963   -7.197818    3.998957
      8          6           0       -5.153587   -7.861807    2.802857
      9          1           0       -5.271941   -8.941519    2.740960
     10          6           0       -4.709911   -7.164394    1.688153
     11          1           0       -4.483893   -7.675182    0.756309
     12          6           0       -4.547310   -5.782146    1.766264
     13          8           0       -4.047029   -5.134117    0.678016
     14          1           0       -3.988331   -4.144210    0.829685
     15          6           0       -4.867318   -5.095501    2.932928
     16          1           0       -4.780441   -4.015839    2.983122
     17          6           0       -5.308117   -5.812610    4.036353
     18          1           0       -5.553791   -5.273795    4.946981
     19          6           0       -3.287998   -8.009965    5.955989
     20          8           0       -2.230278   -8.414987    5.461731
     21          7           0       -3.338291   -6.906483    6.732294
     22          1           0       -4.228696   -6.627717    7.119127
     23          6           0       -2.159087   -6.142097    7.142933
     24          1           0       -1.451756   -6.153730    6.308787
     25          6           0       -2.498044   -4.701241    7.536018
     26          1           0       -3.245056   -4.738085    8.343522
     27          6           0       -1.238283   -4.041371    8.105225
     28          1           0       -1.422303   -2.987548    8.338010
     29          1           0       -0.412761   -4.082808    7.390158
     30          1           0       -0.892354   -4.537251    9.018242
     31          6           0       -3.111215   -3.887235    6.380903
     32          1           0       -4.137803   -4.225704    6.200558
     33          1           0       -3.197551   -2.842984    6.702221
     34          6           0       -2.332336   -3.947520    5.068540
     35          1           0       -2.755058   -3.242907    4.346845
     36          1           0       -2.379687   -4.948988    4.626986
     37          1           0       -1.278400   -3.676465    5.206964
     38          1           0       -1.671491   -6.653343    7.983710
     39          1           0       -0.088712  -10.194958    6.080528
     40          6           0        0.237826  -10.699673    5.163998
     41          1           0        0.937075  -11.497587    5.421167
     42          6           0       -0.993062  -11.232357    4.413587
     43          1           0       -0.656162  -11.898233    3.605551
     44          1           0       -1.504823  -10.381367    3.950334
     45          6           0       -2.017647  -11.959131    5.288501
     46          1           0       -2.376895  -11.229548    6.027719
     47          6           0       -3.208791  -12.394358    4.431172
     48          1           0       -4.003473  -12.834680    5.043376
     49          1           0       -2.901437  -13.146420    3.692610
     50          1           0       -3.633587  -11.545800    3.881549
     51          6           0       -1.415235  -13.152745    6.031586
     52          1           0       -2.176101  -13.669602    6.626869
     53          1           0       -0.995232  -13.878139    5.322560
     54          1           0       -0.614003  -12.846087    6.712219
     55          6           0        0.991163   -9.707627    4.259899
     56          8           0        1.938296  -10.054530    3.560503
     57          7           0        0.522183   -8.421434    4.249670
     58          1           0       -0.352161   -8.225722    4.737730
     59          6           0        1.171747   -7.346907    3.484770
     60          1           0        1.423292   -7.705525    2.483304
     61          6           0        0.209433   -6.138537    3.403644
     62          1           0       -0.097991   -5.907528    4.433888
     63          6           0        0.877057   -4.886031    2.834085
     64          1           0        1.755456   -4.580998    3.407690
     65          1           0        1.198138   -5.050943    1.800800
     66          1           0        0.162999   -4.055439    2.841399
     67          6           0       -1.045012   -6.487579    2.594392
     68          1           0       -1.726114   -5.631543    2.562605
     69          1           0       -1.602554   -7.328859    3.018353
     70          1           0       -0.778736   -6.734258    1.558036
     71          6           0        2.525314   -6.968081    4.126476
     72          8           0        3.464253   -6.622915    3.406952
     73          7           0        2.578660   -6.980118    5.475745
     74          1           0        1.796649   -7.393418    5.963881
     75          6           0        3.810913   -6.716583    6.224428
     76          1           0        4.237849   -5.795527    5.809608
     77          6           0        3.639939   -6.560540    7.727361
     78          1           0        2.958994   -5.744735    7.986374
     79          1           0        3.288560   -7.497678    8.171916
     80          6           0        5.056637   -6.249842    8.237558
     81          8           0        5.380410   -5.053942    8.418301
     82          8           0        5.842894   -7.243690    8.322113
     83          1           0        4.524887   -7.524703    6.025119
     84          1           0        4.024271   -9.846399    2.379402
     85          6           0        4.989623   -9.803390    1.866327
     86          1           0        4.928795   -9.120164    1.010745
     87          1           0        5.735960   -9.388292    2.546319
     88          1           0        5.298278  -10.805458    1.549103
     89          1           0       -2.790950  -12.707909    0.878418
     90          6           0       -3.188217  -12.031074    0.114114
     91          1           0       -4.050263  -11.507922    0.546614
     92          6           0       -2.126922  -11.026968   -0.343182
     93          1           0       -1.268863  -11.604523   -0.727673
     94          6           0       -2.657721  -10.144619   -1.477561
     95          1           0       -3.534667   -9.575353   -1.145684
     96          1           0       -2.965270  -10.746558   -2.340188
     97          1           0       -1.918489   -9.414074   -1.825487
     98          6           0       -1.628571  -10.194222    0.847447
     99          1           0       -2.380035   -9.436273    1.107817
    100          1           0       -1.533451  -10.844874    1.722444
    101          6           0       -0.283094   -9.512513    0.617764
    102          1           0        0.038350   -8.959780    1.502020
    103          1           0        0.488901  -10.275610    0.432561
    104          1           0       -0.324062   -8.800025   -0.219014
    105          1           0       -3.553805  -12.635928   -0.722980
    106          1           0       -9.042299  -11.891238   -1.303548
    107          6           0       -9.581415  -11.923031   -2.256659
    108          1           0      -10.518208  -11.372580   -2.122798
    109          6           0       -8.739255  -11.300113   -3.375280
    110          1           0       -7.840412  -11.907009   -3.540015
    111          1           0       -9.308053  -11.319338   -4.313249
    112          6           0       -8.346388   -9.886060   -3.029439
    113          6           0       -7.085708   -9.585296   -2.519676
    114          1           0       -6.336644  -10.371467   -2.441407
    115          6           0       -6.769425   -8.303457   -2.079124
    116          1           0       -5.789510   -8.089000   -1.664456
    117          6           0       -7.726793   -7.289977   -2.146813
    118          8           0       -7.488456   -6.032033   -1.701711
    119          1           0       -6.528013   -5.882840   -1.700659
    120          6           0       -8.988573   -7.569599   -2.673402
    121          1           0       -9.719168   -6.770663   -2.738281
    122          6           0       -9.283656   -8.851203   -3.109076
    123          1           0      -10.272124   -9.056512   -3.514603
    124          1           0       -9.831966  -12.966925   -2.477923
    125          1           0       -9.806487   -4.001469   -6.889919
    126          6           0       -9.322020   -3.346716   -6.157252
    127          1           0       -9.964184   -3.265242   -5.272809
    128          6           0       -7.945552   -3.917153   -5.769170
    129          1           0       -7.381771   -4.058054   -6.699910
    130          6           0       -7.171938   -2.929407   -4.890525
    131          1           0       -6.239964   -3.375575   -4.520394
    132          1           0       -6.906552   -2.029198   -5.452394
    133          1           0       -7.774236   -2.613433   -4.028927
    134          6           0       -8.098368   -5.265529   -5.068408
    135          1           0       -8.679098   -5.975727   -5.669247
    136          1           0       -7.121488   -5.719833   -4.856991
    137          1           0       -8.608110   -5.141159   -4.106820
    138          6           0       -9.118498   -1.968180   -6.810823
    139          8           0       -8.496505   -1.861756   -7.865668
    140          7           0       -9.600885   -0.908794   -6.115902
    141          1           0      -10.037320   -1.065880   -5.209497
    142          6           0       -9.352917    0.479681   -6.482779
    143          1           0       -9.107955    0.494806   -7.548010
    144          6           0      -10.550080    1.383305   -6.155665
    145          1           0      -10.642231    1.449416   -5.069340
    146          1           0      -10.305214    2.393925   -6.509407
    147          6           0      -11.913996    0.959509   -6.693362
    148          1           0      -12.081586   -0.098299   -6.451863
    149          1           0      -11.982060    1.071256   -7.779868
    150          6           0      -13.047452    1.780949   -6.020711
    151          8           0      -12.929751    1.903209   -4.756191
    152          8           0      -13.951725    2.242705   -6.730128
    153          6           0       -8.160159    0.972108   -5.637340
    154          8           0       -8.290061    1.128531   -4.420548
    155          7           0       -6.983067    1.203782   -6.255891
    156          1           0       -6.867353    0.972076   -7.232647
    157          6           0       -5.804348    1.571675   -5.483113
    158          1           0       -6.170395    2.160911   -4.642740
    159          6           0       -5.120347    0.302869   -4.939243
    160          1           0       -4.952934   -0.393205   -5.766026
    161          1           0       -5.819511   -0.183106   -4.246795
    162          6           0       -3.792137    0.521965   -4.210486
    163          8           0       -3.520735    1.653013   -3.757033
    164          8           0       -3.032313   -0.494976   -4.104786
    165          6           0       -4.820249    2.380075   -6.332289
    166          8           0       -4.220510    1.813644   -7.248405
    167          7           0       -4.607147    3.674023   -6.014241
    168          6           0       -3.699624    4.479203   -6.833698
    169          1           0       -2.661087    4.254364   -6.558841
    170          1           0       -3.834739    4.227320   -7.887671
    171          6           0       -4.075208    5.921896   -6.492388
    172          1           0       -3.229211    6.606162   -6.593825
    173          1           0       -4.882035    6.256814   -7.150598
    174          6           0       -4.580870    5.824834   -5.050471
    175          1           0       -5.219418    6.657602   -4.747730
    176          1           0       -3.742286    5.781095   -4.351697
    177          6           0       -5.333720    4.483761   -5.033744
    178          1           0       -5.303155    4.029818   -4.039516
    179          6           0       -6.801125    4.684468   -5.497573
    180          8           0       -7.098967    4.651587   -6.685686
    181          7           0       -7.691687    4.947075   -4.514120
    182          1           0       -7.415788    4.799689   -3.548638
    183          6           0       -9.098505    5.168791   -4.815741
    184          1           0       -9.524484    4.267589   -5.275221
    185          6           0       -9.924165    5.544928   -3.584900
    186          1           0       -9.478170    6.411142   -3.081287
    187          1           0       -9.930015    4.716883   -2.863916
    188          6           0      -11.332383    5.865191   -4.031991
    189          6           0      -12.170509    4.846024   -4.487066
    190          1           0      -11.858112    3.804821   -4.462450
    191          6           0      -13.434395    5.126651   -5.002351
    192          1           0      -14.024787    4.307315   -5.408778
    193          6           0      -13.891692    6.442874   -5.030385
    194          1           0      -14.876994    6.670934   -5.428492
    195          6           0      -13.069774    7.471695   -4.565401
    196          1           0      -13.413454    8.502923   -4.595959
    197          6           0      -11.791629    7.182931   -4.089709
    198          1           0      -11.145291    7.988772   -3.749474
    199          1           0       -9.172749    5.962386   -5.567067
    200          1           0       -0.374661   -6.779269   -9.324561
    201          6           0       -0.470945   -5.810390   -8.813476
    202          1           0        0.006179   -5.059072   -9.443772
    203          6           0       -1.958372   -5.479931   -8.607304
    204          1           0       -2.446273   -6.235563   -7.975752
    205          1           0       -2.447730   -5.553064   -9.584623
    206          6           0       -2.173016   -4.100900   -8.030246
    207          6           0       -1.912702   -2.978763   -8.820562
    208          1           0       -1.564530   -3.114302   -9.842774
    209          6           0       -2.127447   -1.695679   -8.328958
    210          1           0       -1.933262   -0.834213   -8.958261
    211          6           0       -2.597111   -1.518522   -7.031165
    212          1           0       -2.789295   -0.519931   -6.655632
    213          6           0       -2.857805   -2.629181   -6.229855
    214          1           0       -3.244093   -2.454279   -5.229103
    215          6           0       -2.640836   -3.915465   -6.727532
    216          1           0       -2.873985   -4.780468   -6.106433
    217          6           0        0.346467   -5.910653   -7.531989
    218          8           0        1.430576   -5.346446   -7.408958
    219          7           0       -0.076734   -6.770546   -6.544246
    220          1           0       -1.058158   -7.015529   -6.533313
    221          6           0        0.634924   -6.869090   -5.266687
    222          1           0        0.687534   -5.889207   -4.778685
    223          6           0       -0.048978   -7.882459   -4.330808
    224          1           0       -0.252050   -8.800093   -4.902442
    225          1           0        0.691599   -8.120826   -3.559831
    226          6           0       -1.293869   -7.367205   -3.657458
    227          6           0       -2.567057   -7.507810   -4.216334
    228          1           0       -2.695191   -8.047250   -5.153930
    229          6           0       -3.694080   -6.996432   -3.584133
    230          1           0       -4.683346   -7.107481   -4.016120
    231          6           0       -3.560117   -6.342133   -2.356408
    232          8           0       -4.665636   -5.853579   -1.762320
    233          1           0       -4.452790   -5.521161   -0.853956
    234          6           0       -2.295414   -6.220402   -1.768223
    235          1           0       -2.199532   -5.742930   -0.799214
    236          6           0       -1.180999   -6.716116   -2.427164
    237          1           0       -0.199242   -6.594022   -1.971757
    238          6           0        2.091778   -7.316607   -5.443026
    239          8           0        2.899488   -7.071500   -4.545090
    240          7           0        2.423470   -8.102417   -6.503226
    241          1           0        1.729794   -8.220010   -7.230266
    242          6           0        3.813283   -8.496618   -6.750118
    243          1           0        4.306940   -8.226403   -5.807040
    244          6           0        4.016944   -9.996588   -6.938434
    245          1           0        3.162771  -10.447587   -7.457192
    246          1           0        4.899390  -10.139421   -7.568357
    247          6           0        4.272011  -10.691145   -5.584385
    248          1           0        4.477537  -11.756038   -5.741466
    249          1           0        5.178394  -10.245236   -5.153479
    250          6           0        3.121045  -10.531556   -4.582532
    251          1           0        2.762473   -9.502284   -4.576632
    252          1           0        2.293155  -11.194072   -4.866332
    253          7           0        3.555304  -10.833666   -3.210607
    254          1           0        4.494731  -11.177476   -3.071489
    255          6           0        2.842269  -10.522852   -2.123929
    256          7           0        1.548544  -10.220031   -2.241676
    257          1           0        1.047051  -10.387754   -3.099505
    258          1           0        1.010034   -9.891618   -1.448659
    259          7           0        3.409307  -10.531506   -0.913172
[...]
 8,10.051971\H,0,-0.158921,-1.434662,10.551551\H,0,-9.775701,0.435628,7
 .855056\C,-1,-9.070364,0.122759,8.633068\H,0,-9.537736,0.289639,9.6086
 67\C,0,-8.688192,-1.348967,8.454076\H,0,-9.578649,-1.976173,8.57505\H,
 0,-7.984381,-1.648109,9.241832\C,0,-8.07789,-1.639151,7.079881\H,0,-7.
 156675,-1.061521,6.933411\H,0,-8.787378,-1.358857,6.292057\S,0,-7.7057
 82,-3.42821,6.918721\C,0,-8.021425,-3.718998,5.154475\H,0,-8.957585,-3
 .241535,4.850848\H,0,-7.204066,-3.365414,4.519894\H,0,-8.136032,-4.797
 033,5.016332\H,0,-8.189641,0.773303,8.568494\H,0,-3.882902,2.267951,8.
 373343\C,-1,-2.938521,1.805936,8.669718\H,0,-2.857621,1.859355,9.76278
 3\C,0,-2.891798,0.3337,8.221317\H,0,-1.955571,-0.136393,8.54946\H,0,-3
 .696891,-0.202668,8.73954\C,0,-3.050785,0.150878,6.727604\C,0,-1.99766
 3,-0.302422,5.93004\H,0,-1.026982,-0.5001,6.382573\C,0,-2.173477,-0.47
 4195,4.556138\H,0,-1.346988,-0.831526,3.94845\C,0,-3.395688,-0.179243,
 3.961128\H,0,-3.53529,-0.289569,2.890153\C,0,-4.44174,0.300517,4.74607
 1\H,0,-5.378604,0.586855,4.277995\C,0,-4.269437,0.45721,6.11497\H,0,-5
 .080612,0.864356,6.712857\C,0,-1.843158,2.677612,8.052268\O,0,-2.09357
 6,3.721239,7.465692\N,0,-0.577169,2.223236,8.210661\H,0,-0.39743,1.383
 572,8.741762\C,-1,0.582936,2.867328,7.631043\H,0,0.233564,3.596612,6.8
 9703\C,0,1.421596,3.586148,8.692679\H,0,0.875637,4.496891,8.952765\H,0
 ,1.471084,2.957455,9.589509\C,0,2.837934,3.913932,8.229349\H,0,3.40554
 2,2.988568,8.070025\H,0,2.812725,4.438051,7.266489\C,0,3.600371,4.7606
 2,9.237225\H,0,4.674414,4.690607,9.035186\H,0,3.439807,4.37792,10.2556
 29\N,0,3.1522,6.142956,9.150275\H,0,2.174468,6.335555,8.821693\C,0,3.9
 12565,7.19194,9.403914\N,0,5.190723,7.045478,9.814136\H,0,5.710367,6.1
 68302,9.663083\H,0,5.76172,7.873364,9.865011\N,0,3.363594,8.416307,9.3
 07229\H,0,2.416324,8.531345,8.873911\H,0,3.977815,9.212513,9.255134\C,
 0,1.406096,1.783913,6.92068\O,0,1.553829,0.660609,7.433934\N,0,1.96660
 2,2.150471,5.756782\H,0,1.831655,3.11489,5.439907\C,-1,2.96819,1.35626
 ,5.06903\H,0,3.11705,0.449175,5.658872\C,0,2.532905,0.916533,3.653948\
 H,0,3.385751,0.365707,3.233465\C,0,1.342781,-0.035606,3.765808\H,0,0.4
 79061,0.488466,4.188556\H,0,1.577034,-0.889927,4.409499\H,0,1.058236,-
 0.414381,2.775866\C,0,2.202602,2.092473,2.738014\H,0,1.400486,2.71198,
 3.155189\H,0,1.872708,1.734433,1.757135\H,0,3.072333,2.731989,2.576957
 \C,0,4.291099,2.147821,5.061639\O,0,4.280848,3.373245,4.931134\N,0,5.4
 2776,1.437968,5.208343\H,0,5.35953,0.427723,5.295117\C,-1,6.745138,2.0
 70169,5.198106\H,0,6.584056,3.087244,4.83499\C,0,7.390357,2.186781,6.5
 86376\H,0,8.367309,2.666918,6.471273\H,0,7.58423,1.190837,7.00582\C,0,
 6.534273,3.034296,7.535942\H,0,5.7548,2.415073,8.001077\H,0,5.995072,3
 .802049,6.970343\C,0,7.336621,3.730857,8.673868\O,0,8.454113,3.269799,
 8.94235\O,0,6.744135,4.71387,9.219365\C,0,7.63481,1.361119,4.156008\O,
 0,7.534153,0.142538,3.948805\N,0,8.504092,2.146895,3.47629\H,0,8.60062
 8,3.128682,3.744925\C,-1,9.252661,1.684345,2.30606\H,0,9.85688,0.81315
 1,2.596757\C,0,8.296749,1.252719,1.177994\H,0,7.708953,0.407875,1.5492
 06\H,0,8.885451,0.858014,0.33875\C,0,7.362469,2.378105,0.704656\H,0,7.
 819104,3.356535,0.882001\H,0,7.185381,2.316665,-0.373575\S,0,5.753951,
 2.364689,1.580208\C,0,5.62427,4.10369,2.078349\H,0,6.515942,4.396696,2
 .638559\H,0,5.488494,4.762365,1.216858\H,0,4.760524,4.184532,2.738966\
 C,0,10.269144,2.791417,1.885865\O,0,10.791111,3.501364,2.72869\N,0,10.
 590275,2.875616,0.556223\H,0,10.093484,2.334078,-0.134393\C,-1,11.6418
 67,3.749183,0.031671\H,0,11.890567,4.439036,0.844366\C,0,12.902076,2.9
 54531,-0.372473\H,0,12.602055,2.271515,-1.178501\C,0,13.984807,3.89250
 8,-0.914897\H,0,14.23626,4.66448,-0.175982\H,0,14.898068,3.327355,-1.1
 28357\H,0,13.67871,4.380916,-1.845495\C,0,13.419915,2.12765,0.805307\H
 ,0,13.681928,2.771446,1.652802\H,0,12.671803,1.407656,1.151173\H,0,14.
 314384,1.569648,0.507552\C,0,11.094598,4.508324,-1.195563\O,0,10.66547
 9,3.863852,-2.159317\N,0,11.18121,5.853308,-1.180055\H,0,11.352649,6.2
 80941,-0.282581\C,-1,10.697383,6.724369,-2.259985\H,0,11.055423,6.3037
 45,-3.201239\C,0,9.165298,6.864071,-2.280244\H,0,8.740177,5.871297,-2.
 085687\H,0,8.850619,7.517157,-1.460064\C,0,8.635508,7.390918,-3.575068
 \C,0,7.93933,8.551553,-3.791604\H,0,7.65022,9.31442,-3.081322\N,0,7.61
 0507,8.679396,-5.117661\H,0,6.893451,9.278991,-5.5321\C,0,8.072017,7.5
 78235,-5.786539\C,0,7.980866,7.263263,-7.14479\H,0,7.491037,7.933768,-
 7.843012\C,0,8.53759,6.068552,-7.556409\H,0,8.493161,5.79697,-8.603901
 \C,0,9.150447,5.190468,-6.638394\H,0,9.538216,4.240842,-6.991541\C,0,9
 .245957,5.508116,-5.290588\H,0,9.720748,4.826653,-4.587787\C,0,8.72042
 1,6.735861,-4.851974\H,0,11.180061,7.697097,-2.138474\H,0,10.281866,6.
 344576,3.564669\C,-1,9.407797,6.995235,3.649212\H,0,9.664792,7.850388,
 4.284481\C,0,8.959616,7.501367,2.277416\H,0,8.026798,8.067117,2.35258\
 H,0,9.722436,8.153751,1.843698\S,0,8.67614,6.063847,1.180742\H,0,7.829
 923,6.663968,0.330795\C,0,8.293081,6.16271,4.310943\O,0,8.384914,4.944
 235,4.449134\N,0,7.208289,6.86537,4.697475\H,0,7.11086,7.839407,4.4399
 19\C,-1,5.991151,6.272653,5.222014\H,0,6.047209,5.193192,5.07045\C,0,5
 .798241,6.57601,6.705157\H,0,5.769362,7.660075,6.865644\H,0,6.58815,6.
 129413,7.31356\H,0,4.844191,6.159813,7.040356\C,0,4.800983,6.850056,4.
 428737\O,0,4.908865,7.95303,3.889419\N,0,3.680514,6.103852,4.451195\H,
 0,3.734194,5.150843,4.805805\C,-1,2.43012,6.475546,3.795418\H,0,2.4179
 2,7.56544,3.708268\C,0,2.331001,5.810767,2.417131\H,0,2.430458,4.73383
 5,2.580601\H,0,3.19987,6.131556,1.828176\C,0,1.041464,6.087812,1.63304
 2\H,0,0.1872,5.976672,2.313124\C,0,1.003937,7.505636,1.065366\H,0,1.19
 5576,8.255828,1.83821\H,0,1.757408,7.625434,0.276748\H,0,0.033087,7.73
 3095,0.616361\C,0,0.894021,5.046911,0.523649\H,0,0.888257,4.034924,0.9
 44411\H,0,1.733879,5.114266,-0.181707\H,0,-0.029533,5.187374,-0.04673\
 C,0,1.271775,6.001478,4.678647\O,0,1.193003,4.811997,5.018754\N,0,0.35
 7419,6.924099,4.99718\H,0,0.504099,7.882162,4.680714\C,-1,-0.811079,6.
 636005,5.826522\H,0,-0.594656,5.713529,6.368132\C,0,-0.950822,7.737163
 ,6.873116\H,0,-1.052458,8.723926,6.411853\H,0,-1.841903,7.541385,7.480
 684\C,0,0.302316,7.697884,7.788377\O,0,0.645938,6.548021,8.182193\O,0,
 0.8803,8.774456,8.052078\C,0,-2.017743,6.387849,4.864482\O,0,-2.242723
 ,7.174046,3.942508\N,0,-2.714169,5.238149,5.049019\H,0,-2.491589,4.650
 916,5.852683\C,-1,-3.656938,4.666984,4.078637\H,0,-3.934108,5.461694,3
 .378499\C,0,-3.014726,3.481193,3.307408\H,0,-2.809866,2.700096,4.05233
 \C,0,-3.976098,2.917827,2.254836\H,0,-3.473692,2.137714,1.671521\H,0,-
 4.873196,2.46797,2.687108\H,0,-4.29227,3.706411,1.561662\C,0,-1.69333,
 3.883939,2.652498\H,0,-1.256163,3.016713,2.142093\H,0,-0.964464,4.2369
 05,3.388469\H,0,-1.844828,4.668724,1.901819\C,0,-4.90387,4.133444,4.82
 2918\O,0,-4.783085,3.535499,5.885508\N,0,-6.114507,4.286188,4.207446\H
 ,0,-6.193042,4.824346,3.342509\C,-1,-7.31921,3.655508,4.747679\H,0,-6.
 982816,3.093559,5.625202\C,0,-8.391301,4.674619,5.178357\H,0,-8.648969
 ,5.268075,4.290742\C,0,-9.649987,3.942012,5.654502\H,0,-10.429387,4.65
 0268,5.9485\H,0,-10.074979,3.305886,4.870962\H,0,-9.426716,3.308383,6.
 523347\C,0,-7.821885,5.619699,6.243658\H,0,-6.868406,6.016902,5.88071\
 H,0,-7.589938,5.042642,7.149608\C,0,-8.744514,6.787415,6.590195\H,0,-9
 .014456,7.351517,5.689885\H,0,-8.248955,7.47797,7.280207\H,0,-9.672669
 ,6.454552,7.067184\C,0,-7.886742,2.710648,3.688544\O,0,-8.287982,3.146
 78,2.615653\N,0,-7.933069,1.387995,3.989952\H,0,-7.811738,1.109347,4.9
 5413\C,-1,-8.570607,0.43851,3.093973\H,0,-8.582431,0.892157,2.100984\C
 ,0,-7.848089,-0.891786,3.050467\H,0,-7.620593,-1.240832,4.063272\H,0,-
 8.49912,-1.65079,2.601612\C,0,-6.574056,-0.881235,2.252485\O,0,-6.0399
 43,0.08972,1.762361\O,0,-6.078373,-2.116016,2.170016\H,0,-5.258238,-2.
 078044,1.621895\C,0,-10.018384,0.154349,3.563066\O,0,-10.236309,-0.227
 706,4.715016\N,0,-10.962304,0.308831,2.615804\H,0,-10.661756,0.568264,
 1.670771\C,-1,-12.357159,-0.095939,2.760337\H,0,-12.575707,-0.179014,3
 .829885\C,0,-13.285647,0.930549,2.075035\H,0,-12.992463,0.980557,1.020
 002\C,0,-14.750504,0.497053,2.114206\H,0,-15.338371,1.217404,1.541019\
 H,0,-15.126157,0.457395,3.146481\H,0,-14.903049,-0.485409,1.653658\C,0
 ,-13.110357,2.322545,2.677787\H,0,-12.0684,2.652885,2.633388\H,0,-13.4
 2963,2.340773,3.728394\H,0,-13.718533,3.036125,2.114948\C,0,-12.487849
 ,-1.453494,2.04921\O,0,-11.969875,-1.633453,0.949148\N,0,-13.196402,-2
 .433937,2.651862\H,0,-13.595714,-2.251792,3.559932\C,-1,-13.447842,-3.
 722511,2.015561\H,0,-13.302015,-3.586739,0.942193\C,0,-12.546934,-4.84
 0997,2.554114\H,0,-12.931178,-5.800777,2.187812\H,0,-12.623792,-4.8668
 71,3.648878\C,0,-11.084725,-4.68795,2.140037\H,0,-10.700097,-3.70656,2
 .436507\H,0,-10.996674,-4.769112,1.051316\S,0,-10.073539,-5.991948,2.9
 17286\C,0,-8.471124,-5.674691,2.12848\H,0,-8.111908,-4.662355,2.339352
 \H,0,-7.757834,-6.388449,2.548878\H,0,-8.517905,-5.829469,1.046107\H,0
 ,-14.497809,-3.983793,2.18384\H,0,-12.638207,-10.850352,-0.140395\C,-1
 ,-12.724921,-9.757789,-0.10043\H,0,-13.229765,-9.49653,0.838643\C,0,-1
 1.349143,-9.089305,-0.180208\H,0,-10.869861,-9.407836,-1.114398\C,0,-1
 1.490301,-7.566522,-0.231253\H,0,-12.071199,-7.252848,-1.106747\H,0,-1
 0.51544,-7.071207,-0.284338\H,0,-11.99951,-7.199549,0.667469\C,0,-10.4
 50108,-9.5515,0.975967\H,0,-10.53421,-10.644052,1.06721\H,0,-10.83022,
 -9.126256,1.915106\C,0,-8.976752,-9.184381,0.806528\H,0,-8.565959,-9.6
 17061,-0.112574\H,0,-8.83286,-8.10213,0.75031\H,0,-8.381989,-9.548581,
 1.652675\H,0,-13.371488,-9.438492,-0.925956\H,0,-11.863408,-3.677783,-
 2.656853\C,-1,-11.329778,-3.106476,-1.893501\H,0,-11.950646,-3.032405,
 -0.995284\C,0,-10.004761,-3.807681,-1.544596\H,0,-10.23646,-4.829659,-
 1.213771\H,0,-9.389216,-3.908787,-2.444886\C,0,-9.197295,-3.116681,-0.
 433313\H,0,-9.873878,-2.62631,0.273897\H,0,-8.621174,-3.858512,0.12425
 \S,0,-8.010067,-1.833951,-0.954571\C,0,-6.583332,-2.881424,-1.343189\H
 ,0,-6.825892,-3.603895,-2.125741\H,0,-6.226806,-3.403713,-0.44808\H,0,
 -5.789978,-2.225157,-1.712847\C,0,-11.067146,-1.71863,-2.487765\O,0,-1
 0.821746,-1.623149,-3.688232\N,0,-11.076807,-0.677014,-1.629868\H,0,-1
 1.320134,-0.851207,-0.65885\C,-1,-10.771132,0.70845,-1.986871\H,0,-10.
 483613,0.717479,-3.038762\C,0,-11.95159,1.650403,-1.709036\H,0,-11.887
 854,1.997917,-0.672432\H,0,-11.847068,2.527016,-2.355611\C,0,-13.32996
 2,1.024037,-1.931934\H,0,-13.3903,0.645497,-2.95486\H,0,-13.508448,0.2
 17912,-1.213695\C,0,-14.336227,2.133941,-1.683575\O,0,-14.725176,2.408
 056,-0.541481\N,0,-14.674006,2.822518,-2.785757\H,0,-14.173214,2.61068
 8,-3.669158\H,0,-15.080491,3.735967,-2.641989\C,0,-9.615179,1.15344,-1
 .069751\O,0,-9.740323,1.035408,0.158399\N,0,-8.527899,1.700288,-1.6316
 66\H,0,-8.421708,1.657927,-2.646925\C,-1,-7.396658,2.169116,-0.832094\
 H,0,-7.581141,1.856039,0.196585\C,0,-6.085459,1.568731,-1.325248\H,0,-
 5.259146,1.897364,-0.685245\H,0,-5.866914,1.871396,-2.352518\H,0,-6.14
 212,0.478295,-1.274422\C,0,-7.35452,3.706998,-0.912906\O,0,-6.885493,4
 .277243,-1.900518\N,0,-7.857643,4.377958,0.135418\H,0,-8.111354,3.8651
 25,0.974857\C,-1,-7.903812,5.834719,0.196985\H,0,-8.142895,6.195546,-0
 .808167\C,0,-9.006222,6.276427,1.171162\H,0,-8.810991,7.312771,1.46769
 1\H,0,-8.935076,5.666301,2.077447\C,0,-10.366994,6.173869,0.524694\C,0
 ,-11.126376,5.000263,0.546033\H,0,-10.763015,4.13695,1.099756\C,0,-12.
 323214,4.900552,-0.160494\H,0,-12.91905,3.992426,-0.154442\C,0,-12.768
 724,5.981675,-0.92015\O,0,-13.915482,5.850261,-1.643805\H,0,-13.842517
 ,6.396604,-2.441559\C,0,-12.048488,7.176381,-0.908597\H,0,-12.41146,8.
 026688,-1.47777\C,0,-10.857473,7.25961,-0.202531\H,0,-10.290708,8.1885
 48,-0.225771\C,0,-6.513511,6.379281,0.613288\O,0,-6.087336,6.185938,1.
 758403\N,0,-5.838676,7.074018,-0.326004\H,0,-6.183311,7.13163,-1.27885
 9\C,-1,-4.554176,7.725461,-0.109831\H,0,-4.649936,8.388588,0.75734\C,0
 ,-3.420918,6.718524,0.221576\H,0,-2.524861,7.281508,0.506809\H,0,-3.73
 241,6.186557,1.124462\C,0,-3.106006,5.750882,-0.877512\C,0,-3.812907,4
 .61147,-1.15901\H,0,-4.693456,4.224384,-0.67162\N,0,-3.280409,3.963639
 ,-2.241244\H,0,-3.619925,3.113755,-2.688943\C,0,-2.203329,4.678622,-2.
 693131\C,0,-1.346071,4.406552,-3.765462\H,0,-1.504785,3.523778,-4.3791
 \C,0,-0.328082,5.313446,-4.007252\H,0,0.35663,5.142227,-4.833842\C,0,-
 0.169015,6.461856,-3.203619\H,0,0.629796,7.162496,-3.42891\C,0,-1.0223
 81,6.727595,-2.145759\H,0,-0.893631,7.631298,-1.555576\C,0,-2.06084,5.
 821874,-1.867703\C,0,-4.214073,8.594367,-1.336448\O,0,-4.935634,8.5984
 45,-2.327734\N,0,-3.091367,9.330653,-1.19088\H,0,-2.492878,9.215757,-0
 .379836\C,-1,-2.547872,10.261549,-2.170589\H,0,-2.554882,9.80222,-3.16
 4524\C,0,-3.346036,11.580922,-2.195633\H,0,-4.412177,11.326665,-2.2913
 71\H,0,-3.043446,12.158805,-3.073742\O,0,-3.090385,12.400826,-1.079653
 \H,0,-3.225583,11.920468,-0.247344\C,0,-1.081358,10.581769,-1.713001\O
 ,0,-0.634259,10.039411,-0.686305\N,0,-0.40453,11.467984,-2.443285\H,0,
 -0.846326,11.942174,-3.282838\C,-1,0.824551,12.134473,-1.987093\H,0,1.
 66151,11.421063,-1.979017\C,0,1.134861,13.32842,-2.886876\H,0,2.026172
 ,13.81693,-2.46985\H,0,1.413172,12.95964,-3.881651\C,0,-0.019193,14.34
 2149,-3.022906\H,0,0.37132,15.362465,-3.073774\H,0,-0.664983,14.281924
 ,-2.134836\C,0,-0.918328,14.120722,-4.277483\O,0,-1.265404,12.912792,-
 4.501302\O,0,-1.219281,15.120927,-4.93753\H,0,0.672413,12.463,-0.94901
 9\H,0,-0.231761,12.213655,2.461457\C,-1,-0.193994,11.316103,3.085037\H
 ,0,-0.511184,11.569173,4.101156\C,0,-1.081065,10.206949,2.486212\H,0,-
 0.715851,9.988885,1.474928\H,0,-0.981338,9.298793,3.08663\C,0,-2.54365
 7,10.562183,2.313381\O,0,-2.92641,11.604709,1.791968\N,0,-3.403629,9.5
 967,2.726116\H,0,-3.091916,8.74102,3.178407\H,0,-4.392411,9.77678,2.63
 7348\C,0,1.214913,10.685131,3.165588\O,0,1.405056,9.684091,3.85806\N,0
 ,2.19802,11.234578,2.400133\H,0,1.910423,11.979067,1.77996\C,-1,3.4947
 06,10.600325,2.086291\H,0,3.553786,9.679749,2.671846\C,0,3.566148,10.3
 48374,0.577385\H,0,3.483494,11.317087,0.062192\H,0,2.680696,9.773708,0
 .277343\C,0,4.833222,9.642245,0.076134\H,0,5.707645,10.186439,0.466448
 \C,0,4.92277,8.18907,0.551547\H,0,4.082281,7.608007,0.152216\H,0,5.845
 034,7.722176,0.177637\H,0,4.910935,8.099678,1.641914\C,0,4.875342,9.69
 8113,-1.454015\H,0,3.974082,9.237449,-1.876795\H,0,4.923692,10.729936,
 -1.820549\H,0,5.738898,9.148949,-1.847026\H,0,4.308904,11.258123,2.413
 777\O,0,-0.52593,-0.10181,-4.58708\H,0,-0.284284,0.694648,-4.097646\H,
 0,-1.525906,-0.207262,-4.399002\O,0,6.279153,-0.310731,-4.179863\H,0,5
 .828402,-1.111255,-3.866663\H,0,5.967515,0.412291,-3.595026\O,0,0.1449
 17,-2.759043,-4.871893\H,0,0.057352,-1.804065,-4.642378\H,0,-0.756893,
 -2.98654,-5.147676\O,0,6.584245,3.464283,-6.849374\H,0,7.189851,3.8853
 95,-6.221593\H,0,6.370622,2.566115,-6.51062\O,0,5.79517,0.868643,-6.52
 1728\H,0,5.866856,0.359553,-5.675406\H,0,6.687538,0.734517,-6.946379\O
 ,0,3.179142,1.985152,-6.057192\H,0,4.059688,1.655033,-6.303156\H,0,3.2
 17638,2.946104,-6.247831\O,0,4.03141,4.475188,-6.77554\H,0,4.984077,4.
 243384,-6.798915\H,0,4.01462,5.436538,-6.963671\O,0,8.056003,-3.137036
 ,-2.845713\H,0,7.099903,-2.973327,-2.742147\H,0,8.241758,-2.884633,-3.
 775233\O,0,9.831093,-3.089739,-0.750349\H,0,9.197848,-2.981013,-1.4961
 33\H,0,9.354694,-2.770894,0.035435\O,0,1.267324,0.185566,-6.755666\H,0
 ,0.532893,0.197123,-6.107954\H,0,1.899783,0.900056,-6.503301\O,0,1.565
 908,-2.471285,-7.211892\H,0,1.720175,-1.513131,-7.025606\H,0,0.936392,
 -2.707404,-6.492811\O,0,4.874034,0.945425,-9.170172\H,0,4.99285,0.7626
 22,-8.220027\H,0,4.288284,0.233737,-9.521068\O,0,8.507456,-3.422406,-5
 .54297\H,0,8.964527,-4.262706,-5.412151\H,0,7.634786,-3.647455,-5.9186
 05\O,0,7.742779,3.532374,-9.394584\H,0,8.694297,3.7463,-9.36493\H,0,7.
 435078,3.447195,-8.465474\O,0,8.195783,0.711867,-7.599527\H,0,8.688425
 ,-0.073871,-7.258868\H,0,8.023265,0.621048,-8.582898\O,0,0.740201,-0.6
 2943,-9.299586\H,0,0.59439,-1.399815,-8.72535\H,0,0.823802,0.066735,-8
 .61216\O,0,4.557161,6.982254,-7.850124\H,0,5.129516,6.477628,-8.501239
 \H,0,3.806111,7.260921,-8.389946\O,0,8.182511,-5.949001,0.740047\H,0,7
 .764135,-6.035138,-0.133929\H,0,7.492192,-6.288341,1.350771\O,0,9.6859
 98,-1.018843,-6.277546\H,0,10.64747,-0.887829,-6.327969\H,0,9.485787,-
 1.953157,-6.112989\O,0,12.033361,0.488412,-6.080115\H,0,11.490033,1.07
 5175,-6.666558\H,0,11.679228,0.664895,-5.197963\O,0,6.196602,-6.564243
 ,2.553383\H,0,5.24922,-6.627844,2.767091\H,0,6.553103,-5.908945,3.1829
 23\O,0,10.431998,2.148751,-7.462951\H,0,9.523563,1.749984,-7.431182\H,
 0,10.545397,2.416419,-8.394883\O,0,3.314644,-1.077138,-10.066166\H,0,2
 .381819,-0.877227,-9.80412\H,0,3.285779,-1.186238,-11.02545\O,0,3.7825
 1,3.553789,-9.425925\H,0,4.167227,2.655611,-9.407152\H,0,3.682592,3.79
 5727,-8.485465\O,0,12.645271,4.476037,-4.075861\H,0,13.099002,3.756963
 ,-4.574049\H,0,11.909474,4.077518,-3.582172\O,0,12.241924,4.284256,-7.
 539645\H,0,11.5942,3.745963,-7.05286\H,0,12.262121,5.15224,-7.049734\O
 ,0,10.554003,3.863247,-9.582372\H,0,11.221568,4.257966,-8.968211\H,0,1
 0.924202,3.914897,-10.469633\O,0,12.306047,-2.203022,-1.809023\H,0,11.
 47176,-2.388809,-1.341126\H,0,12.791486,-3.037523,-1.760803\O,0,7.4593
 91,0.879372,-10.105815\H,0,6.496069,0.80708,-9.921741\H,0,7.592981,1.8
 51442,-10.085956\O,0,5.666742,5.484072,-9.734874\H,0,6.491477,4.97064,
 -9.66691\H,0,4.971296,4.781512,-9.779406\O,0,12.219377,6.421014,-5.927
 924\H,0,11.280681,6.649171,-5.869766\H,0,12.377168,5.829902,-5.154266\
 O,0,13.837254,2.712846,-5.808249\H,0,13.410681,1.845419,-5.935426\H,0,
 13.55992,3.236941,-6.583701\O,0,5.5251,9.439194,-6.833323\H,0,5.228399
 ,8.547715,-7.116214\H,0,4.716094,9.907975,-6.600363\C,0,-2.850214,-2.0
 5095,0.395278\O,0,-3.853589,-2.585881,0.911074\C,0,-2.788001,-0.64634,
 0.13496\C,0,-1.713015,-0.091864,-0.487688\C,0,-0.446955,-0.884103,-0.7
 44047\C,0,-0.395019,-2.177864,0.065373\C,0,-1.706834,-2.931648,-0.0253
 26\C,0,-1.780225,1.302429,-1.019544\C,0,-0.460912,2.079592,-0.98143\C,
 0,0.712778,1.218185,-1.444466\C,0,0.800849,-0.008076,-0.509368\C,0,2.0
 32778,1.967236,-1.516153\C,0,3.226015,1.036862,-1.80658\C,0,3.357033,0
 .022224,-0.67433\C,0,2.094101,-0.839908,-0.604138\C,0,2.196872,3.08936
 7,-2.558331\C,0,3.737035,3.219041,-2.742317\C,0,4.325704,2.103089,-1.8
 6482\C,0,3.102641,0.308823,-3.159396\O,0,5.600199,1.638849,-2.337424\H
 ,0,-3.683192,-0.066642,0.351445\H,0,-0.468524,-1.143374,-1.817876\H,0,
 -0.177937,-1.94173,1.116661\H,0,0.417389,-2.813169,-0.296468\H,0,-1.89
 6245,-3.237395,-1.065169\H,0,-1.705715,-3.835305,0.592833\H,0,-2.57406
 9,1.862863,-0.516195\H,0,-2.123508,1.207294,-2.066824\H,0,-0.263974,2.
 427951,0.039593\H,0,-0.560651,2.974492,-1.601215\H,0,0.482603,0.844297
 ,-2.449912\H,0,0.747249,0.375453,0.52169\H,0,2.211151,2.408343,-0.5218
 63\H,0,3.505983,0.547871,0.278792\H,0,4.234009,-0.626759,-0.822381\H,0
 ,2.049274,-1.496127,-1.484884\H,0,2.160044,-1.501415,0.26859\H,0,1.724
 747,4.023609,-2.246491\H,0,1.724459,2.802925,-3.505527\H,0,4.112485,4.
 198461,-2.434559\H,0,4.021393,3.075384,-3.789185\H,0,4.479401,2.484804
 ,-0.848609\H,0,3.224684,0.978335,-4.014887\H,0,3.866871,-0.471819,-3.2
 27569\H,0,2.133589,-0.18491,-3.279708\H,0,5.988373,1.144467,-1.604268\
 \Version=ES64L-G16RevC.02\State=1-A\HF=-24387.1571443\RMSD=4.731e-10\D
 ipole=27.5486529,-47.7864111,11.0983585\Quadrupole=-6.4669267,78.90277
 3,-72.4358463,-41.2755471,-201.7306551,192.815578\PG=C01 [X(C295H536N5
 6O98S6)]\\@
 The archive entry for this job was punched.


 THE REASON MAN'S BEST FRIEND IS A DOG IS BECAUSE
 HE WAGS HIS TAIL INSTEAD OF HIS TONGUE.
 Job cpu time:       0 days 18 hours  6 minutes 58.1 seconds.
 Elapsed time:       0 days  4 hours  9 minutes 24.2 seconds.
 File lengths (MBytes):  RWF=  33583 Int=      0 D2E=      0 Chk=   3595 Scr=      1
 Normal termination of Gaussian 16 at Fri May 22 20:26:53 2026.
