 Entering Gaussian System, Link 0=g16
 Input=mm_min_cutoff7_wat_elecfield.com
 Output=mm_min_cutoff7_wat_elecfield.log
 Initial command:
 /usr/local/packages/license/gaussian/g16-c01/g16/l1.exe "/work/arkanil/gauss_scratch/Gau-862172.inp" -scrdir="/work/arkanil/gauss_scratch/"
 Entering Link 1 = /usr/local/packages/license/gaussian/g16-c01/g16/l1.exe PID=    862179.
  
 Copyright (c) 1988-2019, Gaussian, Inc.  All Rights Reserved.
  
 This is part of the Gaussian(R) 16 program.  It is based on
 the Gaussian(R) 09 system (copyright 2009, Gaussian, Inc.),
 the Gaussian(R) 03 system (copyright 2003, Gaussian, Inc.),
 the Gaussian(R) 98 system (copyright 1998, Gaussian, Inc.),
 the Gaussian(R) 94 system (copyright 1995, Gaussian, Inc.),
 the Gaussian 92(TM) system (copyright 1992, Gaussian, Inc.),
 the Gaussian 90(TM) system (copyright 1990, Gaussian, Inc.),
 the Gaussian 88(TM) system (copyright 1988, Gaussian, Inc.),
 the Gaussian 86(TM) system (copyright 1986, Carnegie Mellon
 University), and the Gaussian 82(TM) system (copyright 1983,
 Carnegie Mellon University). Gaussian is a federally registered
 trademark of Gaussian, Inc.
  
 This software contains proprietary and confidential information,
 including trade secrets, belonging to Gaussian, Inc.
  
 This software is provided under written license and may be
 used, copied, transmitted, or stored only in accord with that
 written license.
  
 The following legend is applicable only to US Government
 contracts under FAR:
  
                    RESTRICTED RIGHTS LEGEND
  
 Use, reproduction and disclosure by the US Government is
 subject to restrictions as set forth in subparagraphs (a)
 and (c) of the Commercial Computer Software - Restricted
 Rights clause in FAR 52.227-19.
  
 Gaussian, Inc.
 340 Quinnipiac St., Bldg. 40, Wallingford CT 06492
  
  
 ---------------------------------------------------------------
 Warning -- This program may not be used in any manner that
 competes with the business of Gaussian, Inc. or will provide
 assistance to any competitor of Gaussian, Inc.  The licensee
 of this program is prohibited from giving any competitor of
 Gaussian, Inc. access to this program.  By using this program,
 the user acknowledges that Gaussian, Inc. is engaged in the
 business of creating and licensing software in the field of
 computational chemistry and represents and warrants to the
 licensee that it is not a competitor of Gaussian, Inc. and that
 it will not use this program in any manner prohibited above.
 ---------------------------------------------------------------
  

 Cite this work as:
 Gaussian 16, Revision C.01,
 M. J. Frisch, G. W. Trucks, H. B. Schlegel, G. E. Scuseria, 
 M. A. Robb, J. R. Cheeseman, G. Scalmani, V. Barone, 
 G. A. Petersson, H. Nakatsuji, X. Li, M. Caricato, A. V. Marenich, 
 J. Bloino, B. G. Janesko, R. Gomperts, B. Mennucci, H. P. Hratchian, 
 J. V. Ortiz, A. F. Izmaylov, J. L. Sonnenberg, D. Williams-Young, 
 F. Ding, F. Lipparini, F. Egidi, J. Goings, B. Peng, A. Petrone, 
 T. Henderson, D. Ranasinghe, V. G. Zakrzewski, J. Gao, N. Rega, 
 G. Zheng, W. Liang, M. Hada, M. Ehara, K. Toyota, R. Fukuda, 
 J. Hasegawa, M. Ishida, T. Nakajima, Y. Honda, O. Kitao, H. Nakai, 
 T. Vreven, K. Throssell, J. A. Montgomery, Jr., J. E. Peralta, 
 F. Ogliaro, M. J. Bearpark, J. J. Heyd, E. N. Brothers, K. N. Kudin, 
 V. N. Staroverov, T. A. Keith, R. Kobayashi, J. Normand, 
 K. Raghavachari, A. P. Rendell, J. C. Burant, S. S. Iyengar, 
 J. Tomasi, M. Cossi, J. M. Millam, M. Klene, C. Adamo, R. Cammi, 
 J. W. Ochterski, R. L. Martin, K. Morokuma, O. Farkas, 
 J. B. Foresman, and D. J. Fox, Gaussian, Inc., Wallingford CT, 2019.
 
 ******************************************
 Gaussian 16:  ES64L-G16RevC.01  3-Jul-2019
                21-May-2026 
 ******************************************
 %chk=19NT_md_min_distance_cutoff7_opt.chk
 %nprocshared=64
 Will use up to   64 processors via shared memory.
 %mem=200GB
 --------------------------
 # wb97xd/6-31g(d) prop=efg
 --------------------------
 1/38=1,172=1/1;
 2/12=2,17=6,18=5,40=1/2;
 3/5=1,6=6,7=1,11=2,25=1,30=1,74=-58/1,2,3;
 4//1;
 5/5=2,38=5/2;
 6/7=2,8=2,9=2,10=2,14=1,28=1/1,2;
 99/5=1,9=1/99;
 ----------------------------
 19NT_md_min_distance_cutoff7
 ----------------------------
 Symbolic Z-matrix:
 Charge = -1 Multiplicity = 1
 H                    0    -3.27016   11.0369  -4.56689 
 C                    -1   -3.17174   10.31727  -3.74347 
 H                    0    -3.03206   10.88135  -2.81864 
 C                    0    -4.45296   9.46712  -3.65136 
 H                    0    -5.29758   10.14431  -3.48416 
 H                    0    -4.64481   8.97568  -4.6141 
 C                    0    -4.3964    8.42552  -2.56009 
 C                    0    -4.99293   8.60281  -1.31034 
 H                    0    -5.55221   9.51214  -1.10407 
 C                    0    -4.9013    7.62775  -0.3186 
 H                    0    -5.3835    7.76168   0.64536 
 C                    0    -4.194     6.45775  -0.57886 
 O                    0    -4.08101   5.5022    0.38894 
 H                    0    -3.72608   4.67385  -0.02283 
 C                    0    -3.59761   6.25738  -1.82053 
 H                    0    -3.06416   5.33716  -2.02781 
 C                    0    -3.70106   7.23885  -2.78887 
 H                    0    -3.21665   7.08283  -3.74514 
 C                    0    -1.86375   9.52722  -3.93499 
 O                    0    -0.95204   9.59894  -3.12095 
 N                    0    -1.76118   8.75271  -5.05842 
 H                    0    -2.49337   8.80436  -5.75229 
 C                    -1   -0.5215    8.07028  -5.4252 
 H                    0    -0.00037   7.85116  -4.48998 
 C                    0    -0.72736   6.79315  -6.24384 
 H                    0    -1.29697   7.05187  -7.14905 
 C                    0     0.64458   6.27989  -6.69478 
 H                    0     0.54913   5.32234  -7.21763 
 H                    0     1.30906   6.12714  -5.83734 
 H                    0     1.13379   6.99002  -7.37104 
 C                    0    -1.53116   5.71818  -5.49829 
 H                    0    -2.56255   6.06656  -5.39192 
 H                    0    -1.59156   4.82221  -6.12703 
 C                    0    -0.98903   5.34308  -4.12237 
 H                    0    -1.5846    4.53148  -3.69407 
 H                    0    -1.02795   6.19208  -3.4333 
 H                    0     0.04873   4.99188  -4.17069 
 H                    0     0.12268   8.76101  -5.98938 
 H                    0     1.7091    8.99258  -1.43539 
 C                    -1    2.15103   8.04961  -1.0913 
 H                    0     2.18054   8.06536   0.00133 
 C                    0     1.26551   6.88094  -1.57923 
 H                    0     1.15186   6.97954  -2.66818 
 C                    0     1.88669   5.5121   -1.29483 
 H                    0     2.8839    5.40584  -1.73412 
 H                    0     1.98285   5.34741  -0.217 
 H                    0     1.25259   4.71742  -1.70585 
 C                    0    -0.12176   6.99251  -0.9441 
 H                    0    -0.7557    6.15147  -1.24451 
 H                    0    -0.62884   7.91553  -1.2429 
 H                    0    -0.0417    6.97445   0.14999 
 C                    0     3.60186   7.92954  -1.55711 
 O                    0     4.5016    7.59063  -0.79005 
 N                    0     3.85702   8.16375  -2.87279 
 H                    0     3.11173   8.52631  -3.44981 
 C                    -1    5.21024   8.10606  -3.43781 
 H                    0     5.65004   7.14537  -3.14321 
 C                    0     5.20635   8.24415  -4.95349 
 H                    0     4.58659   7.46705  -5.41285 
 H                    0     4.82155   9.228    -5.24126 
 C                    0     6.66944   8.11829  -5.39112 
 O                    0     7.06271   7.03286  -5.88053 
 O                    0     7.39609   9.11492  -5.10706 
 H                    0     5.82465   8.90085  -3.00142 
 H                    0    -1.96394   12.51818   2.98756 
 C                    -1   -2.72794   11.77462   2.73334 
 H                    0    -2.99048   11.91123   1.67664 
 C                    0    -2.22325   10.3492   2.98206 
 H                    0    -1.97562   10.2594   4.05085 
 C                    0    -3.31167   9.31937   2.66073 
 H                    0    -3.51798   9.2996    1.58306 
 H                    0    -4.24909   9.56129   3.17544 
 H                    0    -3.02004   8.30797   2.96426 
 C                    0    -0.93633   10.09482   2.18249 
 H                    0    -1.16308   10.16804   1.10931 
 H                    0    -0.22191   10.89955   2.40227 
 C                    0    -0.27261   8.74919   2.46605 
 H                    0     0.68289   8.66356   1.93721 
 H                    0    -0.07795   8.6233    3.53903 
 H                    0    -0.90528   7.91515   2.14754 
 H                    0    -3.62223   11.98886   3.32926 
 H                    0    -8.60285   11.46259   3.22112 
 C                    -1   -9.42535   11.27614   3.91994 
 H                    0    -10.25837   10.85807   3.34501 
 C                    0    -8.98545   10.30938   5.02072 
 H                    0    -8.16751   10.75449   5.59959 
 H                    0    -9.81514   10.14939   5.72069 
 C                    0    -8.54382   8.99584   4.42944 
 C                    0    -7.19887   8.66026   4.30757 
 H                    0    -6.43932   9.33407   4.69948 
 C                    0    -6.79842   7.47749   3.69156 
 H                    0    -5.74321   7.23986   3.60515 
 C                    0    -7.75931   6.59931   3.18746 
 O                    0    -7.44102   5.41877   2.60536 
 H                    0    -6.52073   5.19127   2.83014 
 C                    0    -9.11186   6.93243   3.28428 
 H                    0    -9.85217   6.23991   2.89909 
 C                    0    -9.48982   8.11207   3.90149 
 H                    0    -10.54799   8.35166   3.98333 
 H                    0    -9.74879   12.23801   4.33417 
 H                    0    -10.56479   2.16507   5.92761 
 C                    -1   -9.77588   1.94379   5.1974 
 H                    0    -10.17883   2.16285   4.20153 
 C                    0    -8.53503   2.79285   5.49698 
 H                    0    -8.16476   2.48315   6.48116 
 C                    0    -7.43053   2.52687   4.47109 
 H                    0    -6.55098   3.15505   4.66255 
 H                    0    -7.11092   1.48018   4.50047 
 H                    0    -7.7884    2.74848   3.45911 
 C                    0    -8.90715   4.27299   5.53969 
 H                    0    -9.6508    4.47642   6.31913 
 H                    0    -8.0321    4.90583   5.73269 
 H                    0    -9.32955   4.59065   4.58086 
 C                    0    -9.45711   0.44196   5.32386 
 O                    0    -8.74388   0.01361   6.23099 
 N                    0    -10.01953  -0.36848   4.39579 
 H                    0    -10.47087   0.03929   3.58055 
 C                    -1   -9.84285  -1.81429   4.40695 
 H                    0    -9.72603  -2.11867   5.45132 
 C                    0    -11.03971  -2.52543   3.77624 
 H                    0    -11.1706  -2.17223   2.74757 
 H                    0    -10.78799  -3.59191   3.71546 
 C                    0    -12.35811  -2.34928   4.53045 
 H                    0    -12.56654  -1.27924   4.64503 
 H                    0    -12.29324  -2.80588   5.52376 
 C                    0    -13.50965  -3.00657   3.72575 
 O                    0    -13.79254  -2.40171   2.64698 
 O                    0    -14.00336  -4.0573    4.16634 
 C                    0    -8.55939  -2.16448   3.62342 
 O                    0    -8.54437  -2.14382   2.39247 
 N                    0    -7.46137  -2.4916    4.35095 
 H                    0    -7.47664  -2.30348   5.34575 
 C                    -1   -6.17298  -2.72977   3.71751 
 H                    0    -6.39625  -3.03804   2.69776 
 C                    0    -5.32256  -1.44011   3.68718 
 H                    0    -5.35329  -0.97109   4.67221 
 H                    0    -5.7868   -0.75579   2.96698 
 C                    0    -3.87075  -1.70035   3.26218 
 O                    0    -3.7022   -2.34047   2.20293 
 O                    0    -2.95223  -1.24986   4.01486 
 C                    0    -5.36807  -3.8041    4.45614 
 O                    0    -4.93368  -3.54804   5.59183 
 N                    0    -5.067    -4.94266   3.81552 
 C                    0    -4.25393  -5.96405   4.48324 
 H                    0    -3.19862  -5.665     4.45155 
 H                    0    -4.55181  -6.04687   5.53004 
 C                    0    -4.51288  -7.23345   3.67201 
 H                    0    -3.65145  -7.90603   3.68095 
 H                    0    -5.38099  -7.75611   4.08095 
 C                    0    -4.83298  -6.70731   2.26957 
 H                    0    -5.40407  -7.40986   1.65841 
 H                    0    -3.91527  -6.46957   1.7278 
 C                    -1   -5.62062  -5.41406   2.53779 
 H                    0    -5.45583  -4.67919   1.74491 
 C                    0    -7.12424  -5.74062   2.71174 
 O                    0    -7.5336   -6.23817   3.75393 
 N                    0    -7.88608  -5.48641   1.62896 
 H                    0    -7.45398  -5.03829   0.826 
 C                    -1   -9.29415  -5.84686   1.53334 
 H                    0    -9.67789  -5.95786   2.55069 
 C                    0    -10.10139  -4.79935   0.76235 
 H                    0    -9.63451  -4.62035  -0.21646 
 H                    0    -10.07151  -3.85227   1.31244 
 C                    0    -11.51768  -5.28717   0.57278 
 C                    0    -12.41231  -5.30212   1.64299 
 H                    0    -12.13207  -4.90121   2.61033 
 C                    0    -13.69261  -5.82384   1.50052 
 H                    0    -14.36361  -5.75707   2.35177 
 C                    0    -14.09227  -6.34922   0.27396 
 H                    0    -15.09323  -6.75786   0.15364 
 C                    0    -13.21344  -6.33126  -0.80703 
 H                    0    -13.52609  -6.70539  -1.77689 
 C                    0    -11.93355  -5.80414  -0.655 
 H                    0    -11.2501  -5.79336  -1.50046 
 H                    0    -9.39765  -6.82263   1.03922 
 H                    0    -1.39572   3.9449    10.60412 
 C                    -1   -1.49931   3.17469   9.82723 
 H                    0    -1.20749   2.22644   10.27911 
 C                    0    -2.96388   3.10347   9.36778 
 H                    0    -3.27358   4.02897   8.86466 
 H                    0    -3.58508   3.04312   10.26843 
 C                    0    -3.24513   1.90905   8.4873 
 C                    0    -3.24241   0.63029   9.05219 
 H                    0    -3.04278   0.5145    10.11536 
 C                    0    -3.49693  -0.49117   8.27286 
 H                    0    -3.48929  -1.47878   8.72144 
 C                    0    -3.75476  -0.35171   6.91228 
 H                    0    -3.94663  -1.22441   6.30146 
 C                    0    -3.75188   0.9157    6.33548 
 H                    0    -3.9309    1.01309   5.26962 
 C                    0    -3.49987   2.0436    7.11983 
 H                    0    -3.50672   3.03197   6.66307 
 C                    0    -0.45247   3.52505   8.76322 
 O                    0     0.66423   2.98672   8.77796 
 N                    0    -0.75564   4.51242   7.89796 
 H                    0    -1.71635   4.81847   7.85684 
 C                    -1    0.17466   5.14253   6.95528 
 H                    0     0.42857   4.44015   6.15147 
 C                    0    -0.45017   6.40952   6.36647 
 H                    0    -0.76056   7.07097   7.18476 
 H                    0     0.33154   6.9391    5.81059 
 C                    0    -1.60861   6.1021    5.44909 
 C                    0    -2.92402   6.0171    5.91392 
 H                    0    -3.15296   6.27475   6.94753 
 C                    0    -3.96967   5.64445   5.07513 
 H                    0    -4.99006   5.58187   5.43997 
 C                    0    -3.70821   5.38293   3.73084 
 O                    0    -4.73721   5.02517   2.92306 
 H                    0    -4.51509   5.20991   1.98152 
 C                    0    -2.4059    5.49585   3.24061 
 H                    0    -2.21591   5.33843   2.18491 
 C                    0    -1.3716    5.83155   4.10096 
 H                    0    -0.35913   5.89704   3.70959 
 H                    0     1.09527   5.37781   7.50078 
 H                    0     2.9613    3.17842   9.96612 
 C                    -1    3.71974   2.39266   9.88543 
 H                    0     4.61072   2.69666   10.4359 
 C                    0     3.135     1.04602   10.3752 
 H                    0     3.91263   0.45724   10.8697 
 H                    0     2.8314    0.45867   9.50135 
 C                    0     1.90703   1.18516   11.30443 
 H                    0     2.19735   1.16529   12.3568 
 H                    0     1.39015   2.12611   11.09457 
 C                    0     0.97485   0.01695   11.02976 
 O                    0     1.06523  -1.04846   11.63687 
 N                    0     0.10917   0.22203   10.0105 
 H                    0     0.2416    1.02799   9.40758 
 H                    0    -0.40961  -0.56031   9.61512 
 C                    0     4.11608   2.26289   8.395 
 O                    0     5.30299   2.25991   8.03836 
 N                    0     3.12212   2.11391   7.4766 
 H                    0     2.16087   2.22664   7.79927 
 C                    -1    3.31432   1.50169   6.15021 
 H                    0     2.35347   1.52919   5.61778 
 H                    0     3.63412   0.4598    6.25057 
 C                    0     4.3308    2.20015   5.25388 
 O                    0     5.03968   1.54218   4.47646 
 N                    0     4.38255   3.54143   5.30069 
 H                    0     3.73666   3.99594   5.93358 
 C                    -1    5.23057   4.38573   4.45996 
 H                    0     5.65048   3.74473   3.68026 
 C                    0     4.42136   5.51421   3.81561 
 H                    0     4.09402   6.21121   4.60089 
 H                    0     5.10382   6.07016   3.16432 
 C                    0     3.20331   5.03141   3.01431 
 H                    0     2.52496   4.48633   3.68537 
 C                    0     2.45399   6.24484   2.45817 
 H                    0     1.52463   5.9387    1.96355 
 H                    0     2.18963   6.95593   3.25041 
 H                    0     3.06964   6.77275   1.71917 
 C                    0     3.60704   4.07983   1.88593 
 H                    0     4.33866   4.55776   1.22238 
 H                    0     4.03577   3.14718   2.26991 
 H                    0     2.73292   3.80258   1.28773 
 C                    0     6.43722   4.95931   5.24795 
 O                    0     7.16148   5.80307   4.72831 
 N                    0     6.65336   4.5199    6.5125 
 H                    0     6.06685   3.78609   6.89868 
 C                    -1    7.65256   5.14657   7.37365 
 H                    0     7.59921   6.23185   7.2625 
 H                    0     7.4073    4.89618   8.40869 
 C                    0     9.14079   4.78409   7.1567 
 O                    0     9.97571   5.40931   7.78922 
 N                    0     9.45531   3.74636   6.33013 
 H                    0     8.75216   3.38782   5.68578 
 C                    -1    10.85623   3.48187   5.98553 
 H                    0     10.90761   2.50498   5.50103 
 H                    0     11.45776   3.47833   6.89581 
 H                    0     11.25125   4.24854   5.30967 
 H                    0     11.54169   4.20499   1.64054 
 C                    -1    11.8572   3.82559   0.66301 
 H                    0     12.3822   4.63647   0.1464 
 C                    0     12.81609   2.63428   0.85592 
 H                    0     13.58835   2.96343   1.55921 
 H                    0     12.28303   1.81245   1.35313 
 C                    0     13.50108   2.11346  -0.42507 
 H                    0     14.5125   1.76529  -0.18375 
 H                    0     13.61265   2.94963  -1.12578 
 C                    0     12.7263   0.98172  -1.10997 
 H                    0     11.67009   1.25339  -1.09818 
 H                    0     12.85972   0.04017  -0.56472 
 C                    0     13.12831   0.79277  -2.5652 
 H                    0     14.12167   0.35082  -2.67559 
 H                    0     13.0998   1.74979  -3.09221 
 N                    0     12.15182  -0.10739  -3.25892 
 H                    0     12.39806  -0.25252  -4.23949 
 H                    0     11.20248   0.32475  -3.23459 
 H                    0     12.0869  -1.06101  -2.79674 
 C                    0     10.62311   3.48159  -0.19521 
 O                    0     10.78388   3.1546   -1.37985 
 N                    0     9.3929    3.48678   0.37031 
 H                    0     9.21084   4.03172   1.22528 
 C                    -1    8.22599   3.11653  -0.44181 
 H                    0     8.44967   2.13567  -0.88292 
 C                    0     6.915     3.00953   0.35643 
 H                    0     6.61268   4.01778   0.65852 
 C                    0     5.82144   2.40744  -0.53599 
 H                    0     5.63198   2.99896  -1.43746 
 H                    0     6.08985   1.39048  -0.85464 
 H                    0     4.88204   2.33689   0.02121 
 C                    0     7.1081    2.16145   1.61153 
 H                    0     7.52508   1.17361   1.38774 
 H                    0     7.77088   2.65272   2.32913 
 H                    0     6.14182   1.99903   2.10287 
 C                    0     8.111     4.12968  -1.61303 
 O                    0     8.19593   5.35514  -1.4204 
 N                    0     7.9272    3.61166  -2.83291 
 H                    0     7.93486   2.60357  -2.92919 
 C                    -1    7.67079   4.37323  -4.04983 
 H                    0     7.60844   5.42765  -3.78836 
 C                    0     8.76724   4.13727  -5.11165 
 H                    0     8.72692   4.97938  -5.81156 
 H                    0     8.51388   3.23697  -5.68506 
 C                    0     10.17584   3.93215  -4.54361 
 H                    0     10.8542   3.74176  -5.38768 
 H                    0     10.191    3.0416   -3.90832 
 C                    0     10.7352   5.08147  -3.70531 
 H                    0     10.14719   5.22856  -2.80113 
 H                    0     11.74168   4.83268  -3.35818 
 N                    0     10.80055   6.33235  -4.45095 
 H                    0     11.384    6.32117  -5.27471 
 C                    0     9.91647   7.34142  -4.39149 
 N                    0     9.07612   7.48675  -3.36829 
 H                    0     8.91392   6.77014  -2.66119 
 H                    0     8.35299   8.18986  -3.50484 
 N                    0     9.931     8.29093  -5.3391 
 H                    0     10.34836   8.03697  -6.2224 
 H                    0     9.01077   8.78916  -5.4187 
 C                    0     6.30663   3.87585  -4.58619 
 O                    0     5.95245   2.7138   -4.33465 
 N                    0     5.57822   4.7323   -5.29966 
 H                    0     6.00664   5.63901  -5.54732 
 C                    -1    4.22352   4.40154  -5.75704 
 H                    0     4.20975   3.38532  -6.16007 
 C                    0     3.21478   4.51941  -4.61821 
 H                    0     2.22293   4.20459  -4.95794 
 H                    0     3.15221   5.54815  -4.2432 
 H                    0     3.50998   3.87095  -3.78819 
 H                    0     3.98175   5.09164  -6.57017 
 H                    0    -8.05752   2.88549  -9.28312 
 C                    -1   -7.06155   2.78519  -9.72848 
 H                    0    -7.17449   2.81893  -10.81645 
 C                    0    -6.1263    3.8906   -9.23909 
 H                    0    -6.53052   4.86736  -9.53003 
 H                    0    -5.14792   3.79528  -9.72554 
 C                    0    -5.9419    3.86281  -7.72304 
 H                    0    -5.44243   2.93467  -7.41375 
 H                    0    -6.91733   3.91106  -7.22311 
 S                    0    -4.94495   5.28245  -7.16869 
 C                    0    -5.09415   5.04986  -5.37825 
 H                    0    -6.1447    4.9391   -5.09482 
 H                    0    -4.51424   4.19096  -5.02847 
 H                    0    -4.71855   5.94816  -4.88638 
 H                    0    -6.67518   1.79284  -9.46535 
 H                    0    -1.93152   0.36404  -9.09119 
 C                    -1   -1.00086   0.91868  -9.26281 
 H                    0    -1.01378   1.22999  -10.31147 
 C                    0    -0.93238   2.15184  -8.34482 
 H                    0     0.0845    2.56529  -8.34625 
 H                    0    -1.57266   2.92437  -8.78874 
 C                    0    -1.3955    1.9276   -6.91763 
 C                    0    -0.55485   2.17065  -5.82892 
 H                    0     0.47096   2.49332  -6.0001 
 C                    0    -1.01098   1.98802  -4.52226 
 H                    0    -0.3425    2.18251  -3.68837 
 C                    0    -2.31317   1.56618  -4.28713 
 H                    0    -2.67714   1.41516  -3.27659 
 C                    0    -3.15478   1.30571  -5.36746 
 H                    0    -4.15509   0.92519  -5.1837 
 C                    0    -2.69994   1.48794  -6.66638 
 H                    0    -3.35667   1.25148  -7.49883 
 C                    0     0.13441  -0.11559  -9.18777 
 O                    0     0.33477  -0.90437  -10.10365 
 N                    0     0.91175  -0.08889  -8.06802 
 H                    0     0.70798   0.64297  -7.40195 
 C                    -1    2.30506  -0.54256  -8.02041 
 H                    0     2.3741   -1.6322   -7.93869 
 C                    0     3.07607   0.02107  -9.24152 
 H                    0     2.52814  -0.26581  -10.14243 
 H                    0     2.99202   1.10825  -9.15082 
 C                    0     4.5483   -0.39208  -9.36929 
 H                    0     5.14136   0.45564  -9.73052 
 H                    0     4.96771  -0.67513  -8.39678 
 C                    0     4.73587  -1.55266  -10.34653 
 H                    0     5.79159  -1.80401  -10.46027 
 H                    0     4.36342  -1.26772  -11.33565 
 N                    0     4.00643  -2.74837  -9.95614 
 H                    0     3.02447  -2.75531  -10.19552 
 C                    0     4.38097  -3.46826  -8.85933 
 N                    0     5.51805  -3.24779  -8.27056 
 H                    0     6.95531  -2.4013   -8.79445 
 H                    0     5.66944  -3.90064  -7.50694 
 N                    0     3.49614  -4.45727  -8.4937 
 H                    0     2.54679  -4.42166  -8.83338 
 H                    0     3.60102  -4.86258  -7.57699 
 C                    0     2.86282   0.18002  -6.79164 
 O                    0     2.68961   1.39259  -6.67423 
 N                    0     3.53077  -0.5514   -5.88993 
 H                    0     3.73542  -1.53     -6.05007 
 C                    -1    4.22514   0.07957  -4.78718 
 H                    0     4.44508   1.11432  -5.05731 
 C                    0     3.42285   0.07383  -3.46343 
 H                    0     4.07104   0.55806  -2.71976 
 C                    0     2.14346   0.89932  -3.6032 
 H                    0     1.4275    0.40281  -4.26716 
 H                    0     2.34082   1.89333  -4.01133 
 H                    0     1.66378   1.01023  -2.62394 
 C                    0     3.08322  -1.33773  -2.98468 
 H                    0     2.57051  -1.90308  -3.77184 
 H                    0     2.40338  -1.28344  -2.13008 
 H                    0     3.97073  -1.89794  -2.67692 
 C                    0     5.53948  -0.73103  -4.64656 
 O                    0     5.5181   -1.94513  -4.84002 
 N                    0     6.68825  -0.05434  -4.34933 
 H                    0     6.64419   0.96628  -4.33294 
 C                    -1    7.97446  -0.73068  -4.50845 
 H                    0     7.72851  -1.79487  -4.45328 
 C                    0     8.6174   -0.46047  -5.87201 
 H                    0     9.57822  -0.98744  -5.92366 
 H                    0     8.83609   0.60601  -5.99115 
 C                    0     7.70325  -0.96952  -6.98767 
 H                    0     6.8985   -0.24989  -7.18294 
 H                    0     7.19538  -1.88719  -6.67726 
 C                    0     8.43257  -1.21437  -8.29662 
 O                    0     9.51354  -0.72585  -8.54301 
 O                    0     7.79934  -1.9955   -9.16373 
 C                    0     8.95566  -0.4164   -3.36144 
 O                    0     9.3967    0.73299  -3.19302 
 N                    0     9.40591  -1.46361  -2.61852 
 H                    0     8.88444  -2.33069  -2.72528 
 C                    -1    9.96689  -1.28561  -1.26356 
 H                    0     10.46046  -0.31305  -1.25729 
 C                    0     8.82189  -1.16576  -0.22858 
 H                    0     8.25646  -0.26386  -0.49507 
 H                    0     9.25515  -0.95436   0.75496 
 C                    0     7.84699  -2.34275  -0.07618 
 H                    0     8.38526  -3.28727   0.03072 
 H                    0     7.25739  -2.19624   0.83343 
 S                    0     6.6912   -2.45611  -1.4983 
 C                    0     5.9694   -4.10738  -1.27018 
 H                    0     6.46649  -4.84495  -1.90314 
 H                    0     6.03744  -4.41725  -0.2248 
 H                    0     4.91416  -4.05814  -1.54643 
 C                    0     11.0833  -2.32668  -0.98435 
 O                    0     11.956   -2.49672  -1.85732 
 N                    0     11.07566  -2.93373   0.20471 
 H                    0     10.44685  -2.60529   0.93971 
 C                    -1    11.95588  -4.00902   0.67795 
 H                    0     12.48906  -4.40095  -0.19539 
 C                    0     12.97129  -3.4977    1.73012 
 H                    0     12.39971  -3.25269   2.63243 
 C                    0     14.0091  -4.57014   2.07079 
 H                    0     14.5632  -4.88048   1.17463 
 H                    0     14.73617  -4.17611   2.78755 
 H                    0     13.5512  -5.45463   2.52138 
 C                    0     13.65662  -2.22336   1.23081 
 H                    0     14.13139  -2.38544   0.25536 
 H                    0     12.93469  -1.40816   1.12371 
 H                    0     14.4273  -1.90175   1.93894 
 C                    0     11.00715  -5.08176   1.27385 
 O                    0     9.92106  -4.73601   1.73127 
 N                    0     11.45041  -6.35815   1.29884 
 H                    0     12.29418  -6.57496   0.78952 
 C                    -1    10.65812  -7.4663    1.84263 
 H                    0     9.92602  -7.01015   2.51159 
 C                    0     9.94075  -8.3089    0.77323 
 H                    0     9.71694  -7.65214  -0.07623 
 H                    0     10.60591  -9.09533   0.39719 
 C                    0     8.66538  -8.89258   1.29673 
 C                    0     8.36569  -10.19545   1.58196 
 H                    0     8.98108  -11.0804   1.49221 
 N                    0     7.0657   -10.29034   2.02501 
 H                    0     6.59086  -11.1451   2.26015 
 C                    0     6.49117  -9.03806   2.02587 
 C                    0     5.19153  -8.63354   2.34813 
 H                    0     4.41951  -9.32593   2.67093 
 C                    0     4.91034  -7.28241   2.25806 
 H                    0     3.90698  -6.9518    2.50795 
 C                    0     5.89705  -6.35296   1.8755 
 H                    0     5.6673   -5.29324   1.87961 
 C                    0     7.1747   -6.76061   1.53953 
 H                    0     7.94376  -6.02889   1.30316 
 C                    0     7.47938  -8.12983   1.59184 
 H                    0     11.3144  -8.09088   2.45603 
 H                    0     11.32984  -6.23696  -3.56146 
 C                    -1    10.3664  -6.00241  -4.02456 
 H                    0     10.27256  -6.59646  -4.93892 
 C                    0     9.21508  -6.30622  -3.07637 
 H                    0     8.25105  -6.09274  -3.54591 
 H                    0     9.22463  -7.35654  -2.77243 
 S                    0     9.43429  -5.2476   -1.61016 
 H                    0     8.42079  -5.71928  -0.864 
 H                    0     10.37553  -4.94458  -4.3081 
 H                    0     4.54159  -4.83594  -5.29206 
 C                    -1    3.50759  -5.16389  -5.13201 
 H                    0     3.38663  -6.16202  -5.57189 
 C                    0     3.15183  -5.14769  -3.65266 
 H                    0     3.33462  -4.13487  -3.27596 
 H                    0     3.81825  -5.8162   -3.09063 
 C                    0     1.69244  -5.52923  -3.3801 
 H                    0     1.07527  -5.04259  -4.14721 
 C                    0     1.46793  -7.04022  -3.48177 
 H                    0     1.77895  -7.44188  -4.45322 
 H                    0     2.03311  -7.5665   -2.70174 
 H                    0     0.40834  -7.28439  -3.34392 
 C                    0     1.26049  -5.00128  -2.01848 
 H                    0     1.44635  -3.9234   -1.94083 
 H                    0     1.82096  -5.5053   -1.22263 
 H                    0     0.19779  -5.17029  -1.82409 
 H                    0     2.8472   -4.46852  -5.66717 
 H                    0    -1.72852  -3.40264  -6.61014 
 C                    -1   -2.45708  -3.08794  -5.85675 
 H                    0    -2.86249  -3.97758  -5.35884 
 C                    0    -1.78362  -2.14871  -4.83319 
 H                    0    -1.53674  -1.221    -5.36582 
 C                    0    -2.71913  -1.81102  -3.66917 
 H                    0    -2.23437  -1.09954  -2.99157 
 H                    0    -3.65841  -1.35721  -3.99955 
 H                    0    -2.96033  -2.71475  -3.09304 
 C                    0    -0.48877  -2.76116  -4.30213 
 H                    0     0.02109  -2.06645  -3.62402 
 H                    0     0.20513  -3.00507  -5.11672 
 H                    0    -0.69575  -3.67836  -3.73676 
 C                    0    -3.55489  -2.31559  -6.60309 
 O                    0    -3.25702  -1.46998  -7.44322 
 N                    0    -4.85127  -2.56281  -6.2515 
 H                    0    -5.06968  -3.30459  -5.58674 
 C                    -1   -5.96277  -1.77334  -6.78657 
 H                    0    -5.49697  -1.00021  -7.40691 
 C                    0    -6.9289   -2.602    -7.65292 
 H                    0    -7.30416  -3.42225  -7.027 
 C                    0    -8.12173  -1.742    -8.08018 
 H                    0    -8.81911  -2.31462  -8.69733 
 H                    0    -8.68537  -1.37931  -7.21483 
 H                    0    -7.78845  -0.87531  -8.66728 
 C                    0    -6.18032  -3.20654  -8.84732 
 H                    0    -5.27674  -3.70151  -8.47581 
 H                    0    -5.8384   -2.39612  -9.50609 
 C                    0    -7.00452  -4.21555  -9.64598 
 H                    0    -7.38331  -5.012    -8.99506 
 H                    0    -6.3939   -4.68223  -10.42597 
 H                    0    -7.86484  -3.74978  -10.1378 
 C                    0    -6.69642  -1.15226  -5.60001 
 O                    0    -7.27127  -1.87132  -4.78878 
 N                    0    -6.68731   0.19443  -5.5013 
 H                    0    -6.30245   0.72293  -6.27117 
 C                    -1   -7.48519   0.8967   -4.50526 
 H                    0    -7.70102   0.20343  -3.69025 
 C                    0    -6.83579   2.15761  -3.98331 
 H                    0    -6.48835   2.80307  -4.79795 
 H                    0    -7.58738   2.74472  -3.44363 
 C                    0    -5.68336   1.94472  -3.03402 
 O                    0    -5.22021   0.87197  -2.70258 
 O                    0    -5.21593   3.11637  -2.61043 
 H                    0    -4.49812   2.97356  -1.94733 
 H                    0    -8.4536    1.15975  -4.94981 
 H                    0    -12.38206   3.70571  -2.95921 
 C                    -1   -12.49245   4.78972  -3.07809 
 H                    0    -12.62587   5.22419  -2.08071 
 C                    0    -11.27784   5.39626  -3.78364 
 H                    0    -11.42324   6.47499  -3.91441 
 H                    0    -11.17843   4.96623  -4.78769 
 C                    0    -9.99126   5.157    -2.9961 
 H                    0    -9.8128    4.0797   -2.89054 
 H                    0    -10.08797   5.58162  -1.98939 
 S                    0    -8.55805   5.93842  -3.80923 
 C                    0    -7.32725   5.82814  -2.47792 
 H                    0    -7.03822   4.79549  -2.26614 
 H                    0    -6.4386    6.36788  -2.81453 
 H                    0    -7.69795   6.30743  -1.56738 
 H                    0    -13.40907   4.96945  -3.64817 
 H                    0    -11.86223   3.31495   1.43943 
 C                    -1   -11.04839   3.00431   0.7786 
 H                    0    -11.33926   3.25671  -0.25061 
 C                    0    -9.76968   3.7629    1.1579 
 H                    0    -10.02869   4.82627   1.23588 
 H                    0    -9.42902   3.45078   2.1495 
 C                    0    -8.62729   3.67263   0.1449 
 H                    0    -9.01913   3.85103  -0.85987 
 H                    0    -7.9063    4.46622   0.35731 
 S                    0    -7.68682   2.10395   0.06376 
 C                    0    -6.14254   2.6122    0.86573 
 H                    0    -6.28225   2.82942   1.92663 
 H                    0    -5.71934   3.48364   0.36008 
 H                    0    -5.44245   1.77754   0.76724 
 C                    0    -10.91857   1.49187   0.96717 
 O                    0    -10.92904   1.0329    2.10426 
 N                    0    -10.81022   0.72683  -0.14452 
 H                    0    -10.70099   1.1731   -1.04532 
 C                    -1   -10.49563  -0.70185  -0.13305 
 H                    0    -10.34368  -0.99171   0.90967 
 C                    0    -11.58824  -1.54152  -0.78968 
 H                    0    -11.63359  -1.2802   -1.85103 
 H                    0    -11.28573  -2.59476  -0.73602 
 C                    0    -12.96097  -1.36218  -0.14977 
 H                    0    -12.92407  -1.47012   0.93974 
 H                    0    -13.34221  -0.3588   -0.37571 
 C                    0    -13.92339  -2.37875  -0.73779 
 O                    0    -14.00085  -2.531    -1.97351 
 N                    0    -14.64818  -3.05531   0.1487 
 H                    0    -14.45197  -2.96521   1.17062 
 H                    0    -15.19117  -3.83563  -0.19116 
 C                    0    -9.20034  -0.87927  -0.95308 
 O                    0    -9.11939  -0.33815  -2.05719 
 N                    0    -8.23801  -1.66598  -0.42275 
 H                    0    -8.32947  -1.96705   0.54741 
 C                    -1   -6.96981  -1.92115  -1.1011 
 H                    0    -6.98793  -1.33239  -2.02108 
 C                    0    -5.77558  -1.50657  -0.25429 
 H                    0    -4.85083  -1.62564  -0.82958 
 H                    0    -5.68381  -2.10249   0.65632 
 H                    0    -5.87188  -0.4511    0.01297 
 C                    0    -6.90113  -3.42163  -1.45425 
 O                    0    -6.58327  -4.27491  -0.61792 
 N                    0    -7.22157  -3.74746  -2.7168 
 H                    0    -7.33641  -3.00687  -3.40366 
 C                    -1   -7.28205  -5.12144  -3.20117 
 H                    0    -7.72025  -5.73887  -2.41068 
 C                    0    -8.14501  -5.19041  -4.47217 
 H                    0    -7.96396  -6.16205  -4.94551 
 H                    0    -7.7636   -4.43116  -5.16338 
 C                    0    -9.62906  -5.01916  -4.23583 
 C                    0    -10.19576  -3.79074  -3.87157 
 H                    0    -9.57341  -2.90674  -3.76128 
 C                    0    -11.56116  -3.66471  -3.65411 
 H                    0    -11.99402  -2.71691  -3.35678 
 C                    0    -12.4117  -4.76848  -3.79398 
 O                    0    -13.73398  -4.69903  -3.55972 
 H                    0    -13.92803  -3.91628  -2.98442 
 C                    0    -11.86386  -5.98979  -4.19726 
 H                    0    -12.52097  -6.84593  -4.31607 
 C                    0    -10.49364  -6.10469  -4.40165 
 H                    0    -10.08544  -7.07032  -4.69545 
 C                    0    -5.84482  -5.60823  -3.51798 
 O                    0    -5.2286   -5.1634   -4.49024 
 N                    0    -5.32896  -6.56271  -2.70542 
 H                    0    -5.7807   -6.77921  -1.82402 
 C                    -1   -4.02109  -7.16385  -2.91532 
 H                    0    -3.97473  -7.50698  -3.95676 
 C                    0    -2.86167  -6.14936  -2.70654 
 H                    0    -1.93052  -6.61044  -3.0651 
 H                    0    -3.06875  -5.31615  -3.38354 
 C                    0    -2.66754  -5.65805  -1.30582 
 C                    0    -3.31196  -4.60875  -0.69877 
 H                    0    -4.10861  -3.98373  -1.07523 
 N                    0    -2.84121  -4.42593   0.57285 
 H                    0    -3.15388  -3.69825   1.22239 
 C                    0    -1.86693  -5.35839   0.82346 
 C                    0    -1.07477  -5.5501    1.96031 
 H                    0    -1.17425  -4.90614   2.82944 
 C                    0    -0.13578  -6.56577   1.92078 
 H                    0     0.52505  -6.72304   2.76356 
 C                    0     0.0115   -7.38091   0.78222 
 H                    0     0.78483  -8.14447   0.78114 
 C                    0    -0.78389  -7.19737  -0.33498 
 H                    0    -0.65341  -7.82538  -1.21279 
 C                    0    -1.73877  -6.16855  -0.3324 
 C                    0    -3.87375  -8.36533  -1.97109 
 O                    0    -4.61366  -8.53882  -1.01774 
 N                    0    -2.84376  -9.21049  -2.27979 
 H                    0    -2.23113  -8.93922  -3.03352 
 C                    -1   -2.37277  -10.26336  -1.37207 
 H                    0    -2.36471  -9.8727   -0.3486 
 C                    0    -3.24467  -11.51049  -1.46716 
 H                    0    -4.2542   -11.27202  -1.10777 
 H                    0    -2.82993  -12.29285  -0.82485 
 O                    0    -3.26749  -12.03369  -2.77921 
 H                    0    -3.69982  -11.36667  -3.32715 
 H                    0    -1.34707  -10.5039  -1.6638 
 H                    0     3.37377  -10.09894  -4.90894 
 C                    -1    4.29312  -9.64483  -4.52464 
 H                    0     4.19302  -8.55849  -4.63712 
 C                    0     4.53542  -10.03792  -3.0702 
 H                    0     4.56937  -11.13345  -3.00524 
 H                    0     3.68391  -9.72199  -2.45111 
 C                    0     5.82775  -9.47357  -2.46075 
 H                    0     6.64432  -9.66391  -3.17501 
 C                    0     5.75289  -7.96158  -2.21721 
 H                    0     4.93473  -7.71958  -1.52681 
 H                    0     6.67783  -7.59785  -1.75179 
 H                    0     5.59413  -7.40107  -3.14634 
 C                    0     6.15926  -10.19835  -1.15767 
 H                    0     5.37203  -10.03034  -0.41352 
 H                    0     6.2525   -11.27911  -1.31837 
 H                    0     7.09778  -9.83467  -0.72875 
 H                    0     5.12243  -9.97205  -5.16298 
 O                    0    -0.39427  -0.59572   4.20278 
 H                    0     0.07469  -1.37918   4.57376 
 H                    0    -1.3083   -0.89928   3.94573 
 O                    0     5.77013  -1.1307    4.23178 
 H                    0     5.4431   -0.20666   4.22985 
 H                    0     5.45722  -1.58225   3.40428 
 O                    0     0.74514   2.05388   4.33505 
 H                    0     0.53159   1.18356   3.95209 
 H                    0     0.24555   2.00053   5.16911 
 O                    0     4.42677  -4.50994   4.38518 
 H                    0     5.22116  -5.07906   4.62188 
 H                    0     4.32045  -3.81973   5.07881 
 O                    0     3.80253  -2.30242   5.87551 
 H                    0     4.46219  -1.76229   5.40219 
 H                    0     4.06224  -2.31407   6.8357 
 O                    0     1.05062  -2.57795   5.50529 
 H                    0     1.97357  -2.26225   5.60274 
 H                    0     1.15929  -3.37529   4.92267 
 O                    0     1.64282  -4.77865   4.13399 
 H                    0     2.61065  -4.82242   4.04119 
 H                    0     1.36978  -5.65114   4.50433 
 O                    0     7.81447   1.85495   4.78166 
 H                    0     6.88424   1.899     4.49335 
 H                    0     7.75862   1.48856   5.69353 
 O                    0     8.27367  -0.4089    3.24136 
 H                    0     8.30401   0.44131   3.72758 
 H                    0     7.47549  -0.83993   3.59955 
 O                    0    -2.19301  -3.19429   6.01366 
 H                    0    -3.12502  -3.48168   6.11699 
 H                    0    -2.27787  -2.56365   5.26989 
 O                    0    -0.49586   0.72918   6.53323 
 H                    0    -0.58893   0.21787   5.68485 
 H                    0    -1.40246   1.0085    6.73978 
 O                    0     1.28002  -4.38938   7.56363 
 H                    0     1.09996  -3.67626   6.90749 
 H                    0     1.49917  -3.90684   8.38563 
 O                    0     7.77578   1.28238   7.45425 
 H                    0     8.46116   1.93008   7.67518 
 H                    0     6.93179   1.64975   7.78289 
 O                    0     3.2668   -5.97166   6.66334 
 H                    0     3.4815   -5.67192   5.76444 
 H                    0     2.59056  -5.32615   6.99162 
 O                    0     4.41617  -2.38922   8.43748 
 H                    0     5.14654  -1.75879   8.62524 
 H                    0     3.58897  -2.19307   8.92541 
 O                    0    -0.52387  -1.70093   7.96915 
 H                    0    -0.46319  -0.88511   7.43119 
 H                    0    -1.07119  -2.3091    7.42887 
 O                    0     1.04463  -7.12782   5.33515 
 H                    0     1.74198  -7.02079   6.00972 
 H                    0     0.21439  -6.75567   5.73167 
 O                    0     8.56282   5.31842   2.31313 
 H                    0     8.25664   5.39097   3.23131 
 H                    0     7.88455   5.81756   1.8174 
 O                    0     6.82782  -1.29136   8.26533 
 H                    0     7.09847  -1.87448   7.5271 
 H                    0     7.30381  -0.46036   8.11221 
 O                    0     7.17507  -2.92304   5.97742 
 H                    0     6.56188  -3.61199   6.326 
 H                    0     6.6439   -2.35644   5.39245 
 O                    0     6.52535   6.28282   0.66205 
 H                    0     5.79853   6.844     0.34386 
 H                    0     7.04835   6.07903  -0.13274 
 O                    0     5.59349  -4.65708   7.41915 
 H                    0     5.26697  -3.9835    8.04654 
 H                    0     4.80525  -5.21852   7.24852 
 O                    0     1.8165   -2.33447   9.28087 
 H                    0     1.05778  -2.02361   8.73197 
 H                    0     1.52467  -2.18685   10.20214 
 O                    0    -0.91159  -5.68542   6.50177 
 H                    0    -0.29934  -5.29153   7.1509 
 H                    0    -1.32659  -4.90483   6.08639 
 O                    0     8.7768   -4.7596    4.45661 
 H                    0     8.4224   -3.95416   4.87849 
 H                    0     9.03007  -4.52983   3.55042 
 O                    0     6.46034  -6.0359    5.10237 
 H                    0     6.55792  -5.88664   6.05458 
 H                    0     7.31409  -5.73224   4.71625 
 O                    0     10.51055  -1.69134   2.66699 
 H                    0     9.65879  -1.30765   2.99565 
 H                    0     11.15592  -0.99348   2.822 
 O                    0     1.91492  -8.8517    3.27609 
 H                    0     1.61855  -8.34154   4.05372 
 H                    0     1.08621  -9.10137   2.85215 
 C                    0    -2.4436    2.53413  -0.29965 
 O                    0    -3.31322   3.28385  -0.7843 
 C                    0    -2.46053   1.12103  -0.54044 
 C                    0    -1.53576   0.29973   0.01609 
 C                    0    -0.32282   0.83733   0.74827 
 C                    0    -0.10216   2.33334   0.52012 
 C                    0    -1.40429   3.11071   0.61871 
 C                    0    -1.73807  -1.18137  -0.0123 
 C                    0    -0.45433  -1.98406  -0.2135 
 C                    0     0.6375   -1.47316   0.72381 
 C                    0     0.92692   0.00476   0.39519 
 C                    0     1.90162  -2.30064   0.65474 
 C                    0     3.05556  -1.72107   1.49497 
 C                    0     3.41524  -0.34419   0.94034 
 C                    0     2.20005   0.58754   1.04069 
 C                    0     1.82127  -3.74994   1.10938 
 C                    0     3.30158  -4.15235   1.20721 
 C                    0     4.11096  -2.82556   1.29689 
 C                    0     2.69293  -1.6088    2.97896 
 O                    0     5.14342  -2.85919   2.28826 
 H                    0    -3.31217   0.7275   -1.09356 
 H                    0    -0.51847   0.67333   1.82171 
 H                    0     0.34303   2.4898   -0.47281 
 H                    0     0.60364   2.71864   1.26092 
 H                    0    -1.79728   3.04688   1.64409 
 H                    0    -1.2684    4.1711    0.38074 
 H                    0    -2.49722  -1.44407  -0.75444 
 H                    0    -2.17641  -1.4563    0.96287 
 H                    0    -0.11185  -1.90562  -1.25589 
 H                    0    -0.66701  -3.04085  -0.02797 
 H                    0     0.23965  -1.52877   1.74671 
 H                    0     1.06924   0.06502  -0.69713 
 H                    0     2.24962  -2.30037  -0.39119 
 H                    0     3.72964  -0.43975  -0.10923 
 H                    0     4.26274   0.09721   1.48423 
 H                    0     2.00887   0.82477   2.0956 
 H                    0     2.4432    1.54095   0.55749 
 H                    0     1.24927  -4.3902    0.43974 
 H                    0     1.34125  -3.82435   2.08812 
 H                    0     3.61993  -4.74019   0.34009 
 H                    0     3.47985  -4.77749   2.08292 
 H                    0     4.62637  -2.62528   0.35316 
 H                    0     2.73916  -2.57668   3.47656 
 H                    0     3.38277  -0.93569   3.49578 
 H                    0     1.6919   -1.20903   3.1365 
 H                    0     4.88501  -3.5093    2.98385 
 
 Stoichiometry    C246H453N38O74S5(1-)
 Framework group  C1[X(C246H453N38O74S5)]
 Deg. of freedom  2442
 Full point group                 C1      NOp   1
 Largest Abelian subgroup         C1      NOp   1
 Largest concise Abelian subgroup C1      NOp   1
                         Standard orientation:                         
 ---------------------------------------------------------------------
 Center     Atomic      Atomic             Coordinates (Angstroms)
 Number     Number       Type             X           Y           Z
 ---------------------------------------------------------------------
      1          1           0       -3.270157   11.036901   -4.566888
      2          6           0       -3.171736   10.317268   -3.743474
      3          1           0       -3.032056   10.881353   -2.818636
      4          6           0       -4.452962    9.467123   -3.651362
      5          1           0       -5.297578   10.144311   -3.484161
      6          1           0       -4.644810    8.975683   -4.614096
      7          6           0       -4.396400    8.425517   -2.560093
      8          6           0       -4.992927    8.602805   -1.310339
      9          1           0       -5.552213    9.512142   -1.104067
     10          6           0       -4.901299    7.627749   -0.318603
     11          1           0       -5.383504    7.761676    0.645355
     12          6           0       -4.193995    6.457750   -0.578856
     13          8           0       -4.081010    5.502201    0.388943
     14          1           0       -3.726081    4.673853   -0.022828
     15          6           0       -3.597609    6.257377   -1.820526
     16          1           0       -3.064161    5.337161   -2.027811
     17          6           0       -3.701055    7.238845   -2.788874
     18          1           0       -3.216649    7.082826   -3.745140
     19          6           0       -1.863748    9.527224   -3.934991
     20          8           0       -0.952041    9.598940   -3.120946
     21          7           0       -1.761175    8.752709   -5.058416
     22          1           0       -2.493371    8.804362   -5.752288
     23          6           0       -0.521499    8.070277   -5.425196
     24          1           0       -0.000374    7.851164   -4.489980
     25          6           0       -0.727361    6.793150   -6.243841
     26          1           0       -1.296972    7.051874   -7.149047
     27          6           0        0.644579    6.279888   -6.694777
     28          1           0        0.549127    5.322337   -7.217626
     29          1           0        1.309058    6.127140   -5.837335
     30          1           0        1.133794    6.990021   -7.371041
     31          6           0       -1.531159    5.718178   -5.498294
     32          1           0       -2.562546    6.066557   -5.391918
     33          1           0       -1.591561    4.822207   -6.127027
     34          6           0       -0.989029    5.343078   -4.122368
     35          1           0       -1.584595    4.531481   -3.694074
     36          1           0       -1.027946    6.192077   -3.433304
     37          1           0        0.048734    4.991884   -4.170687
     38          1           0        0.122677    8.761012   -5.989383
     39          1           0        1.709100    8.992584   -1.435387
     40          6           0        2.151033    8.049607   -1.091301
     41          1           0        2.180538    8.065356    0.001328
     42          6           0        1.265505    6.880943   -1.579226
     43          1           0        1.151863    6.979536   -2.668175
     44          6           0        1.886694    5.512101   -1.294832
     45          1           0        2.883901    5.405839   -1.734121
     46          1           0        1.982850    5.347411   -0.217001
     47          1           0        1.252593    4.717417   -1.705847
     48          6           0       -0.121758    6.992513   -0.944103
     49          1           0       -0.755697    6.151471   -1.244511
     50          1           0       -0.628836    7.915530   -1.242903
     51          1           0       -0.041704    6.974445    0.149986
     52          6           0        3.601858    7.929541   -1.557109
     53          8           0        4.501595    7.590625   -0.790048
     54          7           0        3.857018    8.163749   -2.872785
     55          1           0        3.111728    8.526308   -3.449813
     56          6           0        5.210236    8.106065   -3.437807
     57          1           0        5.650044    7.145369   -3.143213
     58          6           0        5.206354    8.244149   -4.953494
     59          1           0        4.586593    7.467053   -5.412847
     60          1           0        4.821548    9.227997   -5.241261
     61          6           0        6.669436    8.118288   -5.391124
     62          8           0        7.062707    7.032859   -5.880533
     63          8           0        7.396090    9.114918   -5.107062
     64          1           0        5.824654    8.900848   -3.001423
     65          1           0       -1.963943   12.518184    2.987557
     66          6           0       -2.727943   11.774622    2.733344
     67          1           0       -2.990480   11.911234    1.676635
     68          6           0       -2.223247   10.349200    2.982059
     69          1           0       -1.975621   10.259402    4.050846
     70          6           0       -3.311669    9.319371    2.660733
     71          1           0       -3.517980    9.299604    1.583063
     72          1           0       -4.249086    9.561287    3.175435
     73          1           0       -3.020044    8.307973    2.964260
     74          6           0       -0.936333   10.094822    2.182492
     75          1           0       -1.163077   10.168044    1.109313
     76          1           0       -0.221913   10.899547    2.402273
     77          6           0       -0.272611    8.749189    2.466051
     78          1           0        0.682888    8.663560    1.937210
     79          1           0       -0.077945    8.623304    3.539034
     80          1           0       -0.905279    7.915151    2.147543
     81          1           0       -3.622225   11.988864    3.329256
     82          1           0       -8.602852   11.462591    3.221118
     83          6           0       -9.425351   11.276138    3.919937
     84          1           0      -10.258369   10.858066    3.345008
     85          6           0       -8.985451   10.309376    5.020723
     86          1           0       -8.167512   10.754487    5.599590
     87          1           0       -9.815143   10.149388    5.720693
     88          6           0       -8.543817    8.995844    4.429438
     89          6           0       -7.198865    8.660255    4.307569
     90          1           0       -6.439322    9.334071    4.699483
     91          6           0       -6.798422    7.477487    3.691563
     92          1           0       -5.743208    7.239865    3.605152
     93          6           0       -7.759307    6.599309    3.187460
     94          8           0       -7.441018    5.418770    2.605363
     95          1           0       -6.520731    5.191274    2.830143
     96          6           0       -9.111857    6.932425    3.284281
     97          1           0       -9.852166    6.239908    2.899093
     98          6           0       -9.489821    8.112070    3.901485
     99          1           0      -10.547985    8.351657    3.983331
    100          1           0       -9.748789   12.238010    4.334170
    101          1           0      -10.564791    2.165075    5.927605
    102          6           0       -9.775884    1.943789    5.197400
    103          1           0      -10.178834    2.162850    4.201526
    104          6           0       -8.535032    2.792849    5.496984
    105          1           0       -8.164761    2.483154    6.481155
    106          6           0       -7.430526    2.526871    4.471094
    107          1           0       -6.550980    3.155050    4.662554
    108          1           0       -7.110923    1.480178    4.500472
    109          1           0       -7.788401    2.748481    3.459111
    110          6           0       -8.907147    4.272989    5.539690
    111          1           0       -9.650804    4.476417    6.319128
    112          1           0       -8.032105    4.905825    5.732692
    113          1           0       -9.329547    4.590648    4.580856
    114          6           0       -9.457107    0.441958    5.323860
    115          8           0       -8.743877    0.013611    6.230987
    116          7           0      -10.019526   -0.368479    4.395794
    117          1           0      -10.470870    0.039292    3.580552
    118          6           0       -9.842851   -1.814291    4.406947
    119          1           0       -9.726027   -2.118674    5.451315
    120          6           0      -11.039709   -2.525431    3.776241
    121          1           0      -11.170602   -2.172227    2.747568
    122          1           0      -10.787989   -3.591913    3.715463
    123          6           0      -12.358108   -2.349277    4.530454
    124          1           0      -12.566545   -1.279239    4.645032
    125          1           0      -12.293238   -2.805880    5.523762
    126          6           0      -13.509654   -3.006565    3.725746
    127          8           0      -13.792538   -2.401711    2.646984
    128          8           0      -14.003361   -4.057296    4.166340
    129          6           0       -8.559393   -2.164483    3.623415
    130          8           0       -8.544371   -2.143822    2.392472
    131          7           0       -7.461372   -2.491595    4.350945
    132          1           0       -7.476636   -2.303479    5.345753
    133          6           0       -6.172985   -2.729771    3.717510
    134          1           0       -6.396248   -3.038042    2.697757
    135          6           0       -5.322563   -1.440114    3.687176
    136          1           0       -5.353290   -0.971087    4.672207
    137          1           0       -5.786798   -0.755787    2.966975
    138          6           0       -3.870749   -1.700348    3.262179
    139          8           0       -3.702196   -2.340470    2.202928
    140          8           0       -2.952233   -1.249857    4.014864
    141          6           0       -5.368068   -3.804095    4.456144
    142          8           0       -4.933680   -3.548043    5.591830
    143          7           0       -5.066999   -4.942664    3.815523
    144          6           0       -4.253928   -5.964048    4.483243
    145          1           0       -3.198622   -5.664996    4.451550
    146          1           0       -4.551812   -6.046872    5.530044
    147          6           0       -4.512881   -7.233448    3.672006
    148          1           0       -3.651451   -7.906029    3.680949
    149          1           0       -5.380993   -7.756105    4.080948
    150          6           0       -4.832975   -6.707314    2.269574
    151          1           0       -5.404068   -7.409859    1.658405
    152          1           0       -3.915265   -6.469574    1.727798
    153          6           0       -5.620615   -5.414060    2.537787
    154          1           0       -5.455834   -4.679186    1.744909
    155          6           0       -7.124243   -5.740623    2.711739
    156          8           0       -7.533601   -6.238167    3.753925
    157          7           0       -7.886079   -5.486405    1.628959
    158          1           0       -7.453979   -5.038290    0.826002
    159          6           0       -9.294150   -5.846862    1.533344
    160          1           0       -9.677892   -5.957855    2.550692
    161          6           0      -10.101385   -4.799345    0.762353
    162          1           0       -9.634510   -4.620345   -0.216463
    163          1           0      -10.071509   -3.852273    1.312440
    164          6           0      -11.517684   -5.287171    0.572783
    165          6           0      -12.412306   -5.302120    1.642990
    166          1           0      -12.132066   -4.901214    2.610327
    167          6           0      -13.692608   -5.823842    1.500520
    168          1           0      -14.363606   -5.757072    2.351767
    169          6           0      -14.092269   -6.349217    0.273959
    170          1           0      -15.093235   -6.757861    0.153636
    171          6           0      -13.213441   -6.331261   -0.807030
    172          1           0      -13.526088   -6.705390   -1.776890
    173          6           0      -11.933554   -5.804135   -0.655000
    174          1           0      -11.250105   -5.793363   -1.500457
    175          1           0       -9.397653   -6.822632    1.039221
    176          1           0       -1.395718    3.944896   10.604120
    177          6           0       -1.499311    3.174687    9.827232
    178          1           0       -1.207486    2.226439   10.279113
    179          6           0       -2.963878    3.103466    9.367782
    180          1           0       -3.273579    4.028975    8.864663
    181          1           0       -3.585076    3.043122   10.268432
    182          6           0       -3.245134    1.909054    8.487303
    183          6           0       -3.242414    0.630291    9.052194
    184          1           0       -3.042778    0.514495   10.115356
    185          6           0       -3.496933   -0.491167    8.272861
    186          1           0       -3.489293   -1.478779    8.721438
    187          6           0       -3.754763   -0.351710    6.912275
    188          1           0       -3.946627   -1.224413    6.301458
    189          6           0       -3.751884    0.915701    6.335478
    190          1           0       -3.930898    1.013088    5.269618
    191          6           0       -3.499872    2.043601    7.119830
    192          1           0       -3.506723    3.031966    6.663069
    193          6           0       -0.452468    3.525054    8.763216
    194          8           0        0.664228    2.986724    8.777958
    195          7           0       -0.755641    4.512417    7.897960
    196          1           0       -1.716354    4.818471    7.856844
    197          6           0        0.174660    5.142534    6.955280
    198          1           0        0.428570    4.440153    6.151473
    199          6           0       -0.450166    6.409516    6.366473
    200          1           0       -0.760559    7.070967    7.184764
    201          1           0        0.331538    6.939098    5.810591
    202          6           0       -1.608614    6.102096    5.449086
    203          6           0       -2.924015    6.017104    5.913921
    204          1           0       -3.152960    6.274752    6.947529
    205          6           0       -3.969673    5.644446    5.075131
    206          1           0       -4.990062    5.581867    5.439969
    207          6           0       -3.708206    5.382933    3.730843
    208          8           0       -4.737207    5.025175    2.923062
    209          1           0       -4.515089    5.209907    1.981521
    210          6           0       -2.405899    5.495849    3.240609
    211          1           0       -2.215914    5.338428    2.184908
    212          6           0       -1.371598    5.831545    4.100963
    213          1           0       -0.359132    5.897037    3.709585
    214          1           0        1.095267    5.377810    7.500782
    215          1           0        2.961295    3.178422    9.966120
    216          6           0        3.719741    2.392655    9.885430
    217          1           0        4.610715    2.696664   10.435904
    218          6           0        3.134996    1.046020   10.375196
    219          1           0        3.912633    0.457237   10.869701
    220          1           0        2.831395    0.458674    9.501351
    221          6           0        1.907027    1.185163   11.304429
    222          1           0        2.197352    1.165286   12.356799
    223          1           0        1.390148    2.126110   11.094573
    224          6           0        0.974852    0.016947   11.029763
    225          8           0        1.065231   -1.048463   11.636869
    226          7           0        0.109168    0.222029   10.010503
    227          1           0        0.241602    1.027993    9.407583
    228          1           0       -0.409612   -0.560307    9.615120
    229          6           0        4.116078    2.262890    8.395002
    230          8           0        5.302994    2.259913    8.038356
    231          7           0        3.122124    2.113910    7.476598
    232          1           0        2.160868    2.226637    7.799267
    233          6           0        3.314316    1.501690    6.150209
    234          1           0        2.353466    1.529193    5.617777
    235          1           0        3.634123    0.459803    6.250573
    236          6           0        4.330803    2.200148    5.253881
    237          8           0        5.039676    1.542180    4.476462
    238          7           0        4.382546    3.541430    5.300689
    239          1           0        3.736657    3.995943    5.933577
    240          6           0        5.230573    4.385732    4.459960
    241          1           0        5.650484    3.744725    3.680257
    242          6           0        4.421358    5.514214    3.815611
    243          1           0        4.094017    6.211206    4.600892
    244          1           0        5.103823    6.070163    3.164318
    245          6           0        3.203308    5.031413    3.014313
    246          1           0        2.524959    4.486330    3.685369
    247          6           0        2.453989    6.244837    2.458174
    248          1           0        1.524631    5.938696    1.963546
    249          1           0        2.189633    6.955925    3.250413
    250          1           0        3.069637    6.772753    1.719165
    251          6           0        3.607036    4.079826    1.885927
    252          1           0        4.338657    4.557763    1.222382
    253          1           0        4.035767    3.147185    2.269911
    254          1           0        2.732924    3.802578    1.287728
    255          6           0        6.437224    4.959308    5.247948
    256          8           0        7.161476    5.803069    4.728306
    257          7           0        6.653355    4.519902    6.512498
    258          1           0        6.066852    3.786085    6.898678
    259          6           0        7.652556    5.146571    7.373653
    260          1           0        7.599213    6.231853    7.262503
    261          1           0        7.407302    4.896183    8.408690
    262          6           0        9.140787    4.784094    7.156698
    263          8           0        9.975706    5.409307    7.789220
    264          7           0        9.455314    3.746359    6.330133
    265          1           0        8.752161    3.387821    5.685775
    266          6           0       10.856225    3.481867    5.985533
    267          1           0       10.907607    2.504979    5.501028
    268          1           0       11.457758    3.478332    6.895812
    269          1           0       11.251250    4.248536    5.309674
    270          1           0       11.541691    4.204990    1.640540
    271          6           0       11.857203    3.825590    0.663012
    272          1           0       12.382198    4.636466    0.146400
    273          6           0       12.816086    2.634277    0.855918
    274          1           0       13.588353    2.963432    1.559208
    275          1           0       12.283034    1.812445    1.353134
    276          6           0       13.501084    2.113455   -0.425065
    277          1           0       14.512498    1.765293   -0.183752
    278          1           0       13.612648    2.949626   -1.125778
    279          6           0       12.726302    0.981722   -1.109973
    280          1           0       11.670087    1.253392   -1.098183
    281          1           0       12.859718    0.040168   -0.564715
    282          6           0       13.128306    0.792767   -2.565195
    283          1           0       14.121665    0.350819   -2.675589
    284          1           0       13.099805    1.749793   -3.092213
    285          7           0       12.151816   -0.107392   -3.258917
    286          1           0       12.398057   -0.252515   -4.239494
    287          1           0       11.202481    0.324747   -3.234585
    288          1           0       12.086897   -1.061010   -2.796744
    289          6           0       10.623111    3.481585   -0.195206
    290          8           0       10.783884    3.154599   -1.379853
    291          7           0        9.392898    3.486780    0.370311
    292          1           0        9.210838    4.031723    1.225280
    293          6           0        8.225994    3.116531   -0.441813
    294          1           0        8.449667    2.135672   -0.882920
    295          6           0        6.915003    3.009527    0.356428
    296          1           0        6.612683    4.017777    0.658520
    297          6           0        5.821438    2.407437   -0.535993
    298          1           0        5.631981    2.998960   -1.437464
    299          1           0        6.089852    1.390483   -0.854641
    300          1           0        4.882042    2.336887    0.021210
    301          6           0        7.108096    2.161447    1.611527
    302          1           0        7.525084    1.173606    1.387735
    303          1           0        7.770882    2.652715    2.329132
    304          1           0        6.141820    1.999027    2.102866
    305          6           0        8.110995    4.129684   -1.613031
    306          8           0        8.195928    5.355139   -1.420403
    307          7           0        7.927200    3.611656   -2.832908
    308          1           0        7.934862    2.603570   -2.929188
    309          6           0        7.670788    4.373234   -4.049833
    310          1           0        7.608441    5.427652   -3.788356
    311          6           0        8.767242    4.137269   -5.111654
    312          1           0        8.726916    4.979384   -5.811555
    313          1           0        8.513876    3.236974   -5.685060
    314          6           0       10.175840    3.932154   -4.543606
    315          1           0       10.854201    3.741764   -5.387680
    316          1           0       10.190995    3.041599   -3.908317
    317          6           0       10.735201    5.081470   -3.705313
    318          1           0       10.147190    5.228562   -2.801127
    319          1           0       11.741680    4.832676   -3.358177
    320          7           0       10.800549    6.332354   -4.450951
    321          1           0       11.384001    6.321169   -5.274712
    322          6           0        9.916469    7.341421   -4.391489
    323          7           0        9.076117    7.486751   -3.368290
    324          1           0        8.913917    6.770141   -2.661190
    325          1           0        8.352988    8.189861   -3.504843
    326          7           0        9.931000    8.290933   -5.339103
    327          1           0       10.348360    8.036969   -6.222403
    328          1           0        9.010772    8.789162   -5.418695
    329          6           0        6.306631    3.875851   -4.586192
    330          8           0        5.952451    2.713801   -4.334654
    331          7           0        5.578217    4.732302   -5.299662
    332          1           0        6.006635    5.639014   -5.547316
    333          6           0        4.223516    4.401542   -5.757044
    334          1           0        4.209750    3.385316   -6.160071
    335          6           0        3.214778    4.519409   -4.618211
    336          1           0        2.222934    4.204594   -4.957941
    337          1           0        3.152215    5.548149   -4.243198
    338          1           0        3.509981    3.870946   -3.788187
    339          1           0        3.981751    5.091636   -6.570172
    340          1           0       -8.057518    2.885487   -9.283115
    341          6           0       -7.061546    2.785188   -9.728483
    342          1           0       -7.174493    2.818930  -10.816451
    343          6           0       -6.126299    3.890599   -9.239090
    344          1           0       -6.530521    4.867363   -9.530034
    345          1           0       -5.147918    3.795276   -9.725540
    346          6           0       -5.941898    3.862812   -7.723039
    347          1           0       -5.442432    2.934673   -7.413748
    348          1           0       -6.917331    3.911062   -7.223114
    349         16           0       -4.944952    5.282451   -7.168692
    350          6           0       -5.094152    5.049864   -5.378253
    351          1           0       -6.144700    4.939095   -5.094816
    352          1           0       -4.514241    4.190963   -5.028467
    353          1           0       -4.718551    5.948161   -4.886376
    354          1           0       -6.675175    1.792839   -9.465354
    355          1           0       -1.931518    0.364042   -9.091188
    356          6           0       -1.000862    0.918683   -9.262811
    357          1           0       -1.013779    1.229991  -10.311468
    358          6           0       -0.932383    2.151840   -8.344816
    359          1           0        0.084498    2.565294   -8.346252
    360          1           0       -1.572659    2.924374   -8.788736
    361          6           0       -1.395500    1.927598   -6.917626
    362          6           0       -0.554845    2.170653   -5.828917
    363          1           0        0.470957    2.493324   -6.000100
    364          6           0       -1.010984    1.988023   -4.522257
    365          1           0       -0.342500    2.182507   -3.688374
    366          6           0       -2.313170    1.566178   -4.287125
    367          1           0       -2.677139    1.415156   -3.276588
    368          6           0       -3.154776    1.305708   -5.367458
    369          1           0       -4.155090    0.925186   -5.183696
    370          6           0       -2.699944    1.487936   -6.666383
    371          1           0       -3.356665    1.251477   -7.498832
    372          6           0        0.134410   -0.115591   -9.187766
    373          8           0        0.334774   -0.904368  -10.103651
    374          7           0        0.911752   -0.088891   -8.068024
    375          1           0        0.707983    0.642965   -7.401945
    376          6           0        2.305058   -0.542555   -8.020407
    377          1           0        2.374097   -1.632201   -7.938692
    378          6           0        3.076071    0.021072   -9.241517
    379          1           0        2.528135   -0.265810  -10.142433
    380          1           0        2.992016    1.108254   -9.150818
    381          6           0        4.548297   -0.392076   -9.369291
    382          1           0        5.141364    0.455639   -9.730520
    383          1           0        4.967712   -0.675130   -8.396776
    384          6           0        4.735869   -1.552662  -10.346530
    385          1           0        5.791594   -1.804010  -10.460273
    386          1           0        4.363424   -1.267720  -11.335646
    387          7           0        4.006432   -2.748372   -9.956140
    388          1           0        3.024470   -2.755307  -10.195520
    389          6           0        4.380971   -3.468263   -8.859329
    390          7           0        5.518054   -3.247794   -8.270562
    391          1           0        6.955306   -2.401299   -8.794452
    392          1           0        5.669438   -3.900644   -7.506938
    393          7           0        3.496135   -4.457268   -8.493696
    394          1           0        2.546794   -4.421658   -8.833376
    395          1           0        3.601024   -4.862579   -7.576986
    396          6           0        2.862817    0.180022   -6.791637
    397          8           0        2.689614    1.392590   -6.674228
    398          7           0        3.530765   -0.551396   -5.889931
    399          1           0        3.735422   -1.529998   -6.050071
    400          6           0        4.225141    0.079565   -4.787177
[...]
 6657,3.995943,5.933577\C,-1,5.230573,4.385732,4.45996\H,0,5.650484,3.7
 44725,3.680257\C,0,4.421358,5.514214,3.815611\H,0,4.094017,6.211206,4.
 600892\H,0,5.103823,6.070163,3.164318\C,0,3.203308,5.031413,3.014313\H
 ,0,2.524959,4.48633,3.685369\C,0,2.453989,6.244837,2.458174\H,0,1.5246
 31,5.938696,1.963546\H,0,2.189633,6.955925,3.250413\H,0,3.069637,6.772
 753,1.719165\C,0,3.607036,4.079826,1.885927\H,0,4.338657,4.557763,1.22
 2382\H,0,4.035767,3.147185,2.269911\H,0,2.732924,3.802578,1.287728\C,0
 ,6.437224,4.959308,5.247948\O,0,7.161476,5.803069,4.728306\N,0,6.65335
 5,4.519902,6.512498\H,0,6.066852,3.786085,6.898678\C,-1,7.652556,5.146
 571,7.373653\H,0,7.599213,6.231853,7.262503\H,0,7.407302,4.896183,8.40
 869\C,0,9.140787,4.784094,7.156698\O,0,9.975706,5.409307,7.78922\N,0,9
 .455314,3.746359,6.330133\H,0,8.752161,3.387821,5.685775\C,-1,10.85622
 5,3.481867,5.985533\H,0,10.907607,2.504979,5.501028\H,0,11.457758,3.47
 8332,6.895812\H,0,11.25125,4.248536,5.309674\H,0,11.541691,4.20499,1.6
 4054\C,-1,11.857203,3.82559,0.663012\H,0,12.382198,4.636466,0.1464\C,0
 ,12.816086,2.634277,0.855918\H,0,13.588353,2.963432,1.559208\H,0,12.28
 3034,1.812445,1.353134\C,0,13.501084,2.113455,-0.425065\H,0,14.512498,
 1.765293,-0.183752\H,0,13.612648,2.949626,-1.125778\C,0,12.726302,0.98
 1722,-1.109973\H,0,11.670087,1.253392,-1.098183\H,0,12.859718,0.040168
 ,-0.564715\C,0,13.128306,0.792767,-2.565195\H,0,14.121665,0.350819,-2.
 675589\H,0,13.099805,1.749793,-3.092213\N,0,12.151816,-0.107392,-3.258
 917\H,0,12.398057,-0.252515,-4.239494\H,0,11.202481,0.324747,-3.234585
 \H,0,12.086897,-1.06101,-2.796744\C,0,10.623111,3.481585,-0.195206\O,0
 ,10.783884,3.154599,-1.379853\N,0,9.392898,3.48678,0.370311\H,0,9.2108
 38,4.031723,1.22528\C,-1,8.225994,3.116531,-0.441813\H,0,8.449667,2.13
 5672,-0.88292\C,0,6.915003,3.009527,0.356428\H,0,6.612683,4.017777,0.6
 5852\C,0,5.821438,2.407437,-0.535993\H,0,5.631981,2.99896,-1.437464\H,
 0,6.089852,1.390483,-0.854641\H,0,4.882042,2.336887,0.02121\C,0,7.1080
 96,2.161447,1.611527\H,0,7.525084,1.173606,1.387735\H,0,7.770882,2.652
 715,2.329132\H,0,6.14182,1.999027,2.102866\C,0,8.110995,4.129684,-1.61
 3031\O,0,8.195928,5.355139,-1.420403\N,0,7.9272,3.611656,-2.832908\H,0
 ,7.934862,2.60357,-2.929188\C,-1,7.670788,4.373234,-4.049833\H,0,7.608
 441,5.427652,-3.788356\C,0,8.767242,4.137269,-5.111654\H,0,8.726916,4.
 979384,-5.811555\H,0,8.513876,3.236974,-5.68506\C,0,10.17584,3.932154,
 -4.543606\H,0,10.854201,3.741764,-5.38768\H,0,10.190995,3.041599,-3.90
 8317\C,0,10.735201,5.08147,-3.705313\H,0,10.14719,5.228562,-2.801127\H
 ,0,11.74168,4.832676,-3.358177\N,0,10.800549,6.332354,-4.450951\H,0,11
 .384001,6.321169,-5.274712\C,0,9.916469,7.341421,-4.391489\N,0,9.07611
 7,7.486751,-3.36829\H,0,8.913917,6.770141,-2.66119\H,0,8.352988,8.1898
 61,-3.504843\N,0,9.931,8.290933,-5.339103\H,0,10.34836,8.036969,-6.222
 403\H,0,9.010772,8.789162,-5.418695\C,0,6.306631,3.875851,-4.586192\O,
 0,5.952451,2.713801,-4.334654\N,0,5.578217,4.732302,-5.299662\H,0,6.00
 6635,5.639014,-5.547316\C,-1,4.223516,4.401542,-5.757044\H,0,4.20975,3
 .385316,-6.160071\C,0,3.214778,4.519409,-4.618211\H,0,2.222934,4.20459
 4,-4.957941\H,0,3.152215,5.548149,-4.243198\H,0,3.509981,3.870946,-3.7
 88187\H,0,3.981751,5.091636,-6.570172\H,0,-8.057518,2.885487,-9.283115
 \C,-1,-7.061546,2.785188,-9.728483\H,0,-7.174493,2.81893,-10.816451\C,
 0,-6.126299,3.890599,-9.23909\H,0,-6.530521,4.867363,-9.530034\H,0,-5.
 147918,3.795276,-9.72554\C,0,-5.941898,3.862812,-7.723039\H,0,-5.44243
 2,2.934673,-7.413748\H,0,-6.917331,3.911062,-7.223114\S,0,-4.944952,5.
 282451,-7.168692\C,0,-5.094152,5.049864,-5.378253\H,0,-6.1447,4.939095
 ,-5.094816\H,0,-4.514241,4.190963,-5.028467\H,0,-4.718551,5.948161,-4.
 886376\H,0,-6.675175,1.792839,-9.465354\H,0,-1.931518,0.364042,-9.0911
 88\C,-1,-1.000862,0.918683,-9.262811\H,0,-1.013779,1.229991,-10.311468
 \C,0,-0.932383,2.15184,-8.344816\H,0,0.084498,2.565294,-8.346252\H,0,-
 1.572659,2.924374,-8.788736\C,0,-1.3955,1.927598,-6.917626\C,0,-0.5548
 45,2.170653,-5.828917\H,0,0.470957,2.493324,-6.0001\C,0,-1.010984,1.98
 8023,-4.522257\H,0,-0.3425,2.182507,-3.688374\C,0,-2.31317,1.566178,-4
 .287125\H,0,-2.677139,1.415156,-3.276588\C,0,-3.154776,1.305708,-5.367
 458\H,0,-4.15509,0.925186,-5.183696\C,0,-2.699944,1.487936,-6.666383\H
 ,0,-3.356665,1.251477,-7.498832\C,0,0.13441,-0.115591,-9.187766\O,0,0.
 334774,-0.904368,-10.103651\N,0,0.911752,-0.088891,-8.068024\H,0,0.707
 983,0.642965,-7.401945\C,-1,2.305058,-0.542555,-8.020407\H,0,2.374097,
 -1.632201,-7.938692\C,0,3.076071,0.021072,-9.241517\H,0,2.528135,-0.26
 581,-10.142433\H,0,2.992016,1.108254,-9.150818\C,0,4.548297,-0.392076,
 -9.369291\H,0,5.141364,0.455639,-9.73052\H,0,4.967712,-0.67513,-8.3967
 76\C,0,4.735869,-1.552662,-10.34653\H,0,5.791594,-1.80401,-10.460273\H
 ,0,4.363424,-1.26772,-11.335646\N,0,4.006432,-2.748372,-9.95614\H,0,3.
 02447,-2.755307,-10.19552\C,0,4.380971,-3.468263,-8.859329\N,0,5.51805
 4,-3.247794,-8.270562\H,0,6.955306,-2.401299,-8.794452\H,0,5.669438,-3
 .900644,-7.506938\N,0,3.496135,-4.457268,-8.493696\H,0,2.546794,-4.421
 658,-8.833376\H,0,3.601024,-4.862579,-7.576986\C,0,2.862817,0.180022,-
 6.791637\O,0,2.689614,1.39259,-6.674228\N,0,3.530765,-0.551396,-5.8899
 31\H,0,3.735422,-1.529998,-6.050071\C,-1,4.225141,0.079565,-4.787177\H
 ,0,4.445081,1.114324,-5.057313\C,0,3.422851,0.07383,-3.463428\H,0,4.07
 1044,0.55806,-2.719758\C,0,2.143463,0.899317,-3.603204\H,0,1.427504,0.
 402805,-4.26716\H,0,2.340823,1.89333,-4.011325\H,0,1.663775,1.010229,-
 2.623942\C,0,3.083224,-1.337728,-2.984675\H,0,2.570505,-1.903082,-3.77
 1841\H,0,2.403377,-1.283436,-2.130081\H,0,3.97073,-1.89794,-2.676917\C
 ,0,5.53948,-0.731033,-4.646556\O,0,5.5181,-1.945127,-4.840019\N,0,6.68
 8252,-0.054342,-4.349333\H,0,6.644191,0.966283,-4.33294\C,-1,7.974462,
 -0.730678,-4.508453\H,0,7.728511,-1.794867,-4.453275\C,0,8.617395,-0.4
 60468,-5.872007\H,0,9.578223,-0.987439,-5.923656\H,0,8.836094,0.606007
 ,-5.991152\C,0,7.703253,-0.969521,-6.987674\H,0,6.898497,-0.249888,-7.
 182938\H,0,7.195377,-1.887186,-6.677262\C,0,8.43257,-1.214365,-8.29662
 1\O,0,9.513538,-0.725854,-8.543007\O,0,7.799342,-1.995504,-9.163732\C,
 0,8.955663,-0.416396,-3.361441\O,0,9.396704,0.732988,-3.193022\N,0,9.4
 05911,-1.463614,-2.618522\H,0,8.884436,-2.330686,-2.725284\C,-1,9.9668
 86,-1.285613,-1.263563\H,0,10.460457,-0.313045,-1.257293\C,0,8.821886,
 -1.165764,-0.228578\H,0,8.256458,-0.263858,-0.495072\H,0,9.255147,-0.9
 54364,0.754958\C,0,7.846992,-2.342748,-0.076177\H,0,8.385261,-3.28727,
 0.030718\H,0,7.257388,-2.196241,0.833426\S,0,6.691201,-2.456112,-1.498
 299\C,0,5.969402,-4.107378,-1.270176\H,0,6.466492,-4.844951,-1.903144\
 H,0,6.037436,-4.417247,-0.2248\H,0,4.914163,-4.058141,-1.546431\C,0,11
 .083301,-2.326682,-0.984353\O,0,11.955998,-2.496717,-1.857324\N,0,11.0
 75663,-2.933726,0.204712\H,0,10.446855,-2.60529,0.939706\C,-1,11.95588
 3,-4.009019,0.677946\H,0,12.489056,-4.400945,-0.195391\C,0,12.971288,-
 3.497695,1.730121\H,0,12.399712,-3.25269,2.632428\C,0,14.009096,-4.570
 14,2.070787\H,0,14.563201,-4.880477,1.174626\H,0,14.736172,-4.176114,2
 .787545\H,0,13.5512,-5.454631,2.521381\C,0,13.656624,-2.223357,1.23081
 2\H,0,14.131389,-2.385437,0.255364\H,0,12.934693,-1.40816,1.123706\H,0
 ,14.427303,-1.901747,1.938942\C,0,11.007148,-5.081763,1.273846\O,0,9.9
 21057,-4.736005,1.73127\N,0,11.450411,-6.35815,1.298835\H,0,12.294184,
 -6.57496,0.789521\C,-1,10.658121,-7.466299,1.84263\H,0,9.926021,-7.010
 154,2.51159\C,0,9.940747,-8.308896,0.773227\H,0,9.716944,-7.65214,-0.0
 76234\H,0,10.605906,-9.095325,0.397187\C,0,8.665377,-8.892579,1.296733
 \C,0,8.365694,-10.195449,1.581955\H,0,8.981083,-11.080404,1.492212\N,0
 ,7.065704,-10.29034,2.025014\H,0,6.590856,-11.145097,2.260147\C,0,6.49
 1167,-9.038062,2.025871\C,0,5.191527,-8.63354,2.348132\H,0,4.419507,-9
 .325927,2.670934\C,0,4.910335,-7.28241,2.258058\H,0,3.906981,-6.951804
 ,2.507949\C,0,5.897046,-6.352961,1.875501\H,0,5.667303,-5.293238,1.879
 614\C,0,7.174698,-6.760614,1.53953\H,0,7.943759,-6.028888,1.303157\C,0
 ,7.479378,-8.12983,1.591842\H,0,11.314401,-8.09088,2.456025\H,0,11.329
 838,-6.236955,-3.561461\C,-1,10.366395,-6.002412,-4.024558\H,0,10.2725
 62,-6.596457,-4.938919\C,0,9.215079,-6.306216,-3.076368\H,0,8.251052,-
 6.092737,-3.54591\H,0,9.224631,-7.356542,-2.772425\S,0,9.434291,-5.247
 603,-1.610161\H,0,8.420788,-5.719283,-0.863999\H,0,10.37553,-4.94458,-
 4.308096\H,0,4.541593,-4.835937,-5.29206\C,-1,3.507586,-5.163892,-5.13
 201\H,0,3.386625,-6.162022,-5.571889\C,0,3.151828,-5.147691,-3.652659\
 H,0,3.334622,-4.134871,-3.275962\H,0,3.818248,-5.816204,-3.090627\C,0,
 1.692441,-5.529226,-3.380096\H,0,1.075274,-5.042588,-4.147213\C,0,1.46
 7926,-7.040223,-3.481766\H,0,1.778951,-7.441882,-4.453218\H,0,2.033107
 ,-7.5665,-2.701736\H,0,0.408341,-7.284393,-3.343919\C,0,1.260487,-5.00
 1279,-2.018476\H,0,1.446353,-3.923399,-1.940833\H,0,1.820963,-5.505302
 ,-1.22263\H,0,0.197789,-5.170286,-1.824092\H,0,2.8472,-4.468516,-5.667
 168\H,0,-1.728518,-3.402642,-6.610142\C,-1,-2.457078,-3.087936,-5.8567
 5\H,0,-2.862487,-3.977582,-5.358842\C,0,-1.783623,-2.148714,-4.833191\
 H,0,-1.53674,-1.220998,-5.365816\C,0,-2.719132,-1.811021,-3.669171\H,0
 ,-2.234373,-1.099544,-2.99157\H,0,-3.65841,-1.357207,-3.999551\H,0,-2.
 960325,-2.714752,-3.093037\C,0,-0.488773,-2.761158,-4.302133\H,0,0.021
 093,-2.066452,-3.624019\H,0,0.205125,-3.005071,-5.116722\H,0,-0.69575,
 -3.678364,-3.736757\C,0,-3.554886,-2.315591,-6.603092\O,0,-3.257021,-1
 .469977,-7.443218\N,0,-4.851271,-2.562806,-6.251501\H,0,-5.069678,-3.3
 04586,-5.58674\C,-1,-5.962772,-1.773343,-6.786567\H,0,-5.49697,-1.0002
 1,-7.406911\C,0,-6.928902,-2.602004,-7.652916\H,0,-7.304158,-3.42225,-
 7.027\C,0,-8.12173,-1.741996,-8.080177\H,0,-8.81911,-2.314624,-8.69732
 7\H,0,-8.685374,-1.379305,-7.214825\H,0,-7.78845,-0.875305,-8.667276\C
 ,0,-6.180316,-3.206542,-8.847316\H,0,-5.276743,-3.701507,-8.475811\H,0
 ,-5.838404,-2.39612,-9.506087\C,0,-7.004519,-4.215545,-9.645982\H,0,-7
 .383305,-5.012003,-8.995056\H,0,-6.393904,-4.682231,-10.425973\H,0,-7.
 864844,-3.749778,-10.137798\C,0,-6.69642,-1.15226,-5.600014\O,0,-7.271
 272,-1.871315,-4.788779\N,0,-6.687312,0.194433,-5.501303\H,0,-6.30245,
 0.722933,-6.271173\C,-1,-7.485185,0.896698,-4.505264\H,0,-7.701018,0.2
 03428,-3.690249\C,0,-6.835787,2.157607,-3.98331\H,0,-6.488348,2.803074
 ,-4.797948\H,0,-7.587383,2.744716,-3.44363\C,0,-5.683359,1.944718,-3.0
 34015\O,0,-5.220208,0.871973,-2.702579\O,0,-5.215928,3.116366,-2.61042
 5\H,0,-4.498125,2.973561,-1.947334\H,0,-8.453602,1.159754,-4.949808\H,
 0,-12.382057,3.705713,-2.95921\C,-1,-12.492449,4.789716,-3.078089\H,0,
 -12.625865,5.224192,-2.080712\C,0,-11.27784,5.396256,-3.783642\H,0,-11
 .423241,6.474985,-3.914414\H,0,-11.178434,4.966233,-4.787689\C,0,-9.99
 1257,5.157001,-2.996104\H,0,-9.812798,4.079702,-2.89054\H,0,-10.087972
 ,5.581616,-1.989387\S,0,-8.558051,5.938423,-3.809229\C,0,-7.327254,5.8
 28139,-2.477923\H,0,-7.038224,4.795492,-2.266136\H,0,-6.438599,6.36787
 7,-2.814526\H,0,-7.697954,6.30743,-1.567381\H,0,-13.409072,4.969448,-3
 .64817\H,0,-11.862231,3.314947,1.439431\C,-1,-11.048394,3.004305,0.778
 598\H,0,-11.339257,3.25671,-0.250605\C,0,-9.769675,3.762901,1.157904\H
 ,0,-10.028688,4.82627,1.235882\H,0,-9.429023,3.45078,2.149499\C,0,-8.6
 2729,3.672631,0.1449\H,0,-9.01913,3.851029,-0.859867\H,0,-7.906304,4.4
 66218,0.357314\S,0,-7.686819,2.103951,0.063759\C,0,-6.142539,2.6122,0.
 865725\H,0,-6.282246,2.82942,1.926632\H,0,-5.719343,3.483637,0.360084\
 H,0,-5.442451,1.777541,0.767237\C,0,-10.918566,1.491872,0.967174\O,0,-
 10.929038,1.032899,2.104255\N,0,-10.810216,0.726827,-0.144519\H,0,-10.
 700991,1.173103,-1.04532\C,-1,-10.495629,-0.701846,-0.133048\H,0,-10.3
 43675,-0.991708,0.90967\C,0,-11.588241,-1.541517,-0.789678\H,0,-11.633
 588,-1.280197,-1.851034\H,0,-11.285728,-2.59476,-0.736015\C,0,-12.9609
 67,-1.362175,-0.149774\H,0,-12.924071,-1.470116,0.939735\H,0,-13.34220
 8,-0.358798,-0.375711\C,0,-13.923391,-2.378745,-0.737786\O,0,-14.00085
 1,-2.531003,-1.973506\N,0,-14.648176,-3.055313,0.148702\H,0,-14.451974
 ,-2.965209,1.170617\H,0,-15.191168,-3.83563,-0.191158\C,0,-9.200342,-0
 .879269,-0.953076\O,0,-9.119387,-0.338145,-2.057185\N,0,-8.238009,-1.6
 65979,-0.422753\H,0,-8.329471,-1.967053,0.547407\C,-1,-6.96981,-1.9211
 5,-1.101103\H,0,-6.98793,-1.33239,-2.021076\C,0,-5.775576,-1.506571,-0
 .254292\H,0,-4.850828,-1.625639,-0.829577\H,0,-5.68381,-2.102493,0.656
 32\H,0,-5.871882,-0.451099,0.012973\C,0,-6.901132,-3.421632,-1.454254\
 O,0,-6.583268,-4.274907,-0.617916\N,0,-7.22157,-3.747464,-2.716801\H,0
 ,-7.336409,-3.006869,-3.40366\C,-1,-7.282055,-5.121439,-3.201174\H,0,-
 7.720253,-5.738865,-2.410679\C,0,-8.14501,-5.190411,-4.472173\H,0,-7.9
 63964,-6.162049,-4.945513\H,0,-7.763601,-4.431161,-5.163375\C,0,-9.629
 064,-5.019159,-4.235828\C,0,-10.195757,-3.790737,-3.871571\H,0,-9.5734
 1,-2.906737,-3.761279\C,0,-11.56116,-3.664712,-3.654108\H,0,-11.994022
 ,-2.716906,-3.356781\C,0,-12.411705,-4.76848,-3.793977\O,0,-13.733982,
 -4.699032,-3.559721\H,0,-13.928026,-3.916283,-2.984415\C,0,-11.863864,
 -5.989788,-4.197263\H,0,-12.520965,-6.845926,-4.316074\C,0,-10.49364,-
 6.104687,-4.401645\H,0,-10.085441,-7.070317,-4.695449\C,0,-5.844822,-5
 .608231,-3.517976\O,0,-5.228604,-5.163402,-4.490235\N,0,-5.328957,-6.5
 62712,-2.705421\H,0,-5.7807,-6.779206,-1.824015\C,-1,-4.021087,-7.1638
 49,-2.915319\H,0,-3.974731,-7.506982,-3.956763\C,0,-2.861673,-6.149363
 ,-2.706544\H,0,-1.930521,-6.610441,-3.065105\H,0,-3.068755,-5.316152,-
 3.383539\C,0,-2.667543,-5.658047,-1.305816\C,0,-3.311963,-4.608754,-0.
 698772\H,0,-4.108608,-3.983729,-1.075235\N,0,-2.84121,-4.425928,0.5728
 48\H,0,-3.153883,-3.698245,1.222386\C,0,-1.866925,-5.358394,0.823464\C
 ,0,-1.074769,-5.550098,1.960312\H,0,-1.174246,-4.906141,2.829443\C,0,-
 0.135782,-6.565769,1.92078\H,0,0.525045,-6.723036,2.763559\C,0,0.01150
 4,-7.380907,0.782224\H,0,0.784828,-8.144469,0.781137\C,0,-0.78389,-7.1
 97372,-0.334975\H,0,-0.653411,-7.825378,-1.212789\C,0,-1.738772,-6.168
 554,-0.332404\C,0,-3.873748,-8.365326,-1.971085\O,0,-4.613656,-8.53882
 2,-1.017741\N,0,-2.843764,-9.210492,-2.279794\H,0,-2.231126,-8.939216,
 -3.033517\C,-1,-2.372769,-10.263356,-1.372074\H,0,-2.364712,-9.872695,
 -0.348596\C,0,-3.244674,-11.510491,-1.467159\H,0,-4.254201,-11.272016,
 -1.107769\H,0,-2.82993,-12.292846,-0.824845\O,0,-3.26749,-12.033691,-2
 .779211\H,0,-3.699818,-11.366669,-3.327153\H,0,-1.347072,-10.503901,-1
 .6638\H,0,3.373766,-10.098936,-4.908942\C,-1,4.293118,-9.644834,-4.524
 638\H,0,4.19302,-8.558486,-4.63712\C,0,4.535416,-10.037925,-3.070201\H
 ,0,4.569371,-11.133451,-3.005239\H,0,3.683911,-9.72199,-2.451112\C,0,5
 .827753,-9.473571,-2.460745\H,0,6.644324,-9.663912,-3.175007\C,0,5.752
 885,-7.961579,-2.217212\H,0,4.934726,-7.71958,-1.526806\H,0,6.677825,-
 7.597846,-1.751791\H,0,5.594133,-7.401074,-3.146337\C,0,6.159259,-10.1
 98355,-1.157673\H,0,5.372028,-10.030338,-0.413521\H,0,6.252502,-11.279
 106,-1.318373\H,0,7.097776,-9.83467,-0.728748\H,0,5.122428,-9.972049,-
 5.162982\O,0,-0.394267,-0.595724,4.202783\H,0,0.074687,-1.379181,4.573
 761\H,0,-1.308298,-0.899283,3.945727\O,0,5.770126,-1.130702,4.23178\H,
 0,5.443095,-0.20666,4.229855\H,0,5.457224,-1.582251,3.404277\O,0,0.745
 143,2.053875,4.335049\H,0,0.531593,1.183556,3.95209\H,0,0.245553,2.000
 525,5.169111\O,0,4.426768,-4.509944,4.385181\H,0,5.22116,-5.079065,4.6
 21882\H,0,4.320453,-3.819734,5.07881\O,0,3.802534,-2.302422,5.87551\H,
 0,4.462193,-1.762288,5.402185\H,0,4.062237,-2.314069,6.835697\O,0,1.05
 062,-2.577948,5.505293\H,0,1.973566,-2.262252,5.602743\H,0,1.15929,-3.
 375285,4.922671\O,0,1.642822,-4.778653,4.133994\H,0,2.610649,-4.822418
 ,4.041193\H,0,1.36978,-5.651141,4.50433\O,0,7.814472,1.854946,4.781657
 \H,0,6.884244,1.898996,4.493349\H,0,7.758619,1.488563,5.693527\O,0,8.2
 73669,-0.408899,3.241364\H,0,8.304005,0.441313,3.727584\H,0,7.475493,-
 0.839934,3.599548\O,0,-2.193005,-3.194289,6.013664\H,0,-3.125018,-3.48
 1684,6.116986\H,0,-2.277867,-2.563652,5.269891\O,0,-0.495864,0.729181,
 6.533233\H,0,-0.588931,0.217867,5.684853\H,0,-1.402459,1.008499,6.7397
 84\O,0,1.280021,-4.389381,7.563631\H,0,1.099957,-3.676259,6.90749\H,0,
 1.499174,-3.906843,8.385629\O,0,7.775779,1.282378,7.454252\H,0,8.46116
 3,1.930076,7.67518\H,0,6.931792,1.649753,7.782891\O,0,3.266802,-5.9716
 62,6.663339\H,0,3.481501,-5.671922,5.764437\H,0,2.59056,-5.326153,6.99
 162\O,0,4.416166,-2.389222,8.437477\H,0,5.146538,-1.75879,8.625236\H,0
 ,3.588972,-2.193067,8.925411\O,0,-0.523867,-1.700929,7.969147\H,0,-0.4
 63194,-0.88511,7.431192\H,0,-1.071185,-2.309104,7.428866\O,0,1.044631,
 -7.127815,5.335149\H,0,1.741979,-7.020787,6.009721\H,0,0.214385,-6.755
 668,5.731672\O,0,8.562823,5.31842,2.313125\H,0,8.256644,5.390973,3.231
 308\H,0,7.884549,5.817556,1.817398\O,0,6.827824,-1.291356,8.265334\H,0
 ,7.098468,-1.874481,7.527102\H,0,7.303812,-0.460361,8.112211\O,0,7.175
 065,-2.923044,5.977422\H,0,6.561878,-3.611986,6.325996\H,0,6.643904,-2
 .35644,5.392447\O,0,6.525345,6.282821,0.662054\H,0,5.798528,6.843996,0
 .343864\H,0,7.048345,6.079029,-0.132739\O,0,5.593493,-4.657076,7.41915
 4\H,0,5.26697,-3.983497,8.046537\H,0,4.805252,-5.21852,7.248524\O,0,1.
 816499,-2.334467,9.28087\H,0,1.057781,-2.023611,8.731969\H,0,1.524667,
 -2.186848,10.202136\O,0,-0.911593,-5.685415,6.501767\H,0,-0.299335,-5.
 291531,7.150895\H,0,-1.326586,-4.904828,6.086391\O,0,8.776802,-4.75959
 5,4.45661\H,0,8.422396,-3.954163,4.878492\H,0,9.030067,-4.529831,3.550
 417\O,0,6.460339,-6.035896,5.102371\H,0,6.557919,-5.886642,6.054581\H,
 0,7.314086,-5.732239,4.716249\O,0,10.510549,-1.69134,2.666989\H,0,9.65
 8787,-1.307654,2.995647\H,0,11.155921,-0.993481,2.822004\O,0,1.914915,
 -8.851702,3.276092\H,0,1.618554,-8.341539,4.053715\H,0,1.08621,-9.1013
 74,2.852154\C,0,-2.443598,2.53413,-0.299645\O,0,-3.313221,3.283845,-0.
 784301\C,0,-2.460534,1.121032,-0.540442\C,0,-1.535762,0.299729,0.01609
 2\C,0,-0.322821,0.837327,0.748271\C,0,-0.10216,2.333342,0.520117\C,0,-
 1.404293,3.110712,0.618711\C,0,-1.738072,-1.181367,-0.012296\C,0,-0.45
 4333,-1.984062,-0.213501\C,0,0.637498,-1.473162,0.72381\C,0,0.926923,0
 .004757,0.395188\C,0,1.901622,-2.30064,0.654736\C,0,3.055563,-1.72107,
 1.494974\C,0,3.415238,-0.34419,0.940343\C,0,2.200048,0.587543,1.040694
 \C,0,1.821268,-3.749938,1.109382\C,0,3.301579,-4.152346,1.207209\C,0,4
 .110964,-2.825562,1.296885\C,0,2.692933,-1.608798,2.978955\O,0,5.14342
 2,-2.859194,2.288264\H,0,-3.312167,0.727499,-1.093558\H,0,-0.518468,0.
 673325,1.82171\H,0,0.343034,2.489798,-0.472808\H,0,0.603637,2.718644,1
 .260918\H,0,-1.79728,3.046877,1.644086\H,0,-1.268402,4.171101,0.380737
 \H,0,-2.497215,-1.444073,-0.754439\H,0,-2.176413,-1.456297,0.962867\H,
 0,-0.11185,-1.905621,-1.255892\H,0,-0.667006,-3.040846,-0.02797\H,0,0.
 239647,-1.528769,1.746708\H,0,1.069236,0.065019,-0.697126\H,0,2.249621
 ,-2.300367,-0.391187\H,0,3.729641,-0.439746,-0.109225\H,0,4.262739,0.0
 97205,1.484227\H,0,2.008866,0.824765,2.095596\H,0,2.443197,1.540945,0.
 557492\H,0,1.249272,-4.3902,0.439737\H,0,1.341253,-3.824348,2.088119\H
 ,0,3.619925,-4.740185,0.340089\H,0,3.479849,-4.777488,2.082924\H,0,4.6
 26372,-2.625279,0.35316\H,0,2.739155,-2.576679,3.47656\H,0,3.382768,-0
 .935687,3.495779\H,0,1.691896,-1.209029,3.136501\H,0,4.885011,-3.50929
 8,2.983846\\Version=ES64L-G16RevC.01\State=1-A\HF=-19281.6931818\RMSD=
 8.466e-10\Dipole=29.6126409,10.9018275,-6.9235034\Quadrupole=-177.7680
 956,110.0492826,67.718813,-230.0145436,33.118436,85.6335195\PG=C01 [X(
 C246H453N38O74S5)]\\@
 The archive entry for this job was punched.


 Children are likely to live up to what you believe of them.
 -- Lady Bird Johnson
 Job cpu time:       2 days 12 hours 28 minutes 20.2 seconds.
 Elapsed time:       0 days  0 hours 58 minutes  1.3 seconds.
 File lengths (MBytes):  RWF=  21730 Int=      0 D2E=      0 Chk=   2327 Scr=      1
 Normal termination of Gaussian 16 at Thu May 21 10:51:36 2026.
