 Entering Link 1 = C:\G16W\l1.exe PID=     50524.
  
 Copyright (c) 1988,1990,1992,1993,1995,1998,2003,2009,2016,
            Gaussian, Inc.  All Rights Reserved.
  
 This is part of the Gaussian(R) 16 program.  It is based on
 the Gaussian(R) 09 system (copyright 2009, Gaussian, Inc.),
 the Gaussian(R) 03 system (copyright 2003, Gaussian, Inc.),
 the Gaussian(R) 98 system (copyright 1998, Gaussian, Inc.),
 the Gaussian(R) 94 system (copyright 1995, Gaussian, Inc.),
 the Gaussian 92(TM) system (copyright 1992, Gaussian, Inc.),
 the Gaussian 90(TM) system (copyright 1990, Gaussian, Inc.),
 the Gaussian 88(TM) system (copyright 1988, Gaussian, Inc.),
 the Gaussian 86(TM) system (copyright 1986, Carnegie Mellon
 University), and the Gaussian 82(TM) system (copyright 1983,
 Carnegie Mellon University). Gaussian is a federally registered
 trademark of Gaussian, Inc.
  
 This software contains proprietary and confidential information,
 including trade secrets, belonging to Gaussian, Inc.
  
 This software is provided under written license and may be
 used, copied, transmitted, or stored only in accord with that
 written license.
  
 The following legend is applicable only to US Government
 contracts under FAR:
  
                    RESTRICTED RIGHTS LEGEND
  
 Use, reproduction and disclosure by the US Government is
 subject to restrictions as set forth in subparagraphs (a)
 and (c) of the Commercial Computer Software - Restricted
 Rights clause in FAR 52.227-19.
  
 Gaussian, Inc.
 340 Quinnipiac St., Bldg. 40, Wallingford CT 06492
  
  
 ---------------------------------------------------------------
 Warning -- This program may not be used in any manner that
 competes with the business of Gaussian, Inc. or will provide
 assistance to any competitor of Gaussian, Inc.  The licensee
 of this program is prohibited from giving any competitor of
 Gaussian, Inc. access to this program.  By using this program,
 the user acknowledges that Gaussian, Inc. is engaged in the
 business of creating and licensing software in the field of
 computational chemistry and represents and warrants to the
 licensee that it is not a competitor of Gaussian, Inc. and that
 it will not use this program in any manner prohibited above.
 ---------------------------------------------------------------
  

 Cite this work as:
 Gaussian 16, Revision A.03,
 M. J. Frisch, G. W. Trucks, H. B. Schlegel, G. E. Scuseria, 
 M. A. Robb, J. R. Cheeseman, G. Scalmani, V. Barone, 
 G. A. Petersson, H. Nakatsuji, X. Li, M. Caricato, A. V. Marenich, 
 J. Bloino, B. G. Janesko, R. Gomperts, B. Mennucci, H. P. Hratchian, 
 J. V. Ortiz, A. F. Izmaylov, J. L. Sonnenberg, D. Williams-Young, 
 F. Ding, F. Lipparini, F. Egidi, J. Goings, B. Peng, A. Petrone, 
 T. Henderson, D. Ranasinghe, V. G. Zakrzewski, J. Gao, N. Rega, 
 G. Zheng, W. Liang, M. Hada, M. Ehara, K. Toyota, R. Fukuda, 
 J. Hasegawa, M. Ishida, T. Nakajima, Y. Honda, O. Kitao, H. Nakai, 
 T. Vreven, K. Throssell, J. A. Montgomery, Jr., J. E. Peralta, 
 F. Ogliaro, M. J. Bearpark, J. J. Heyd, E. N. Brothers, K. N. Kudin, 
 V. N. Staroverov, T. A. Keith, R. Kobayashi, J. Normand, 
 K. Raghavachari, A. P. Rendell, J. C. Burant, S. S. Iyengar, 
 J. Tomasi, M. Cossi, J. M. Millam, M. Klene, C. Adamo, R. Cammi, 
 J. W. Ochterski, R. L. Martin, K. Morokuma, O. Farkas, 
 J. B. Foresman, and D. J. Fox, Gaussian, Inc., Wallingford CT, 2016.
 
 ******************************************
 Gaussian 16:  EM64W-G16RevA.03 17-Dec-2016
                22-May-2026 
 ******************************************
 %nprocshared=5
 Will use up to    5 processors via shared memory.
 %mem=5GB
 --------------------------
 # wb97xd/6-31g(d) prop=efg
 --------------------------
 1/38=1,172=1/1;
 2/12=2,17=6,18=5,40=1/2;
 3/5=1,6=6,7=1,11=2,25=1,30=1,74=-58/1,2,3;
 4//1;
 5/5=2,38=5/2;
 6/7=2,8=2,9=2,10=2,14=1,28=1/1,2;
 99/5=1,9=1/99;
 ----------------------------
 19NT_md_min_distance_cutoff8
 ----------------------------
 Symbolic Z-matrix:
 Charge =  0 Multiplicity = 1
 C                    -2.85021  -2.05095   0.39528 
 O                    -3.85359  -2.58588   0.91107 
 C                    -2.788    -0.64634   0.13496 
 C                    -1.71302  -0.09186  -0.48769 
 C                    -0.44696  -0.8841   -0.74405 
 C                    -0.39502  -2.17786   0.06537 
 C                    -1.70683  -2.93165  -0.02533 
 C                    -1.78023   1.30243  -1.01954 
 C                    -0.46091   2.07959  -0.98143 
 C                     0.71278   1.21819  -1.44447 
 C                     0.80085  -0.00808  -0.50937 
 C                     2.03278   1.96724  -1.51615 
 C                     3.22602   1.03686  -1.80658 
 C                     3.35703   0.02222  -0.67433 
 C                     2.0941   -0.83991  -0.60414 
 C                     2.19687   3.08937  -2.55833 
 C                     3.73704   3.21904  -2.74232 
 C                     4.3257    2.10309  -1.86482 
 C                     3.10264   0.30882  -3.1594 
 O                     5.6002    1.63885  -2.33742 
 H                    -3.68319  -0.06664   0.35145 
 H                    -0.46852  -1.14337  -1.81788 
 H                    -0.17794  -1.94173   1.11666 
 H                     0.41739  -2.81317  -0.29647 
 H                    -1.89625  -3.2374   -1.06517 
 H                    -1.70572  -3.83531   0.59283 
 H                    -2.57407   1.86286  -0.5162 
 H                    -2.12351   1.20729  -2.06682 
 H                    -0.26397   2.42795   0.03959 
 H                    -0.56065   2.97449  -1.60122 
 H                     0.4826    0.8443   -2.44991 
 H                     0.74725   0.37545   0.52169 
 H                     2.21115   2.40834  -0.52186 
 H                     3.50598   0.54787   0.27879 
 H                     4.23401  -0.62676  -0.82238 
 H                     2.04927  -1.49613  -1.48488 
 H                     2.16004  -1.50142   0.26859 
 H                     1.72475   4.02361  -2.24649 
 H                     1.72446   2.80293  -3.50553 
 H                     4.11249   4.19846  -2.43456 
 H                     4.02139   3.07538  -3.78919 
 H                     4.4794    2.4848   -0.84861 
 H                     3.22468   0.97834  -4.01489 
 H                     3.86687  -0.47182  -3.22757 
 H                     2.13359  -0.18491  -3.27971 
 H                     5.98837   1.14447  -1.60427 
 
                          Input orientation:                          
 ---------------------------------------------------------------------
 Center     Atomic      Atomic             Coordinates (Angstroms)
 Number     Number       Type             X           Y           Z
 ---------------------------------------------------------------------
      1          6           0       -2.850214   -2.050950    0.395278
      2          8           0       -3.853589   -2.585881    0.911074
      3          6           0       -2.788001   -0.646340    0.134960
      4          6           0       -1.713015   -0.091864   -0.487688
      5          6           0       -0.446955   -0.884103   -0.744047
      6          6           0       -0.395019   -2.177864    0.065373
      7          6           0       -1.706834   -2.931648   -0.025326
      8          6           0       -1.780225    1.302429   -1.019544
      9          6           0       -0.460912    2.079592   -0.981430
     10          6           0        0.712778    1.218185   -1.444466
     11          6           0        0.800849   -0.008076   -0.509368
     12          6           0        2.032778    1.967236   -1.516153
     13          6           0        3.226015    1.036862   -1.806580
     14          6           0        3.357033    0.022224   -0.674330
     15          6           0        2.094101   -0.839908   -0.604138
     16          6           0        2.196872    3.089367   -2.558331
     17          6           0        3.737035    3.219041   -2.742317
     18          6           0        4.325704    2.103089   -1.864820
     19          6           0        3.102641    0.308823   -3.159396
     20          8           0        5.600199    1.638849   -2.337424
     21          1           0       -3.683192   -0.066642    0.351445
     22          1           0       -0.468524   -1.143374   -1.817876
     23          1           0       -0.177937   -1.941730    1.116661
     24          1           0        0.417389   -2.813169   -0.296468
     25          1           0       -1.896245   -3.237395   -1.065169
     26          1           0       -1.705715   -3.835305    0.592833
     27          1           0       -2.574069    1.862863   -0.516195
     28          1           0       -2.123508    1.207294   -2.066824
     29          1           0       -0.263974    2.427951    0.039593
     30          1           0       -0.560651    2.974492   -1.601215
     31          1           0        0.482603    0.844297   -2.449912
     32          1           0        0.747249    0.375453    0.521690
     33          1           0        2.211151    2.408343   -0.521863
     34          1           0        3.505983    0.547871    0.278792
     35          1           0        4.234009   -0.626759   -0.822381
     36          1           0        2.049274   -1.496127   -1.484884
     37          1           0        2.160044   -1.501415    0.268590
     38          1           0        1.724747    4.023609   -2.246491
     39          1           0        1.724459    2.802925   -3.505527
     40          1           0        4.112485    4.198461   -2.434559
     41          1           0        4.021393    3.075384   -3.789185
     42          1           0        4.479401    2.484804   -0.848609
     43          1           0        3.224684    0.978335   -4.014887
     44          1           0        3.866871   -0.471819   -3.227569
     45          1           0        2.133589   -0.184910   -3.279708
     46          1           0        5.988373    1.144467   -1.604268
 ---------------------------------------------------------------------
                    Distance matrix (angstroms):
                    1          2          3          4          5
     1  C    0.000000
     2  O    1.248582   0.000000
     3  C    1.429883   2.345133   0.000000
     4  C    2.431228   3.571934   1.360415   0.000000
     5  C    2.904350   4.152184   2.511908   1.515345   0.000000
     6  C    2.480509   3.583768   2.841966   2.528712   1.526983
     7  C    1.503281   2.367479   2.533228   2.877184   2.509242
     8  C    3.793646   4.810933   2.479152   1.493801   2.575739
     9  C    4.966434   6.071117   3.753981   2.554753   2.973219
    10  C    5.173665   6.393058   4.269250   2.918240   2.501036
    11  C    4.280418   5.506953   3.701673   2.515353   1.542567
    12  C    6.606285   7.827619   5.726855   4.396430   3.856859
    13  C    7.162634   8.404207   6.539964   5.235219   4.278994
    14  C    6.631141   7.829993   6.234049   5.074765   3.911089
    15  C    5.187649   6.381168   4.941523   3.881657   2.545288
    16  C    7.785868   8.991846   6.786625   5.449313   5.105870
    17  C    9.000509  10.230443   8.111473   6.763763   6.191498
    18  C    8.594061   9.828167   7.884369   6.571182   5.740882
    19  C    7.323982   8.563713   6.816508   5.521695   4.456076
    20  O    9.617263  10.852428   9.038621   7.739508   6.743308
    21  H    2.152499   2.586269   1.088247   2.141583   3.513058
    22  H    3.375528   4.581120   3.072553   2.103291   1.104896
    23  H    2.770088   3.737327   3.074769   2.890053   2.157123
    24  H    3.425890   4.444218   3.893045   3.461313   2.160721
    25  H    2.109648   2.856782   2.991505   3.203346   2.782363
    26  H    2.129044   2.505135   3.398601   3.896271   3.475819
    27  H    4.028023   4.844130   2.601128   2.136161   3.481717
    28  H    4.148036   5.123401   2.953872   2.085662   2.989065
    29  H    5.184178   6.227626   3.978828   2.954186   3.408412
    30  H    5.872236   6.933454   4.591929   3.459830   3.954291
    31  H    5.252164   6.470310   4.427235   3.089896   2.600273
    32  H    4.341100   5.485329   3.700218   2.700024   2.148184
    33  H    6.807632   7.986029   5.895254   4.653094   4.237345
    34  H    6.867946   8.023932   6.407891   5.313633   4.326947
    35  H    7.327839   8.500133   7.086996   5.980404   4.688687
    36  H    5.277103   6.463124   5.171582   4.137774   2.674803
    37  H    5.041897   6.144317   5.023162   4.190391   2.864080
    38  H    8.050433   9.207248   6.916981   5.643466   5.573084
    39  H    7.726837   8.925257   6.746323   5.413260   5.092640
    40  H    9.774574  10.985394   8.814263   7.492239   7.034115
    41  H    9.539812  10.777648   8.695861   7.335856   6.701980
    42  H    8.708822   9.911965   7.974121   6.716807   5.969041
    43  H    8.095092   9.331167   7.484195   6.161764   5.258137
    44  H    7.793453   9.011278   7.458175   6.227876   4.994693
    45  H    6.467296   7.692439   6.007905   4.753987   3.684787
    46  H    9.608824  10.821583   9.124508   7.879508   6.802097
                    6          7          8          9         10
     6  C    0.000000
     7  C    1.515676   0.000000
     8  C    3.899779   4.349858   0.000000
     9  C    4.384754   5.251570   1.531673   0.000000
    10  C    3.878141   5.008951   2.530360   1.527734   0.000000
    11  C    2.543306   3.882015   2.939327   2.484601   1.544630
    12  C    5.057398   6.340846   3.902253   2.552850   1.519413
    13  C    5.191393   6.576849   5.074681   3.919386   2.545656
    14  C    4.411966   5.898247   5.305612   4.347847   3.002585
    15  C    2.904150   4.376929   4.446636   3.897938   2.617241
    16  C    6.430042   7.609708   4.623669   3.251166   2.635252
    17  C    7.354154   8.651516   6.089459   4.692742   3.851490
    18  C    6.658636   8.069934   6.215941   4.867507   3.743392
    19  C    5.368088   6.591972   5.422970   4.536306   3.078858
    20  O    7.502224   8.923451   7.504708   6.226559   4.986102
    21  H    3.918058   3.500887   2.715741   4.094626   4.919413
    22  H    2.149930   2.818612   2.887879   3.329746   2.666809
    23  H    1.099132   2.149790   4.201817   4.544567   4.163869
    24  H    1.092954   2.144733   4.721281   5.017937   4.202020
    25  H    2.157408   1.100287   4.541535   5.507953   5.177167
    26  H    2.177900   1.094860   5.385315   6.246106   5.961330
    27  H    4.627521   4.896977   1.094365   2.174591   3.475724
    28  H    4.358123   4.633808   1.106205   2.168688   2.903785
    29  H    4.607751   5.550798   2.165084   1.096643   2.149421
    30  H    5.417723   6.219297   2.149767   1.093127   2.175042
    31  H    4.028689   4.992996   2.715921   2.138367   1.097130
    32  H    2.834154   4.154355   3.102066   2.573541   2.139429
    33  H    5.307567   6.641736   4.171548   2.731154   2.124334
    34  H    4.763717   6.274791   5.495364   4.435153   3.349766
    35  H    4.962049   6.421949   6.319149   5.421431   4.023664
    36  H    2.973656   4.277777   4.765870   4.397757   3.025780
    37  H    2.650892   4.133364   5.004653   4.610377   3.524963
    38  H    6.949560   8.067523   4.603808   3.186956   3.088321
    39  H    6.484734   7.534647   4.551309   3.416156   2.789780
    40  H    8.199071   9.513534   6.716644   5.245679   4.628211
    41  H    7.871399   9.113926   6.668812   5.382021   4.460250
    42  H    6.807041   8.263489   6.372609   4.958682   4.018310
    43  H    6.301775   7.451472   5.841766   4.898800   3.601981
    44  H    5.649581   6.882682   6.317675   5.503139   3.997984
    45  H    4.642768   5.734494   4.757989   4.140228   2.712101
    46  H    7.387373   8.850084   7.792174   6.546424   5.278529
                   11         12         13         14         15
    11  C    0.000000
    12  C    2.536360   0.000000
    13  C    2.942122   1.540701   0.000000
    14  C    2.561681   2.499078   1.525990   0.000000
    15  C    1.540593   2.952218   2.499872   1.530750   0.000000
    16  C    3.967529   1.540208   2.415997   3.781904   4.389605
    17  C    4.901177   2.444378   2.428714   3.826305   4.872998
    18  C    4.326531   2.323259   1.532823   2.585651   3.902640
    19  C    3.524389   2.568110   1.541225   2.514440   2.977596
    20  O    5.393321   3.675434   2.506179   3.226632   4.630469
    21  H    4.566295   6.347984   7.322017   7.115116   5.906623
    22  H    2.147650   4.002929   4.289892   4.159471   2.851719
    23  H    2.709430   5.205669   5.385558   4.422757   3.055702
    24  H    2.839175   5.191280   4.999156   4.101675   2.607639
    25  H    4.244023   6.536726   6.712415   6.194740   4.677965
    26  H    4.705889   7.217592   7.336018   6.489811   4.984350
    27  H    3.858825   4.715278   5.999029   6.212160   5.394860
    28  H    3.529116   4.260923   5.358560   5.777522   4.911081
    29  H    2.714670   2.812059   4.186109   4.405553   4.080908
    30  H    3.455651   2.783464   4.258571   4.992319   4.753054
    31  H    2.143252   2.129775   2.824406   3.477189   2.973273
    32  H    1.101385   2.887761   3.464475   2.892440   2.135088
    33  H    2.797890   1.102273   2.135745   2.651387   3.251400
    34  H    2.871937   2.721536   2.160155   1.098605   2.167696
    35  H    3.502475   3.472110   2.179985   1.100993   2.161543
    36  H    2.173590   3.463543   2.811448   2.161625   1.099248
    37  H    2.163953   3.902953   3.447532   2.154845   1.097084
    38  H    4.486164   2.203848   3.371644   4.598601   5.146605
    39  H    4.210909   2.179689   2.874034   4.291069   4.671715
    40  H    5.689310   3.185438   3.343037   4.594570   5.727956
    41  H    5.535055   3.217026   2.952782   4.411970   5.402637
    42  H    4.456600   2.588331   2.141313   2.711897   4.099162
    43  H    4.374545   2.939768   2.209083   3.477209   4.027088
    44  H    4.123611   3.498833   2.169337   2.650102   3.187569
    45  H    3.079326   2.784245   2.203685   2.885778   2.754861
    46  H    5.425640   4.041218   2.771846   3.008017   4.483677
                   16         17         18         19         20
    16  C    0.000000
    17  C    1.556524   0.000000
    18  C    2.446554   1.536841   0.000000
    19  C    2.985485   3.007620   2.528082   0.000000
    20  O    3.706135   2.476353   1.436388   2.946592   0.000000
    21  H    7.280271   8.684863   8.588479   7.649478   9.814279
    22  H    5.056551   6.129599   5.790194   4.081883   6.696275
    23  H    6.667625   7.540045   6.747783   5.840535   7.624835
    24  H    6.566774   7.306831   6.473349   5.015353   7.130742
    25  H    7.681865   8.731107   8.238499   6.476906   9.032888
    26  H    8.550503   9.513703   8.813773   7.373826   9.587969
    27  H    5.332589   6.828241   7.034441   6.451867   8.377691
    28  H    4.738086   6.232927   6.514260   5.414203   7.740485
    29  H    3.639017   4.936894   4.979706   5.104736   6.376631
    30  H    2.921164   4.453316   4.970442   4.790974   6.346812
    31  H    2.826802   4.039336   4.086112   2.766713   5.180131
    32  H    4.353535   5.261041   4.635245   4.370664   5.772506
    33  H    2.147370   2.813533   2.523499   3.487022   3.920973
    34  H    4.027684   4.039262   2.772313   3.470009   3.524281
    35  H    4.579633   4.327045   2.923552   2.759882   3.048739
    36  H    4.711776   5.163573   4.275610   2.677950   4.812896
    37  H    5.391486   5.816800   4.715291   3.989554   5.337343
    38  H    1.092224   2.223168   3.255618   4.065910   4.551316
    39  H    1.096542   2.192283   3.154071   2.870494   4.211995
    40  H    2.216976   1.093134   2.181891   4.083437   2.962152
    41  H    2.200926   1.094271   2.177417   2.982381   2.581447
    42  H    2.915233   2.162485   1.096364   3.459783   2.046558
    43  H    2.763043   2.627299   2.664602   1.093163   2.982152
    44  H    3.989840   3.724886   2.949197   1.094576   2.872578
    45  H    3.353398   3.800883   3.470190   1.094216   4.028819
    46  H    4.366732   3.266119   1.936830   3.382924   0.965718
                   21         22         23         24         25
    21  H    0.000000
    22  H    4.024847   0.000000
    23  H    4.048249   3.055048   0.000000
    24  H    4.977747   2.426466   1.763733   0.000000
    25  H    3.905592   2.643838   3.064590   2.474625   0.000000
    26  H    4.262805   3.819509   2.488800   2.518569   1.772786
    27  H    2.388711   3.894246   4.783576   5.555392   5.174307
    28  H    3.146991   2.885583   4.882231   5.074883   4.561822
    29  H    4.243972   4.030682   4.501288   5.295898   5.998413
    30  H    4.776153   4.124591   5.630503   6.012982   6.376417
    31  H    5.102084   2.292367   4.573697   4.244836   4.923072
    32  H    4.455697   3.042780   2.565014   3.308398   4.749616
    33  H    6.452247   4.634113   5.226436   5.525629   7.002874
    34  H    7.215756   4.801357   4.524534   4.600753   6.731904
    35  H    8.023320   4.834430   4.995428   4.429849   6.667412
    36  H    6.186816   2.564103   3.453559   2.410390   4.333047
    37  H    6.017379   3.375041   2.525719   2.253183   4.609341
    38  H    7.261214   5.629553   7.107480   7.228645   8.199347
    39  H    7.235561   4.819815   6.891697   6.599015   7.453208
    40  H    9.312653   7.064074   8.289803   8.209027   9.657744
    41  H    9.293964   6.468642   8.177599   7.737117   9.071377
    42  H    8.635851   6.211692   6.719173   6.698755   8.569675
    43  H    8.238664   4.792525   6.814499   6.006917   7.259279
    44  H    8.365223   4.608022   6.115018   5.096293   6.748177
    45  H    6.858148   3.134741   5.268551   4.330451   5.519186
    46  H    9.941367   6.853566   7.412924   6.957664   9.036512
                   26         27         28         29         30
    26  H    0.000000
    27  H    5.869676   0.000000
    28  H    5.716304   1.742764   0.000000
    29  H    6.450819   2.442287   3.063472   0.000000
    30  H    7.245575   2.542998   2.404642   1.754701   0.000000
    31  H    5.995474   3.757656   2.659011   3.043513   2.519205
    32  H    4.873662   3.784276   3.953936   2.338319   3.601712
    33  H    7.454363   4.816213   4.755911   2.538082   3.027939
    34  H    6.817085   6.271223   6.134160   4.219537   5.095138
    35  H    6.897675   7.255473   6.732786   5.505098   6.046847
    36  H    4.887597   5.796246   5.005921   4.803492   5.177999
    37  H    4.527280   5.860553   5.580330   4.622577   5.561663
    38  H    9.032849   5.112980   4.772104   3.424517   2.596165
    39  H    8.522250   5.319508   4.407125   4.081954   2.979525
    40  H   10.371015   7.337925   6.926032   5.330059   4.902118
    41  H    9.987966   7.462090   6.649518   5.782999   5.078634
    42  H    8.959754   7.088635   6.834800   4.826152   5.119408
    43  H    8.289213   6.829991   5.696537   5.541744   4.913168
    44  H    7.547332   7.368039   6.328617   6.012229   5.841664
    45  H    6.562180   5.830302   4.640280   4.857274   4.478626
    46  H    9.424668   8.661144   8.125301   6.591013   6.799906
                   31         32         33         34         35
    31  H    0.000000
    32  H    3.019979   0.000000
    33  H    3.025143   2.713790   0.000000
    34  H    4.083445   2.774769   2.403954   0.000000
    35  H    4.345792   3.868908   3.659796   1.767020   0.000000
    36  H    2.977133   3.037173   4.024736   3.067651   2.442904
    37  H    3.963133   2.362770   3.989190   2.451781   2.501314
    38  H    3.419404   4.682667   2.412471   4.650872   5.472697
    39  H    2.548088   4.802711   3.048740   4.751859   5.025917
    40  H    4.942337   5.888940   3.236974   4.588783   5.088874
    41  H    4.392543   6.049239   3.794379   4.816888   4.748999
    42  H    4.607584   4.500671   2.292939   2.443417   3.121335
    43  H    3.160082   5.204006   3.908118   4.324362   3.713106
    44  H    3.713513   4.950440   4.284575   3.669411   2.437976
    45  H    2.115085   4.084920   3.786382   3.883730   3.262737
    46  H    5.578415   5.707930   4.127516   3.172397   2.612735
                   36         37         38         39         40
    36  H    0.000000
    37  H    1.756977   0.000000
    38  H    5.581474   6.086132   0.000000
    39  H    4.761339   5.741170   1.753637   0.000000
    40  H    6.130828   6.603607   2.401507   2.966001   0.000000
    41  H    5.486143   6.393532   2.924657   2.330365   1.761991
    42  H    4.707247   4.745260   3.451103   3.840588   2.363575
    43  H    3.729003   5.062686   3.827627   2.416454   3.695245
    44  H    2.718422   4.024482   5.075439   3.923154   4.743491
    45  H    2.224363   3.784746   4.352737   3.024159   4.883057
    46  H    4.743784   5.016412   5.184633   4.954415   3.679024
                   41         42         43         44         45
    41  H    0.000000
    42  H    3.034064   0.000000
    43  H    2.254618   3.724121   0.000000
    44  H    3.594710   3.843991   1.770655   0.000000
    45  H    3.801695   4.305862   1.756165   1.757641   0.000000
    46  H    3.517288   2.155115   3.671057   3.122220   4.408367
                   46
    46  H    0.000000
 Stoichiometry    C18H26O2
 Framework group  C1[X(C18H26O2)]
 Deg. of freedom   132
 Full point group                 C1      NOp   1
 Largest Abelian subgroup         C1      NOp   1
 Largest concise Abelian subgroup C1      NOp   1
                         Standard orientation:                         
 ---------------------------------------------------------------------
 Center     Atomic      Atomic             Coordinates (Angstroms)
 Number     Number       Type             X           Y           Z
 ---------------------------------------------------------------------
      1          6           0        4.633162   -0.208262    0.014002
      2          8           0        5.874374   -0.196555   -0.120955
      3          6           0        3.837088    0.963406   -0.181001
      4          6           0        2.493987    0.946887    0.034721
      5          6           0        1.744536   -0.346694    0.282190
      6          6           0        2.567548   -1.577637   -0.090779
      7          6           0        3.974640   -1.482348    0.464457
      8          6           0        1.723677    2.223879    0.120490
      9          6           0        0.282793    2.152506   -0.394076
     10          6           0       -0.423171    0.885047    0.084603
     11          6           0        0.377888   -0.329969   -0.433008
     12          6           0       -1.885996    0.807981   -0.318908
     13          6           0       -2.521061   -0.555261    0.015787
     14          6           0       -1.793016   -1.650402   -0.758332
     15          6           0       -0.324294   -1.697325   -0.329556
     16          6           0       -2.879318    1.818919    0.284048
     17          6           0       -4.266596    1.129364    0.133244
     18          6           0       -3.947909   -0.253722   -0.456155
     19          6           0       -2.502740   -0.870514    1.524314
     20          8           0       -4.927280   -1.245026   -0.107786
     21          1           0        4.368897    1.888465   -0.394838
     22          1           0        1.545872   -0.374222    1.368730
     23          1           0        2.609048   -1.670551   -1.185190
     24          1           0        2.084279   -2.480519    0.291063
     25          1           0        3.946814   -1.463777    1.564235
     26          1           0        4.595094   -2.331880    0.161061
     27          1           0        2.271629    3.031702   -0.374289
     28          1           0        1.720820    2.500596    1.191522
     29          1           0        0.278379    2.168237   -1.490598
     30          1           0       -0.252846    3.048008   -0.068353
     31          1           0       -0.374434    0.863487    1.180438
     32          1           0        0.566320   -0.152250   -1.503502
     33          1           0       -1.927319    0.914812   -1.415213
     34          1           0       -1.862989   -1.451076   -1.836435
     35          1           0       -2.255549   -2.634209   -0.584056
     36          1           0       -0.255608   -2.072453    0.701418
     37          1           0        0.208844   -2.422847   -0.956435
     38          1           0       -2.833032    2.794683   -0.204517
     39          1           0       -2.654024    1.990277    1.343426
     40          1           0       -4.940743    1.688106   -0.521183
     41          1           0       -4.763182    1.028861    1.103157
     42          1           0       -3.933977   -0.186381   -1.550360
     43          1           0       -3.188990   -0.242118    2.098060
     44          1           0       -2.785128   -1.915807    1.684682
     45          1           0       -1.509894   -0.739190    1.965130
     46          1           0       -4.782327   -1.982430   -0.714279
 ---------------------------------------------------------------------
 Rotational constants (GHZ):           0.9057832           0.1783306           0.1571529
 Standard basis: 6-31G(d) (6D, 7F)
 There are   352 symmetry adapted cartesian basis functions of A   symmetry.
 There are   352 symmetry adapted basis functions of A   symmetry.
   352 basis functions,   664 primitive gaussians,   352 cartesian basis functions
    75 alpha electrons       75 beta electrons
       nuclear repulsion energy      1668.1646344369 Hartrees.
 NAtoms=   46 NActive=   46 NUniq=   46 SFac= 1.00D+00 NAtFMM=   60 NAOKFM=F Big=F
 Integral buffers will be    131072 words long.
 Raffenetti 2 integral format.
 Two-electron integral symmetry is turned on.
 Nuclear repulsion after empirical dispersion term =     1668.1157418099 Hartrees.
 One-electron integrals computed using PRISM.
 NBasis=   352 RedAO= T EigKep=  1.26D-03  NBF=   352
 NBsUse=   352 1.00D-06 EigRej= -1.00D+00 NBFU=   352
 ExpMin= 1.61D-01 ExpMax= 5.48D+03 ExpMxC= 8.25D+02 IAcc=3 IRadAn=         5 AccDes= 0.00D+00
 Harris functional with IExCor= 4639 and IRadAn=       5 diagonalized for initial guess.
 HarFok:  IExCor= 4639 AccDes= 0.00D+00 IRadAn=         5 IDoV= 1 UseB2=F ITyADJ=14
 ICtDFT=  3500011 ScaDFX=  1.000000  1.000000  1.000000  1.000000
 FoFCou: FMM=F IPFlag=           0 FMFlag=      100000 FMFlg1=           0
         NFxFlg=           0 DoJE=T BraDBF=F KetDBF=T FulRan=T
         wScrn=  0.000000 ICntrl=       500 IOpCl=  0 I1Cent=   200000004 NGrid=           0
         NMat0=    1 NMatS0=      1 NMatT0=    0 NMatD0=    1 NMtDS0=    0 NMtDT0=    0
 Petite list used in FoFCou.
 Requested convergence on RMS density matrix=1.00D-08 within 128 cycles.
 Requested convergence on MAX density matrix=1.00D-06.
 Requested convergence on             energy=1.00D-06.
 No special actions if energy rises.
 Integral accuracy reduced to 1.0D-05 until final iterations.
 Initial convergence to 1.0D-05 achieved.  Increase integral accuracy.
 SCF Done:  E(RwB97XD) =  -851.788395680     A.U. after   15 cycles
            NFock= 15  Conv=0.39D-08     -V/T= 2.0093

 **********************************************************************

            Population analysis using the SCF density.

 **********************************************************************

 Orbital symmetries:
       Occupied  (A) (A) (A) (A) (A) (A) (A) (A) (A) (A) (A) (A)
                 (A) (A) (A) (A) (A) (A) (A) (A) (A) (A) (A) (A)
                 (A) (A) (A) (A) (A) (A) (A) (A) (A) (A) (A) (A)
                 (A) (A) (A) (A) (A) (A) (A) (A) (A) (A) (A) (A)
                 (A) (A) (A) (A) (A) (A) (A) (A) (A) (A) (A) (A)
                 (A) (A) (A) (A) (A) (A) (A) (A) (A) (A) (A) (A)
                 (A) (A) (A)
       Virtual   (A) (A) (A) (A) (A) (A) (A) (A) (A) (A) (A) (A)
                 (A) (A) (A) (A) (A) (A) (A) (A) (A) (A) (A) (A)
                 (A) (A) (A) (A) (A) (A) (A) (A) (A) (A) (A) (A)
                 (A) (A) (A) (A) (A) (A) (A) (A) (A) (A) (A) (A)
                 (A) (A) (A) (A) (A) (A) (A) (A) (A) (A) (A) (A)
                 (A) (A) (A) (A) (A) (A) (A) (A) (A) (A) (A) (A)
                 (A) (A) (A) (A) (A) (A) (A) (A) (A) (A) (A) (A)
                 (A) (A) (A) (A) (A) (A) (A) (A) (A) (A) (A) (A)
                 (A) (A) (A) (A) (A) (A) (A) (A) (A) (A) (A) (A)
                 (A) (A) (A) (A) (A) (A) (A) (A) (A) (A) (A) (A)
                 (A) (A) (A) (A) (A) (A) (A) (A) (A) (A) (A) (A)
                 (A) (A) (A) (A) (A) (A) (A) (A) (A) (A) (A) (A)
                 (A) (A) (A) (A) (A) (A) (A) (A) (A) (A) (A) (A)
                 (A) (A) (A) (A) (A) (A) (A) (A) (A) (A) (A) (A)
                 (A) (A) (A) (A) (A) (A) (A) (A) (A) (A) (A) (A)
                 (A) (A) (A) (A) (A) (A) (A) (A) (A) (A) (A) (A)
                 (A) (A) (A) (A) (A) (A) (A) (A) (A) (A) (A) (A)
                 (A) (A) (A) (A) (A) (A) (A) (A) (A) (A) (A) (A)
                 (A) (A) (A) (A) (A) (A) (A) (A) (A) (A) (A) (A)
                 (A) (A) (A) (A) (A) (A) (A) (A) (A) (A) (A) (A)
                 (A) (A) (A) (A) (A) (A) (A) (A) (A) (A) (A) (A)
                 (A) (A) (A) (A) (A) (A) (A) (A) (A) (A) (A) (A)
                 (A) (A) (A) (A) (A) (A) (A) (A) (A) (A) (A) (A)
                 (A)
 The electronic state is 1-A.
 Alpha  occ. eigenvalues --  -19.26605 -19.23252 -10.36609 -10.34291 -10.33292
 Alpha  occ. eigenvalues --  -10.31666 -10.31027 -10.30928 -10.30382 -10.30279
 Alpha  occ. eigenvalues --  -10.30165 -10.30106 -10.30024 -10.29931 -10.29875
 Alpha  occ. eigenvalues --  -10.29661 -10.29444 -10.29391 -10.29280 -10.28494
 Alpha  occ. eigenvalues --   -1.11530  -1.10089  -0.98211  -0.95735  -0.90856
 Alpha  occ. eigenvalues --   -0.90247  -0.87214  -0.84340  -0.82537  -0.81319
 Alpha  occ. eigenvalues --   -0.77870  -0.77459  -0.73632  -0.72251  -0.69553
 Alpha  occ. eigenvalues --   -0.67522  -0.65504  -0.65192  -0.62652  -0.60957
 Alpha  occ. eigenvalues --   -0.60082  -0.58122  -0.56985  -0.55535  -0.55057
 Alpha  occ. eigenvalues --   -0.54256  -0.53373  -0.52780  -0.51856  -0.50728
 Alpha  occ. eigenvalues --   -0.50495  -0.49691  -0.48289  -0.47671  -0.47369
 Alpha  occ. eigenvalues --   -0.46758  -0.46495  -0.46109  -0.45107  -0.44607
 Alpha  occ. eigenvalues --   -0.43762  -0.43431  -0.42812  -0.42680  -0.41941
 Alpha  occ. eigenvalues --   -0.41375  -0.40784  -0.40103  -0.39179  -0.38911
 Alpha  occ. eigenvalues --   -0.37656  -0.36450  -0.33754  -0.32522  -0.30727
 Alpha virt. eigenvalues --    0.02287   0.13260   0.14078   0.15442   0.16268
 Alpha virt. eigenvalues --    0.16837   0.17581   0.18649   0.19113   0.20022
 Alpha virt. eigenvalues --    0.20707   0.20914   0.21962   0.22706   0.23561
 Alpha virt. eigenvalues --    0.23892   0.23987   0.24604   0.24828   0.25072
 Alpha virt. eigenvalues --    0.25407   0.26243   0.26432   0.26951   0.27064
 Alpha virt. eigenvalues --    0.27659   0.28159   0.28745   0.29232   0.30114
 Alpha virt. eigenvalues --    0.30628   0.31412   0.32123   0.32476   0.33055
 Alpha virt. eigenvalues --    0.33669   0.34347   0.35357   0.35674   0.36411
 Alpha virt. eigenvalues --    0.37055   0.37951   0.38835   0.38921   0.40888
 Alpha virt. eigenvalues --    0.41751   0.42170   0.44742   0.45700   0.49616
 Alpha virt. eigenvalues --    0.51862   0.57785   0.58664   0.59574   0.60481
 Alpha virt. eigenvalues --    0.61644   0.61832   0.62233   0.62740   0.64719
 Alpha virt. eigenvalues --    0.65602   0.65678   0.66783   0.68196   0.69439
 Alpha virt. eigenvalues --    0.70364   0.71081   0.72357   0.72900   0.73312
 Alpha virt. eigenvalues --    0.73774   0.74316   0.74804   0.75821   0.76655
 Alpha virt. eigenvalues --    0.77750   0.77914   0.78555   0.79850   0.81195
 Alpha virt. eigenvalues --    0.82500   0.82815   0.83927   0.84765   0.86071
 Alpha virt. eigenvalues --    0.86792   0.87516   0.89267   0.90109   0.90398
 Alpha virt. eigenvalues --    0.91151   0.92815   0.93481   0.93831   0.94570
 Alpha virt. eigenvalues --    0.94985   0.95584   0.96039   0.96404   0.96951
 Alpha virt. eigenvalues --    0.97521   0.97569   0.97924   0.98723   0.98936
 Alpha virt. eigenvalues --    0.99457   1.00100   1.00994   1.01136   1.01816
 Alpha virt. eigenvalues --    1.02171   1.03207   1.04112   1.04226   1.04409
 Alpha virt. eigenvalues --    1.05559   1.06072   1.06706   1.07202   1.07939
 Alpha virt. eigenvalues --    1.09036   1.10030   1.10889   1.11390   1.13665
 Alpha virt. eigenvalues --    1.14138   1.15303   1.16914   1.18709   1.20177
 Alpha virt. eigenvalues --    1.22061   1.22894   1.25169   1.26843   1.27671
 Alpha virt. eigenvalues --    1.29905   1.30698   1.35253   1.35849   1.37138
 Alpha virt. eigenvalues --    1.40541   1.41234   1.44419   1.47315   1.47679
 Alpha virt. eigenvalues --    1.50818   1.51975   1.55452   1.56756   1.59634
 Alpha virt. eigenvalues --    1.61307   1.62222   1.64068   1.65650   1.67176
 Alpha virt. eigenvalues --    1.70061   1.71020   1.73840   1.75334   1.76241
 Alpha virt. eigenvalues --    1.78009   1.79774   1.80134   1.82141   1.83732
 Alpha virt. eigenvalues --    1.84404   1.85538   1.86858   1.87970   1.88514
 Alpha virt. eigenvalues --    1.89882   1.91733   1.92919   1.94028   1.94460
 Alpha virt. eigenvalues --    1.95053   1.95883   1.97065   1.98585   1.99453
 Alpha virt. eigenvalues --    1.99991   2.00912   2.01465   2.01965   2.03937
 Alpha virt. eigenvalues --    2.04998   2.05358   2.06132   2.06981   2.07823
 Alpha virt. eigenvalues --    2.09260   2.09856   2.10423   2.11907   2.12315
 Alpha virt. eigenvalues --    2.12997   2.14388   2.15632   2.16632   2.18186
 Alpha virt. eigenvalues --    2.19254   2.20589   2.21709   2.22546   2.24959
 Alpha virt. eigenvalues --    2.26364   2.28542   2.29749   2.30620   2.32920
 Alpha virt. eigenvalues --    2.34455   2.35021   2.35530   2.38600   2.39795
 Alpha virt. eigenvalues --    2.41137   2.41550   2.42683   2.43813   2.46021
 Alpha virt. eigenvalues --    2.47837   2.49807   2.50658   2.51656   2.53055
 Alpha virt. eigenvalues --    2.53756   2.56259   2.57923   2.61313   2.62686
 Alpha virt. eigenvalues --    2.63223   2.64577   2.65322   2.65694   2.67175
 Alpha virt. eigenvalues --    2.68868   2.70775   2.71802   2.74217   2.76997
 Alpha virt. eigenvalues --    2.78433   2.80310   2.81300   2.82869   2.84497
 Alpha virt. eigenvalues --    2.85933   2.89928   2.94195   2.97674   2.98613
 Alpha virt. eigenvalues --    3.00992   3.01981   3.07246   3.08045   3.09185
 Alpha virt. eigenvalues --    3.20214   3.27273   3.98272   4.07654   4.24078
 Alpha virt. eigenvalues --    4.26680   4.31336   4.33474   4.36105   4.38968
 Alpha virt. eigenvalues --    4.41672   4.42848   4.47387   4.53602   4.55140
 Alpha virt. eigenvalues --    4.65367   4.67090   4.74972   4.77510   4.81385
 Alpha virt. eigenvalues --    4.85527   4.90029
          Condensed to atoms (all electrons):
               1          2          3          4          5          6
     1  C    4.437896   0.521908   0.370291  -0.000483  -0.022173  -0.027667
     2  O    0.521908   8.121455  -0.060603   0.005035   0.000379   0.002625
     3  C    0.370291  -0.060603   5.288899   0.514125  -0.043494   0.005240
     4  C   -0.000483   0.005035   0.514125   4.872058   0.380044  -0.044691
     5  C   -0.022173   0.000379  -0.043494   0.380044   5.089774   0.349243
     6  C   -0.027667   0.002625   0.005240  -0.044691   0.349243   5.157025
     7  C    0.345275  -0.079934  -0.131761   0.003185  -0.037123   0.283306
     8  C    0.003627  -0.000098  -0.037086   0.357366  -0.065952   0.004989
     9  C   -0.000125   0.000000   0.002823  -0.032799  -0.011122  -0.000256
    10  C   -0.000017   0.000000   0.000373  -0.015213  -0.037160   0.004287
    11  C   -0.000155   0.000001   0.002578  -0.032342   0.365872  -0.049518
    12  C    0.000000   0.000000   0.000003   0.000312   0.003654  -0.000145
    13  C    0.000000   0.000000   0.000000   0.000005   0.000028   0.000004
    14  C    0.000000   0.000000   0.000001  -0.000088   0.003707   0.000326
    15  C   -0.000001   0.000000  -0.000097   0.004472  -0.041230  -0.005984
    16  C    0.000000   0.000000   0.000000  -0.000001  -0.000099   0.000001
    17  C    0.000000   0.000000   0.000000   0.000000   0.000001   0.000000
    18  C    0.000000   0.000000   0.000000   0.000000   0.000004   0.000000
    19  C    0.000000   0.000000   0.000000   0.000003   0.000029  -0.000002
    20  O    0.000000   0.000000   0.000000   0.000000   0.000000   0.000000
    21  H   -0.028490   0.000759   0.360511  -0.044616   0.004407  -0.000392
    22  H    0.000690   0.000005  -0.002645  -0.043165   0.365635  -0.034979
    23  H   -0.003231   0.000089   0.003852  -0.004245  -0.043666   0.386275
    24  H    0.003665  -0.000077  -0.000369   0.004435  -0.029113   0.376240
    25  H   -0.028596  -0.000398   0.002580  -0.001711  -0.003267  -0.038366
    26  H   -0.026207   0.003323   0.005227  -0.000165   0.004133  -0.030251
    27  H    0.000239  -0.000001  -0.002323  -0.039006   0.003964  -0.000137
    28  H   -0.000130   0.000004  -0.007535  -0.037959   0.000524   0.000089
    29  H   -0.000001   0.000000  -0.000181  -0.002854   0.000531   0.000011
    30  H    0.000001   0.000000  -0.000085   0.003954  -0.000033   0.000010
    31  H    0.000005   0.000000  -0.000241  -0.004633  -0.002927   0.000311
    32  H    0.000044   0.000000   0.000190  -0.003421  -0.042937  -0.003852
    33  H    0.000000   0.000000  -0.000001  -0.000064   0.000094   0.000003
    34  H    0.000000   0.000000   0.000000   0.000003   0.000046  -0.000028
    35  H    0.000000   0.000000   0.000000   0.000001  -0.000109   0.000006
    36  H    0.000000   0.000000  -0.000007   0.000228  -0.002664  -0.003317
    37  H   -0.000013   0.000000   0.000021  -0.000216  -0.006364   0.003508
    38  H    0.000000   0.000000   0.000000   0.000000   0.000001   0.000000
    39  H    0.000000   0.000000   0.000000  -0.000001  -0.000001   0.000000
    40  H    0.000000   0.000000   0.000000   0.000000   0.000000   0.000000
    41  H    0.000000   0.000000   0.000000   0.000000   0.000000   0.000000
    42  H    0.000000   0.000000   0.000000   0.000000   0.000000   0.000000
    43  H    0.000000   0.000000   0.000000   0.000000  -0.000002   0.000000
    44  H    0.000000   0.000000   0.000000   0.000000  -0.000011   0.000001
    45  H    0.000000   0.000000   0.000000   0.000000   0.000167   0.000001
    46  H    0.000000   0.000000   0.000000   0.000000   0.000000   0.000000
               7          8          9         10         11         12
     1  C    0.345275   0.003627  -0.000125  -0.000017  -0.000155   0.000000
     2  O   -0.079934  -0.000098   0.000000   0.000000   0.000001   0.000000
     3  C   -0.131761  -0.037086   0.002823   0.000373   0.002578   0.000003
     4  C    0.003185   0.357366  -0.032799  -0.015213  -0.032342   0.000312
     5  C   -0.037123  -0.065952  -0.011122  -0.037160   0.365872   0.003654
     6  C    0.283306   0.004989  -0.000256   0.004287  -0.049518  -0.000145
     7  C    5.346058  -0.000154   0.000035  -0.000088   0.004692   0.000002
     8  C   -0.000154   5.156347   0.335260  -0.041332  -0.015361   0.003692
     9  C    0.000035   0.335260   5.095675   0.368615  -0.042333  -0.039543
    10  C   -0.000088  -0.041332   0.368615   5.012039   0.368667   0.366480
    11  C    0.004692  -0.015361  -0.042333   0.368667   5.054515  -0.037347
    12  C    0.000002   0.003692  -0.039543   0.366480  -0.037347   5.107244
    13  C    0.000000  -0.000131   0.004205  -0.027932  -0.011482   0.340325
    14  C   -0.000005  -0.000012  -0.000114  -0.011410  -0.039843  -0.049086
    15  C    0.000298   0.000371   0.004020  -0.036871   0.363161  -0.016028
    16  C    0.000000   0.000003  -0.002683  -0.032079   0.004124   0.359048
    17  C    0.000000   0.000000   0.000072   0.003491  -0.000164  -0.058591
    18  C    0.000000   0.000002  -0.000107   0.004260   0.000169  -0.061667
    19  C    0.000000  -0.000001   0.000225  -0.005492  -0.003433  -0.057796
    20  O    0.000000   0.000000   0.000000  -0.000064  -0.000003   0.003879
    21  H    0.006044  -0.006797   0.000182   0.000001  -0.000078   0.000000
    22  H   -0.004635   0.000953  -0.000465  -0.007694  -0.043900   0.000091
    23  H   -0.040947  -0.000023  -0.000031   0.000150  -0.002616  -0.000001
    24  H   -0.031064  -0.000105  -0.000007  -0.000097  -0.008919  -0.000001
    25  H    0.367697  -0.000040  -0.000001   0.000002   0.000036   0.000000
    26  H    0.369572   0.000008   0.000000   0.000001  -0.000071   0.000000
    27  H    0.000012   0.378984  -0.030982   0.004010  -0.000188  -0.000099
    28  H   -0.000075   0.377406  -0.038311  -0.003690  -0.000687  -0.000052
    29  H   -0.000003  -0.035368   0.379645  -0.038915  -0.008913  -0.004865
    30  H    0.000000  -0.031861   0.379142  -0.032767   0.005004  -0.005865
    31  H   -0.000018   0.000882  -0.048797   0.382225  -0.054622  -0.045135
    32  H   -0.000157  -0.000211  -0.007385  -0.048041   0.375950  -0.002756
    33  H    0.000000   0.000127  -0.006286  -0.044985  -0.004841   0.379615
    34  H    0.000000   0.000001  -0.000057  -0.000428  -0.003753  -0.006423
    35  H    0.000000   0.000000   0.000010  -0.000089   0.004188   0.006427
    36  H   -0.000087  -0.000011  -0.000040  -0.002614  -0.044171  -0.000057
    37  H    0.000140  -0.000010  -0.000107   0.003885  -0.028448   0.000062
    38  H    0.000000  -0.000017   0.001049  -0.000936  -0.000088  -0.026030
    39  H    0.000000  -0.000025  -0.000348  -0.004910   0.000088  -0.038037
    40  H    0.000000   0.000000  -0.000003  -0.000053   0.000003   0.001700
    41  H    0.000000   0.000000   0.000001  -0.000108   0.000002   0.003263
    42  H    0.000000   0.000000   0.000006  -0.000086  -0.000030  -0.000986
    43  H    0.000000   0.000000  -0.000018  -0.000058   0.000016  -0.002298
    44  H    0.000000   0.000000  -0.000001  -0.000039   0.000206   0.005377
    45  H    0.000000   0.000015  -0.000002   0.002194  -0.000763  -0.007617
    46  H    0.000000   0.000000   0.000000   0.000000   0.000001   0.000111
              13         14         15         16         17         18
     1  C    0.000000   0.000000  -0.000001   0.000000   0.000000   0.000000
     2  O    0.000000   0.000000   0.000000   0.000000   0.000000   0.000000
     3  C    0.000000   0.000001  -0.000097   0.000000   0.000000   0.000000
     4  C    0.000005  -0.000088   0.004472  -0.000001   0.000000   0.000000
     5  C    0.000028   0.003707  -0.041230  -0.000099   0.000001   0.000004
     6  C    0.000004   0.000326  -0.005984   0.000001   0.000000   0.000000
     7  C    0.000000  -0.000005   0.000298   0.000000   0.000000   0.000000
     8  C   -0.000131  -0.000012   0.000371   0.000003   0.000000   0.000002
     9  C    0.004205  -0.000114   0.004020  -0.002683   0.000072  -0.000107
    10  C   -0.027932  -0.011410  -0.036871  -0.032079   0.003491   0.004260
    11  C   -0.011482  -0.039843   0.363161   0.004124  -0.000164   0.000169
    12  C    0.340325  -0.049086  -0.016028   0.359048  -0.058591  -0.061667
    13  C    5.130115   0.373718  -0.039688  -0.054810  -0.074770   0.351552
    14  C    0.373718   5.126806   0.351391   0.006000   0.006568  -0.040820
    15  C   -0.039688   0.351391   5.095270   0.000173  -0.000218   0.004451
    16  C   -0.054810   0.006000   0.000173   5.118723   0.337696  -0.065554
    17  C   -0.074770   0.006568  -0.000218   0.337696   5.152865   0.367893
    18  C    0.351552  -0.040820   0.004451  -0.065554   0.367893   4.830202
    19  C    0.339468  -0.065411  -0.004458  -0.004447  -0.010620  -0.052452
    20  O   -0.057176  -0.000133   0.000066   0.002105  -0.038090   0.238703
    21  H    0.000000   0.000000   0.000002   0.000000   0.000000   0.000000
    22  H   -0.000050   0.000018  -0.005556  -0.000006   0.000000  -0.000001
    23  H   -0.000002  -0.000061  -0.003011   0.000000   0.000000   0.000000
    24  H   -0.000002   0.000128   0.004983   0.000000   0.000000   0.000000
    25  H    0.000000   0.000000  -0.000031   0.000000   0.000000   0.000000
    26  H    0.000000   0.000000   0.000001   0.000000   0.000000   0.000000
    27  H    0.000001   0.000000   0.000008  -0.000001   0.000000   0.000000
    28  H    0.000002   0.000000  -0.000006  -0.000006   0.000000   0.000000
    29  H   -0.000027   0.000004   0.000080  -0.000312  -0.000011  -0.000004
    30  H    0.000038  -0.000003  -0.000120   0.003242  -0.000015  -0.000007
    31  H   -0.008317   0.000387  -0.001658  -0.005394   0.000000   0.000053
    32  H   -0.001126  -0.000178  -0.046151  -0.000085   0.000004  -0.000050
    33  H   -0.053858  -0.006438  -0.000433  -0.043226  -0.001518  -0.002960
    34  H   -0.039563   0.376454  -0.035563   0.000054   0.000052  -0.004925
    35  H   -0.034179   0.367470  -0.031978  -0.000223   0.000031  -0.003846
    36  H   -0.009566  -0.033993   0.382297  -0.000013   0.000001  -0.000021
    37  H    0.004871  -0.034115   0.380508   0.000007   0.000003  -0.000077
    38  H    0.004873  -0.000143  -0.000004   0.377974  -0.027271   0.002372
    39  H   -0.005204  -0.000015  -0.000011   0.383845  -0.033082   0.002399
    40  H    0.004941  -0.000125   0.000003  -0.029808   0.378731  -0.026782
    41  H   -0.005118  -0.000114   0.000003  -0.029137   0.376486  -0.030191
    42  H   -0.070421  -0.008993   0.000101   0.001656  -0.045726   0.388564
    43  H   -0.028788   0.004370   0.000171   0.000628   0.004224  -0.006911
    44  H   -0.031182  -0.004547  -0.001354  -0.000153   0.000024  -0.003603
    45  H   -0.031874  -0.004446   0.001519  -0.000075  -0.000186   0.004826
    46  H   -0.003482   0.002738  -0.000046  -0.000284   0.006291  -0.020468
              19         20         21         22         23         24
     1  C    0.000000   0.000000  -0.028490   0.000690  -0.003231   0.003665
     2  O    0.000000   0.000000   0.000759   0.000005   0.000089  -0.000077
     3  C    0.000000   0.000000   0.360511  -0.002645   0.003852  -0.000369
     4  C    0.000003   0.000000  -0.044616  -0.043165  -0.004245   0.004435
     5  C    0.000029   0.000000   0.004407   0.365635  -0.043666  -0.029113
     6  C   -0.000002   0.000000  -0.000392  -0.034979   0.386275   0.376240
     7  C    0.000000   0.000000   0.006044  -0.004635  -0.040947  -0.031064
     8  C   -0.000001   0.000000  -0.006797   0.000953  -0.000023  -0.000105
     9  C    0.000225   0.000000   0.000182  -0.000465  -0.000031  -0.000007
    10  C   -0.005492  -0.000064   0.000001  -0.007694   0.000150  -0.000097
    11  C   -0.003433  -0.000003  -0.000078  -0.043900  -0.002616  -0.008919
    12  C   -0.057796   0.003879   0.000000   0.000091  -0.000001  -0.000001
    13  C    0.339468  -0.057176   0.000000  -0.000050  -0.000002  -0.000002
    14  C   -0.065411  -0.000133   0.000000   0.000018  -0.000061   0.000128
    15  C   -0.004458   0.000066   0.000002  -0.005556  -0.003011   0.004983
    16  C   -0.004447   0.002105   0.000000  -0.000006   0.000000   0.000000
    17  C   -0.010620  -0.038090   0.000000   0.000000   0.000000   0.000000
    18  C   -0.052452   0.238703   0.000000  -0.000001   0.000000   0.000000
    19  C    5.215569   0.004434   0.000000  -0.000105   0.000000  -0.000006
    20  O    0.004434   8.290096   0.000000   0.000000   0.000000   0.000000
    21  H    0.000000   0.000000   0.529353  -0.000192  -0.000075   0.000012
    22  H   -0.000105   0.000000  -0.000192   0.590842   0.005450  -0.003766
    23  H    0.000000   0.000000  -0.000075   0.005450   0.558286  -0.030821
    24  H   -0.000006   0.000000   0.000012  -0.003766  -0.030821   0.552177
    25  H    0.000000   0.000000  -0.000159   0.004590   0.004998  -0.004793
    26  H    0.000000   0.000000  -0.000096  -0.000168  -0.003213  -0.002444
    27  H    0.000000   0.000000   0.004750  -0.000095   0.000001   0.000002
    28  H   -0.000002   0.000000   0.000240   0.001374   0.000001   0.000007
    29  H   -0.000003   0.000000  -0.000007   0.000084  -0.000005   0.000001
    30  H   -0.000006   0.000000  -0.000006  -0.000018   0.000000   0.000000
    31  H    0.001597   0.000000  -0.000002   0.007113   0.000008   0.000005
    32  H    0.000070   0.000000  -0.000027   0.006100   0.004663   0.000099
    33  H    0.006460   0.000046   0.000000   0.000002  -0.000001   0.000000
    34  H    0.006100  -0.000103   0.000000   0.000003   0.000005   0.000007
    35  H   -0.006280   0.002994   0.000000  -0.000001   0.000001   0.000004
    36  H    0.004266  -0.000003   0.000000   0.004431   0.000303   0.002172
    37  H    0.000069   0.000000   0.000000   0.000001   0.001483  -0.001156
    38  H    0.000076  -0.000027   0.000000   0.000000   0.000000   0.000000
    39  H    0.002924  -0.000021   0.000000  -0.000004   0.000000   0.000000
    40  H    0.000240   0.001721   0.000000   0.000000   0.000000   0.000000
    41  H    0.001213   0.000993   0.000000   0.000000   0.000000   0.000000
    42  H    0.007431  -0.038133   0.000000   0.000000   0.000000   0.000000
    43  H    0.379554   0.000047   0.000000   0.000002   0.000000   0.000000
    44  H    0.377388   0.004244   0.000000   0.000001   0.000000   0.000000
    45  H    0.374227   0.000195   0.000000   0.000396   0.000000  -0.000007
    46  H   -0.000673   0.241068   0.000000   0.000000   0.000000   0.000000
              25         26         27         28         29         30
     1  C   -0.028596  -0.026207   0.000239  -0.000130  -0.000001   0.000001
     2  O   -0.000398   0.003323  -0.000001   0.000004   0.000000   0.000000
     3  C    0.002580   0.005227  -0.002323  -0.007535  -0.000181  -0.000085
     4  C   -0.001711  -0.000165  -0.039006  -0.037959  -0.002854   0.003954
     5  C   -0.003267   0.004133   0.003964   0.000524   0.000531  -0.000033
     6  C   -0.038366  -0.030251  -0.000137   0.000089   0.000011   0.000010
     7  C    0.367697   0.369572   0.000012  -0.000075  -0.000003   0.000000
     8  C   -0.000040   0.000008   0.378984   0.377406  -0.035368  -0.031861
     9  C   -0.000001   0.000000  -0.030982  -0.038311   0.379645   0.379142
    10  C    0.000002   0.000001   0.004010  -0.003690  -0.038915  -0.032767
    11  C    0.000036  -0.000071  -0.000188  -0.000687  -0.008913   0.005004
    12  C    0.000000   0.000000  -0.000099  -0.000052  -0.004865  -0.005865
    13  C    0.000000   0.000000   0.000001   0.000002  -0.000027   0.000038
    14  C    0.000000   0.000000   0.000000   0.000000   0.000004  -0.000003
    15  C   -0.000031   0.000001   0.000008  -0.000006   0.000080  -0.000120
    16  C    0.000000   0.000000  -0.000001  -0.000006  -0.000312   0.003242
    17  C    0.000000   0.000000   0.000000   0.000000  -0.000011  -0.000015
    18  C    0.000000   0.000000   0.000000   0.000000  -0.000004  -0.000007
    19  C    0.000000   0.000000   0.000000  -0.000002  -0.000003  -0.000006
    20  O    0.000000   0.000000   0.000000   0.000000   0.000000   0.000000
    21  H   -0.000159  -0.000096   0.004750   0.000240  -0.000007  -0.000006
    22  H    0.004590  -0.000168  -0.000095   0.001374   0.000084  -0.000018
    23  H    0.004998  -0.003213   0.000001   0.000001  -0.000005   0.000000
    24  H   -0.004793  -0.002444   0.000002   0.000007   0.000001   0.000000
    25  H    0.536375  -0.021176   0.000000   0.000008   0.000000   0.000000
    26  H   -0.021176   0.506161   0.000000  -0.000001   0.000000   0.000000
    27  H    0.000000   0.000000   0.530803  -0.027434  -0.003980  -0.000991
    28  H    0.000008  -0.000001  -0.027434   0.549596   0.004744  -0.005767
    29  H    0.000000   0.000000  -0.003980   0.004744   0.566037  -0.031817
    30  H    0.000000   0.000000  -0.000991  -0.005767  -0.031817   0.553954
    31  H   -0.000002   0.000000   0.000035   0.003761   0.005711  -0.002860
    32  H    0.000008  -0.000001  -0.000090   0.000131   0.006764   0.000127
    33  H    0.000000   0.000000   0.000002   0.000004   0.004881  -0.000084
    34  H    0.000000   0.000000   0.000000   0.000000  -0.000004   0.000001
    35  H    0.000000   0.000000   0.000000   0.000000   0.000000   0.000000
    36  H    0.000009   0.000001   0.000000  -0.000001  -0.000001   0.000003
    37  H    0.000006   0.000000   0.000000   0.000000  -0.000009   0.000002
    38  H    0.000000   0.000000   0.000001   0.000003   0.000131   0.000715
    39  H    0.000000   0.000000   0.000001  -0.000002   0.000046   0.000384
    40  H    0.000000   0.000000   0.000000   0.000000   0.000000   0.000001
    41  H    0.000000   0.000000   0.000000   0.000000   0.000000   0.000001
    42  H    0.000000   0.000000   0.000000   0.000000  -0.000003   0.000000
    43  H    0.000000   0.000000   0.000000   0.000000   0.000000   0.000000
    44  H    0.000000   0.000000   0.000000   0.000000   0.000000   0.000000
    45  H    0.000000   0.000000   0.000000  -0.000004  -0.000001   0.000003
    46  H    0.000000   0.000000   0.000000   0.000000   0.000000   0.000000
              31         32         33         34         35         36
     1  C    0.000005   0.000044   0.000000   0.000000   0.000000   0.000000
     2  O    0.000000   0.000000   0.000000   0.000000   0.000000   0.000000
     3  C   -0.000241   0.000190  -0.000001   0.000000   0.000000  -0.000007
     4  C   -0.004633  -0.003421  -0.000064   0.000003   0.000001   0.000228
     5  C   -0.002927  -0.042937   0.000094   0.000046  -0.000109  -0.002664
     6  C    0.000311  -0.003852   0.000003  -0.000028   0.000006  -0.003317
     7  C   -0.000018  -0.000157   0.000000   0.000000   0.000000  -0.000087
     8  C    0.000882  -0.000211   0.000127   0.000001   0.000000  -0.000011
     9  C   -0.048797  -0.007385  -0.006286  -0.000057   0.000010  -0.000040
    10  C    0.382225  -0.048041  -0.044985  -0.000428  -0.000089  -0.002614
    11  C   -0.054622   0.375950  -0.004841  -0.003753   0.004188  -0.044171
    12  C   -0.045135  -0.002756   0.379615  -0.006423   0.006427  -0.000057
    13  C   -0.008317  -0.001126  -0.053858  -0.039563  -0.034179  -0.009566
    14  C    0.000387  -0.000178  -0.006438   0.376454   0.367470  -0.033993
    15  C   -0.001658  -0.046151  -0.000433  -0.035563  -0.031978   0.382297
    16  C   -0.005394  -0.000085  -0.043226   0.000054  -0.000223  -0.000013
    17  C    0.000000   0.000004  -0.001518   0.000052   0.000031   0.000001
    18  C    0.000053  -0.000050  -0.002960  -0.004925  -0.003846  -0.000021
    19  C    0.001597   0.000070   0.006460   0.006100  -0.006280   0.004266
    20  O    0.000000   0.000000   0.000046  -0.000103   0.002994  -0.000003
    21  H   -0.000002  -0.000027   0.000000   0.000000   0.000000   0.000000
    22  H    0.007113   0.006100   0.000002   0.000003  -0.000001   0.004431
    23  H    0.000008   0.004663  -0.000001   0.000005   0.000001   0.000303
    24  H    0.000005   0.000099   0.000000   0.000007   0.000004   0.002172
    25  H   -0.000002   0.000008   0.000000   0.000000   0.000000   0.000009
    26  H    0.000000  -0.000001   0.000000   0.000000   0.000000   0.000001
    27  H    0.000035  -0.000090   0.000002   0.000000   0.000000   0.000000
    28  H    0.003761   0.000131   0.000004   0.000000   0.000000  -0.000001
    29  H    0.005711   0.006764   0.004881  -0.000004   0.000000  -0.000001
    30  H   -0.002860   0.000127  -0.000084   0.000001   0.000000   0.000003
    31  H    0.615551   0.006355   0.006433   0.000044  -0.000005   0.001094
    32  H    0.006355   0.609281   0.003354   0.002965  -0.000094   0.005522
    33  H    0.006433   0.003354   0.622489   0.005398   0.000039   0.000048
    34  H    0.000044   0.002965   0.005398   0.582937  -0.033361   0.004885
    35  H   -0.000005  -0.000094   0.000039  -0.033361   0.581766  -0.004464
    36  H    0.001094   0.005522   0.000048   0.004885  -0.004464   0.571980
    37  H   -0.000101  -0.006523  -0.000065  -0.004526  -0.001699  -0.033525
    38  H   -0.000141   0.000001  -0.006242  -0.000004   0.000003   0.000000
    39  H    0.005105   0.000003   0.005112  -0.000004   0.000005  -0.000004
    40  H    0.000001   0.000000   0.000247  -0.000007  -0.000001   0.000000
    41  H   -0.000024   0.000000  -0.000079   0.000001   0.000003   0.000000
    42  H   -0.000014  -0.000003   0.005297   0.005635   0.000202  -0.000002
    43  H    0.000140   0.000002  -0.000075  -0.000121  -0.000020   0.000024
    44  H   -0.000020   0.000002  -0.000109   0.000075   0.005003   0.000893
    45  H    0.003391  -0.000016   0.000021  -0.000117  -0.000073   0.000383
    46  H    0.000000   0.000000  -0.000009   0.000006   0.001696   0.000002
              37         38         39         40         41         42
     1  C   -0.000013   0.000000   0.000000   0.000000   0.000000   0.000000
     2  O    0.000000   0.000000   0.000000   0.000000   0.000000   0.000000
     3  C    0.000021   0.000000   0.000000   0.000000   0.000000   0.000000
     4  C   -0.000216   0.000000  -0.000001   0.000000   0.000000   0.000000
     5  C   -0.006364   0.000001  -0.000001   0.000000   0.000000   0.000000
     6  C    0.003508   0.000000   0.000000   0.000000   0.000000   0.000000
     7  C    0.000140   0.000000   0.000000   0.000000   0.000000   0.000000
     8  C   -0.000010  -0.000017  -0.000025   0.000000   0.000000   0.000000
     9  C   -0.000107   0.001049  -0.000348  -0.000003   0.000001   0.000006
    10  C    0.003885  -0.000936  -0.004910  -0.000053  -0.000108  -0.000086
    11  C   -0.028448  -0.000088   0.000088   0.000003   0.000002  -0.000030
    12  C    0.000062  -0.026030  -0.038037   0.001700   0.003263  -0.000986
    13  C    0.004871   0.004873  -0.005204   0.004941  -0.005118  -0.070421
    14  C   -0.034115  -0.000143  -0.000015  -0.000125  -0.000114  -0.008993
    15  C    0.380508  -0.000004  -0.000011   0.000003   0.000003   0.000101
    16  C    0.000007   0.377974   0.383845  -0.029808  -0.029137   0.001656
    17  C    0.000003  -0.027271  -0.033082   0.378731   0.376486  -0.045726
    18  C   -0.000077   0.002372   0.002399  -0.026782  -0.030191   0.388564
    19  C    0.000069   0.000076   0.002924   0.000240   0.001213   0.007431
    20  O    0.000000  -0.000027  -0.000021   0.001721   0.000993  -0.038133
    21  H    0.000000   0.000000   0.000000   0.000000   0.000000   0.000000
    22  H    0.000001   0.000000  -0.000004   0.000000   0.000000   0.000000
    23  H    0.001483   0.000000   0.000000   0.000000   0.000000   0.000000
    24  H   -0.001156   0.000000   0.000000   0.000000   0.000000   0.000000
    25  H    0.000006   0.000000   0.000000   0.000000   0.000000   0.000000
    26  H    0.000000   0.000000   0.000000   0.000000   0.000000   0.000000
    27  H    0.000000   0.000001   0.000001   0.000000   0.000000   0.000000
    28  H    0.000000   0.000003  -0.000002   0.000000   0.000000   0.000000
    29  H   -0.000009   0.000131   0.000046   0.000000   0.000000  -0.000003
    30  H    0.000002   0.000715   0.000384   0.000001   0.000001   0.000000
    31  H   -0.000101  -0.000141   0.005105   0.000001  -0.000024  -0.000014
    32  H   -0.006523   0.000001   0.000003   0.000000   0.000000  -0.000003
    33  H   -0.000065  -0.006242   0.005112   0.000247  -0.000079   0.005297
    34  H   -0.004526  -0.000004  -0.000004  -0.000007   0.000001   0.005635
    35  H   -0.001699   0.000003   0.000005  -0.000001   0.000003   0.000202
    36  H   -0.033525   0.000000  -0.000004   0.000000   0.000000  -0.000002
    37  H    0.556482   0.000000   0.000000   0.000000   0.000000  -0.000003
    38  H    0.000000   0.547707  -0.033543  -0.005998   0.002746   0.000012
    39  H    0.000000  -0.033543   0.563243   0.003315  -0.009509  -0.000169
    40  H    0.000000  -0.005998   0.003315   0.538823  -0.028775  -0.007472
    41  H    0.000000   0.002746  -0.009509  -0.028775   0.531295   0.005028
    42  H   -0.000003   0.000012  -0.000169  -0.007472   0.005028   0.636221
    43  H   -0.000002   0.000041   0.000137  -0.000022   0.001899   0.000088
    44  H   -0.000055  -0.000001   0.000017  -0.000007   0.000107   0.000023
    45  H    0.000092  -0.000014   0.000081  -0.000003   0.000023  -0.000094
    46  H    0.000001   0.000004   0.000003  -0.000197  -0.000094  -0.007065
              43         44         45         46
     1  C    0.000000   0.000000   0.000000   0.000000
     2  O    0.000000   0.000000   0.000000   0.000000
     3  C    0.000000   0.000000   0.000000   0.000000
     4  C    0.000000   0.000000   0.000000   0.000000
     5  C   -0.000002  -0.000011   0.000167   0.000000
     6  C    0.000000   0.000001   0.000001   0.000000
     7  C    0.000000   0.000000   0.000000   0.000000
     8  C    0.000000   0.000000   0.000015   0.000000
     9  C   -0.000018  -0.000001  -0.000002   0.000000
    10  C   -0.000058  -0.000039   0.002194   0.000000
    11  C    0.000016   0.000206  -0.000763   0.000001
    12  C   -0.002298   0.005377  -0.007617   0.000111
    13  C   -0.028788  -0.031182  -0.031874  -0.003482
    14  C    0.004370  -0.004547  -0.004446   0.002738
    15  C    0.000171  -0.001354   0.001519  -0.000046
    16  C    0.000628  -0.000153  -0.000075  -0.000284
    17  C    0.004224   0.000024  -0.000186   0.006291
    18  C   -0.006911  -0.003603   0.004826  -0.020468
    19  C    0.379554   0.377388   0.374227  -0.000673
    20  O    0.000047   0.004244   0.000195   0.241068
    21  H    0.000000   0.000000   0.000000   0.000000
    22  H    0.000002   0.000001   0.000396   0.000000
    23  H    0.000000   0.000000   0.000000   0.000000
    24  H    0.000000   0.000000  -0.000007   0.000000
    25  H    0.000000   0.000000   0.000000   0.000000
    26  H    0.000000   0.000000   0.000000   0.000000
    27  H    0.000000   0.000000   0.000000   0.000000
    28  H    0.000000   0.000000  -0.000004   0.000000
    29  H    0.000000   0.000000  -0.000001   0.000000
    30  H    0.000000   0.000000   0.000003   0.000000
    31  H    0.000140  -0.000020   0.003391   0.000000
    32  H    0.000002   0.000002  -0.000016   0.000000
    33  H   -0.000075  -0.000109   0.000021  -0.000009
    34  H   -0.000121   0.000075  -0.000117   0.000006
    35  H   -0.000020   0.005003  -0.000073   0.001696
    36  H    0.000024   0.000893   0.000383   0.000002
    37  H   -0.000002  -0.000055   0.000092   0.000001
    38  H    0.000041  -0.000001  -0.000014   0.000004
    39  H    0.000137   0.000017   0.000081   0.000003
    40  H   -0.000022  -0.000007  -0.000003  -0.000197
    41  H    0.001899   0.000107   0.000023  -0.000094
    42  H    0.000088   0.000023  -0.000094  -0.007065
    43  H    0.528467  -0.023071  -0.029863   0.000026
    44  H   -0.023071   0.529500  -0.030706   0.000085
    45  H   -0.029863  -0.030706   0.562056  -0.000023
    46  H    0.000026   0.000085  -0.000023   0.372753
 Mulliken charges:
               1
     1  C    0.453649
     2  O   -0.514471
     3  C   -0.270285
     4  C    0.162448
     5  C   -0.182791
     6  C   -0.333916
     7  C   -0.400264
     8  C   -0.385435
     9  C   -0.309041
    10  C   -0.127515
    11  C   -0.115201
    12  C   -0.120858
    13  C    0.034602
    14  C   -0.319993
    15  C   -0.322850
    16  C   -0.326882
    17  C   -0.344171
    18  C    0.124997
    19  C   -0.510156
    20  O   -0.656839
    21  H    0.174678
    22  H    0.159665
    23  H    0.166383
    24  H    0.168811
    25  H    0.182230
    26  H    0.195366
    27  H    0.182514
    28  H    0.183767
    29  H    0.158616
    30  H    0.165723
    31  H    0.134707
    32  H    0.141472
    33  H    0.131601
    34  H    0.144318
    35  H    0.146576
    36  H    0.156017
    37  H    0.165875
    38  H    0.162749
    39  H    0.158181
    40  H    0.169526
    41  H    0.180084
    42  H    0.128935
    43  H    0.171412
    44  H    0.171916
    45  H    0.156295
    46  H    0.407555
 Sum of Mulliken charges =   0.00000
 Mulliken charges with hydrogens summed into heavy atoms:
               1
     1  C    0.453649
     2  O   -0.514471
     3  C   -0.095607
     4  C    0.162448
     5  C   -0.023126
     6  C    0.001279
     7  C   -0.022668
     8  C   -0.019155
     9  C    0.015297
    10  C    0.007192
    11  C    0.026271
    12  C    0.010742
    13  C    0.034602
    14  C   -0.029099
    15  C   -0.000957
    16  C   -0.005952
    17  C    0.005439
    18  C    0.253932
    19  C   -0.010533
    20  O   -0.249284
 Electronic spatial extent (au):  <R**2>=           6807.4547
 Charge=              0.0000 electrons
 Dipole moment (field-independent basis, Debye):
    X=             -3.8068    Y=              0.1947    Z=             -0.4777  Tot=              3.8416
 Quadrupole moment (field-independent basis, Debye-Ang):
   XX=           -170.0802   YY=           -112.7113   ZZ=           -118.0174
   XY=              0.4128   XZ=              7.6539   YZ=              2.0424
 Traceless Quadrupole moment (field-independent basis, Debye-Ang):
   XX=            -36.4773   YY=             20.8917   ZZ=             15.5856
   XY=              0.4128   XZ=              7.6539   YZ=              2.0424
 Octapole moment (field-independent basis, Debye-Ang**2):
  XXX=           -207.4862  YYY=            -11.0436  ZZZ=             -0.6846  XYY=             -1.2631
  XXY=              8.6737  XXZ=            -13.1880  XZZ=             -5.7208  YZZ=             -3.8255
  YYZ=             -6.0390  XYZ=            -12.4627
 Hexadecapole moment (field-independent basis, Debye-Ang**3):
 XXXX=          -9282.7238 YYYY=          -1411.6353 ZZZZ=           -412.7231 XXXY=             16.8428
 XXXZ=            176.2872 YYYX=             72.3316 YYYZ=              5.8630 ZZZX=             12.3269
 ZZZY=              6.6225 XXYY=          -1291.8638 XXZZ=          -1189.7302 YYZZ=           -309.3626
 XXYZ=             45.3996 YYXZ=             22.3919 ZZXY=              6.1772
 N-N= 1.668115741810D+03 E-N=-5.313213310830D+03  KE= 8.439571701760D+02

 **********************************************************************

            Electrostatic Properties Using The SCF Density

 **********************************************************************

       Atomic Center    1 is at   4.633162 -0.208262  0.014002
       Atomic Center    2 is at   5.874374 -0.196555 -0.120955
       Atomic Center    3 is at   3.837088  0.963406 -0.181001
       Atomic Center    4 is at   2.493987  0.946887  0.034721
       Atomic Center    5 is at   1.744536 -0.346694  0.282190
       Atomic Center    6 is at   2.567548 -1.577637 -0.090779
       Atomic Center    7 is at   3.974640 -1.482348  0.464457
       Atomic Center    8 is at   1.723677  2.223879  0.120490
       Atomic Center    9 is at   0.282793  2.152506 -0.394076
       Atomic Center   10 is at  -0.423171  0.885047  0.084603
       Atomic Center   11 is at   0.377888 -0.329969 -0.433008
       Atomic Center   12 is at  -1.885996  0.807981 -0.318908
       Atomic Center   13 is at  -2.521061 -0.555261  0.015787
       Atomic Center   14 is at  -1.793016 -1.650402 -0.758332
       Atomic Center   15 is at  -0.324294 -1.697325 -0.329556
       Atomic Center   16 is at  -2.879318  1.818919  0.284048
       Atomic Center   17 is at  -4.266596  1.129364  0.133244
       Atomic Center   18 is at  -3.947909 -0.253722 -0.456155
       Atomic Center   19 is at  -2.502740 -0.870514  1.524314
       Atomic Center   20 is at  -4.927280 -1.245026 -0.107786
       Atomic Center   21 is at   4.368897  1.888465 -0.394838
       Atomic Center   22 is at   1.545872 -0.374222  1.368730
       Atomic Center   23 is at   2.609048 -1.670551 -1.185190
       Atomic Center   24 is at   2.084279 -2.480519  0.291063
       Atomic Center   25 is at   3.946814 -1.463777  1.564235
       Atomic Center   26 is at   4.595094 -2.331880  0.161061
       Atomic Center   27 is at   2.271629  3.031702 -0.374289
       Atomic Center   28 is at   1.720820  2.500596  1.191522
       Atomic Center   29 is at   0.278379  2.168237 -1.490598
       Atomic Center   30 is at  -0.252846  3.048008 -0.068353
       Atomic Center   31 is at  -0.374434  0.863487  1.180438
       Atomic Center   32 is at   0.566320 -0.152250 -1.503502
       Atomic Center   33 is at  -1.927319  0.914812 -1.415213
       Atomic Center   34 is at  -1.862989 -1.451076 -1.836435
       Atomic Center   35 is at  -2.255549 -2.634209 -0.584056
       Atomic Center   36 is at  -0.255608 -2.072453  0.701418
       Atomic Center   37 is at   0.208844 -2.422847 -0.956435
       Atomic Center   38 is at  -2.833032  2.794683 -0.204517
       Atomic Center   39 is at  -2.654024  1.990277  1.343426
       Atomic Center   40 is at  -4.940743  1.688106 -0.521183
       Atomic Center   41 is at  -4.763182  1.028861  1.103157
       Atomic Center   42 is at  -3.933977 -0.186381 -1.550360
       Atomic Center   43 is at  -3.188990 -0.242118  2.098060
       Atomic Center   44 is at  -2.785128 -1.915807  1.684682
       Atomic Center   45 is at  -1.509894 -0.739190  1.965130
       Atomic Center   46 is at  -4.782327 -1.982430 -0.714279
 -----------------------------------------------------------------

              Electrostatic Properties (Atomic Units)

 -----------------------------------------------------------------
    Center     Electric         -------- Electric Field --------
               Potential          X             Y             Z
 -----------------------------------------------------------------
    1 Atom    -14.674824      0.005275     -0.003184     -0.000380
    2 Atom    -22.355822      0.103258      0.000554     -0.011537
    3 Atom    -14.746105     -0.010105      0.000389      0.001652
    4 Atom    -14.707700      0.012542     -0.000585     -0.002612
    5 Atom    -14.718397     -0.002472     -0.003681     -0.001843
    6 Atom    -14.733439     -0.000277     -0.001134      0.000110
    7 Atom    -14.741949      0.001151     -0.001031     -0.002485
    8 Atom    -14.724014     -0.001495      0.002745     -0.000798
    9 Atom    -14.731666     -0.002745     -0.001807     -0.000356
   10 Atom    -14.731169     -0.001279     -0.000447     -0.000263
   11 Atom    -14.725651     -0.001707      0.000968      0.000266
   12 Atom    -14.736665      0.000423     -0.002292      0.002606
   13 Atom    -14.734070     -0.001939      0.002278     -0.002371
   14 Atom    -14.735986     -0.001466      0.002980      0.002221
   15 Atom    -14.733935     -0.000217     -0.000268      0.000185
   16 Atom    -14.737361      0.001700     -0.000007      0.000385
   17 Atom    -14.741480     -0.002058     -0.000790      0.000456
   18 Atom    -14.691517      0.016740      0.012123     -0.003164
   19 Atom    -14.749374     -0.000759     -0.000632     -0.000880
   20 Atom    -22.315166     -0.077726      0.014823      0.083497
   21 Atom     -1.104168      0.016452      0.026702     -0.006297
   22 Atom     -1.103929     -0.007165     -0.004044      0.030147
   23 Atom     -1.117409      0.000871     -0.003615     -0.029507
   24 Atom     -1.118036     -0.014010     -0.025791      0.008790
   25 Atom     -1.106325      0.000802     -0.002385      0.029914
   26 Atom     -1.118061      0.019955     -0.019307     -0.007238
   27 Atom     -1.108285      0.015650      0.022102     -0.014558
   28 Atom     -1.100932     -0.002574      0.008606      0.025967
   29 Atom     -1.117615     -0.000459      0.001874     -0.031159
   30 Atom     -1.117149     -0.017056      0.025468      0.008914
   31 Atom     -1.121296     -0.000550      0.001248      0.033454
   32 Atom     -1.119823      0.005623      0.004090     -0.030971
   33 Atom     -1.123405     -0.001287      0.003153     -0.030849
   34 Atom     -1.118363     -0.001898      0.004913     -0.030221
   35 Atom     -1.118361     -0.011329     -0.025298      0.004682
   36 Atom     -1.119550      0.001172     -0.011428      0.026440
   37 Atom     -1.120055      0.014001     -0.019279     -0.015037
   38 Atom     -1.123704      0.000239      0.027324     -0.014140
   39 Atom     -1.124075      0.006570      0.004963      0.028470
   40 Atom     -1.126297     -0.019659      0.015035     -0.016422
   41 Atom     -1.124448     -0.016137     -0.005468      0.024377
   42 Atom     -1.125165      0.001282      0.005051     -0.034351
   43 Atom     -1.122527     -0.020387      0.013872      0.015694
   44 Atom     -1.124613     -0.012064     -0.026214      0.006037
   45 Atom     -1.121039      0.025668      0.002779      0.012694
   46 Atom     -0.999947      0.001859     -0.035967     -0.024308
 -----------------------------------------------------------------
 -----------------------------------------------------
    Center         ---- Electric Field Gradient ----
                     XX            YY            ZZ
 -----------------------------------------------------
    1 Atom     -493.302562   -493.262684   -493.928663
    2 Atom    -1217.206919  -1214.730856  -1217.492269
    3 Atom     -493.092035   -493.162707   -493.388907
    4 Atom     -493.158103   -493.257111   -493.805671
    5 Atom     -492.759948   -492.808198   -492.789570
    6 Atom     -492.626065   -492.613631   -492.601399
    7 Atom     -492.703127   -492.724739   -492.732442
    8 Atom     -492.559314   -492.595756   -492.564522
    9 Atom     -492.669458   -492.611933   -492.620895
   10 Atom     -492.762189   -492.789370   -492.763998
   11 Atom     -492.822721   -492.798988   -492.798564
   12 Atom     -492.900028   -492.907084   -492.895303
   13 Atom     -492.908726   -492.936165   -492.974710
   14 Atom     -492.698414   -492.672342   -492.687213
   15 Atom     -492.631102   -492.633114   -492.593948
   16 Atom     -492.652093   -492.589412   -492.570946
   17 Atom     -492.625134   -492.636973   -492.570660
   18 Atom     -492.868252   -492.902041   -492.688229
   19 Atom     -492.529837   -492.533747   -492.588245
   20 Atom    -1214.135558  -1215.661196  -1213.951394
   21 Atom       -1.705235     -1.925680     -1.604597
   22 Atom       -1.631593     -1.619829     -2.008592
   23 Atom       -1.621883     -1.619901     -2.035592
   24 Atom       -1.718361     -1.927100     -1.681506
   25 Atom       -1.598863     -1.598838     -2.019790
   26 Atom       -1.739157     -1.864359     -1.635978
   27 Atom       -1.730250     -1.852811     -1.703547
   28 Atom       -1.599561     -1.625592     -1.980340
   29 Atom       -1.626347     -1.625286     -2.052572
   30 Atom       -1.734635     -1.920326     -1.664555
   31 Atom       -1.648521     -1.645230     -2.065352
   32 Atom       -1.649095     -1.651113     -2.025542
   33 Atom       -1.647073     -1.644934     -2.046620
   34 Atom       -1.628139     -1.638756     -2.033064
   35 Atom       -1.700211     -1.956623     -1.631690
   36 Atom       -1.628517     -1.672685     -1.994503
   37 Atom       -1.730904     -1.813534     -1.765227
   38 Atom       -1.628798     -1.978575     -1.716275
   39 Atom       -1.643244     -1.632845     -2.025776
   40 Atom       -1.789225     -1.740891     -1.783385
   41 Atom       -1.700998     -1.615656     -1.957179
   42 Atom       -1.681176     -1.686801     -2.097338
   43 Atom       -1.776312     -1.751555     -1.729102
   44 Atom       -1.625549     -2.002812     -1.616170
   45 Atom       -1.977981     -1.617321     -1.685415
   46 Atom       -1.465887     -1.849964     -1.709583
 -----------------------------------------------------
 -----------------------------------------------------
    Center         ---- Electric Field Gradient ----
                     XY            XZ            YZ
 -----------------------------------------------------
    1 Atom       -0.027687     -0.063047     -0.194472
    2 Atom       -0.072737     -0.014272     -0.785132
    3 Atom       -0.016479     -0.042686     -0.042154
    4 Atom       -0.009385     -0.090580     -0.042374
    5 Atom       -0.029752     -0.012106      0.000899
    6 Atom        0.025120     -0.005840     -0.021566
    7 Atom       -0.011791     -0.031532      0.005069
    8 Atom        0.023666     -0.024464     -0.009991
    9 Atom       -0.008947     -0.019638      0.021636
   10 Atom        0.000347      0.010657     -0.005341
   11 Atom       -0.008092     -0.020910     -0.010831
   12 Atom        0.019196      0.000152      0.000953
   13 Atom        0.005226      0.006434      0.007954
   14 Atom       -0.011173     -0.011870     -0.011232
   15 Atom       -0.019348     -0.011558      0.009083
   16 Atom       -0.010124      0.010176     -0.019318
   17 Atom       -0.023677     -0.006126     -0.035998
   18 Atom       -0.216223      0.084148      0.099159
   19 Atom        0.001446     -0.006259      0.014674
   20 Atom       -0.967483      0.727342     -0.828838
   21 Atom       -0.179504      0.043646      0.076985
   22 Atom       -0.001052      0.074052      0.012297
   23 Atom        0.003428      0.014491     -0.036045
   24 Atom       -0.158162      0.067412      0.125859
   25 Atom       -0.001679      0.012473     -0.006197
   26 Atom        0.188115      0.066632     -0.093671
   27 Atom       -0.157044      0.098637      0.146891
   28 Atom        0.003988      0.003382     -0.098559
   29 Atom       -0.002435     -0.001999      0.005205
   30 Atom        0.174450      0.063539     -0.108290
   31 Atom       -0.000327     -0.018798      0.009101
   32 Atom       -0.012166      0.067684      0.064105
   33 Atom        0.000286     -0.015757      0.038415
   34 Atom        0.006476     -0.026853      0.076415
   35 Atom       -0.158038      0.027257      0.059463
   36 Atom        0.006846     -0.025805      0.134616
   37 Atom        0.135472      0.118417     -0.161509
   38 Atom       -0.016511      0.007937      0.178472
   39 Atom       -0.014105     -0.084799     -0.063735
   40 Atom        0.137997     -0.162540      0.134329
   41 Atom       -0.017055      0.172777      0.034745
   42 Atom       -0.009021      0.007673      0.025678
   43 Atom        0.163839      0.143901     -0.130286
   44 Atom       -0.108546      0.017974      0.060361
   45 Atom       -0.049263     -0.157668     -0.019923
   46 Atom        0.056365      0.082651     -0.326911
 -----------------------------------------------------
 -----------------------------------------------------
    Center         ---- Electric Field Gradient ----
                   ----       Eigenvalues       ----
 -----------------------------------------------------
    1 Atom     -493.988057   -493.296997   -493.208856
    2 Atom    -1217.702015  -1217.206449  -1214.521580
    3 Atom     -493.403006   -493.156138   -493.084506
    4 Atom     -493.821418   -493.253910   -493.145556
    5 Atom     -492.822986   -492.791726   -492.743005
    6 Atom     -492.647693   -492.617087   -492.576315
    7 Atom     -492.752724   -492.728121   -492.679464
    8 Atom     -492.607510   -492.583678   -492.528404
    9 Atom     -492.676432   -492.636326   -492.589528
   10 Atom     -492.790692   -492.772776   -492.752089
   11 Atom     -492.838728   -492.797453   -492.784092
   12 Atom     -492.923088   -492.895336   -492.883992
   13 Atom     -492.976706   -492.936040   -492.906856
   14 Atom     -492.712014   -492.680394   -492.665560
   15 Atom     -492.651518   -492.620717   -492.585929
   16 Atom     -492.654333   -492.601412   -492.556706
   17 Atom     -492.666796   -492.611331   -492.554640
   18 Atom     -493.139449   -492.669763   -492.649310
   19 Atom     -492.592602   -492.530066   -492.529162
   20 Atom    -1216.228335  -1214.760804  -1212.759010
   21 Atom       -2.043927     -1.604827     -1.586758
   22 Atom       -2.022989     -1.620081     -1.616943
   23 Atom       -2.039214     -1.622231     -1.615931
   24 Atom       -2.065334     -1.633251     -1.628382
   25 Atom       -2.020249     -1.600486     -1.596756
   26 Atom       -2.033275     -1.603924     -1.602295
   27 Atom       -2.050369     -1.623116     -1.613123
   28 Atom       -2.005928     -1.602806     -1.596759
   29 Atom       -2.052645     -1.628302     -1.623259
   30 Atom       -2.064509     -1.630162     -1.624845
   31 Atom       -2.066394     -1.647866     -1.644843
   32 Atom       -2.048065     -1.640665     -1.637021
   33 Atom       -2.050872     -1.646727     -1.641027
   34 Atom       -2.049163     -1.627103     -1.623694
   35 Atom       -2.042336     -1.625152     -1.621037
   36 Atom       -2.045084     -1.628119     -1.622501
   37 Atom       -2.053149     -1.630713     -1.625803
   38 Atom       -2.069664     -1.628102     -1.625882
   39 Atom       -2.053851     -1.625418     -1.622596
   40 Atom       -2.063744     -1.626240     -1.623518
   41 Atom       -2.047636     -1.614089     -1.612109
   42 Atom       -2.099099     -1.691885     -1.674330
   43 Atom       -2.046827     -1.610864     -1.599278
   44 Atom       -2.041139     -1.607138     -1.596254
   45 Atom       -2.053247     -1.616957     -1.610513
   46 Atom       -2.128018     -1.477462     -1.419955
 -----------------------------------------------------
 -----------------------------------------------------
    Center         ---- Electric Field Gradient ----
                       ( tensor representation )
                   3XX-RR        3YY-RR        3ZZ-RR
 -----------------------------------------------------
    1 Atom        0.195408      0.235286     -0.430693
    2 Atom       -0.730237      1.745825     -1.015588
    3 Atom        0.122515      0.051842     -0.174357
    4 Atom        0.248859      0.149851     -0.398710
    5 Atom        0.025957     -0.022292     -0.003665
    6 Atom       -0.012367      0.000068      0.012299
    7 Atom        0.016976     -0.004636     -0.012339
    8 Atom        0.013883     -0.022558      0.008676
    9 Atom       -0.035362      0.022162      0.013200
   10 Atom        0.009663     -0.017517      0.007854
   11 Atom       -0.015963      0.007770      0.008194
   12 Atom        0.000777     -0.006279      0.005502
   13 Atom        0.031141      0.003702     -0.034843
   14 Atom       -0.012424      0.013648     -0.001223
   15 Atom       -0.011714     -0.013726      0.025440
   16 Atom       -0.047943      0.014739      0.033204
   17 Atom       -0.014211     -0.026051      0.040262
   18 Atom       -0.048745     -0.082534      0.131278
   19 Atom        0.020773      0.016863     -0.037635
   20 Atom        0.447158     -1.078480      0.631322
   21 Atom        0.039936     -0.180509      0.140573
   22 Atom        0.121744      0.133509     -0.255254
   23 Atom        0.137242      0.139225     -0.276466
   24 Atom        0.057294     -0.151444      0.094150
   25 Atom        0.140301      0.140325     -0.280626
   26 Atom        0.007341     -0.117861      0.110520
   27 Atom        0.031953     -0.090609      0.058656
   28 Atom        0.135603      0.109572     -0.245176
   29 Atom        0.141721      0.142783     -0.284504
   30 Atom        0.038537     -0.147154      0.108617
   31 Atom        0.137847      0.141138     -0.278984
   32 Atom        0.126155      0.124137     -0.250292
   33 Atom        0.132469      0.134609     -0.267078
   34 Atom        0.138514      0.127897     -0.266411
   35 Atom        0.062630     -0.193781      0.131151
   36 Atom        0.136718      0.092550     -0.229268
   37 Atom        0.038984     -0.043645      0.004661
   38 Atom        0.145751     -0.204026      0.058274
   39 Atom        0.124044      0.134443     -0.258487
   40 Atom       -0.018057      0.030276     -0.012218
   41 Atom        0.056946      0.142288     -0.199234
   42 Atom        0.140596      0.134971     -0.275566
   43 Atom       -0.023989      0.000768      0.023221
   44 Atom        0.122628     -0.254635      0.132007
   45 Atom       -0.217742      0.142918      0.074824
   46 Atom        0.209258     -0.174819     -0.034438
 -----------------------------------------------------
 -----------------------------------------------------
    Center         ---- Electric Field Gradient ----
                       ( tensor representation )
                   ----       Eigenvalues       ----
 -----------------------------------------------------
    1 Atom       -0.490087      0.200973      0.289114
    2 Atom       -1.225334     -0.729767      1.955101
    3 Atom       -0.188456      0.058412      0.130044
    4 Atom       -0.414457      0.153052      0.261405
    5 Atom       -0.037080     -0.005820      0.042901
    6 Atom       -0.033995     -0.003388      0.037383
    7 Atom       -0.032621     -0.008018      0.040639
    8 Atom       -0.034313     -0.010481      0.044793
    9 Atom       -0.042336     -0.002231      0.044567
   10 Atom       -0.018840     -0.000924      0.019764
   11 Atom       -0.031970      0.009305      0.022665
   12 Atom       -0.022283      0.005470      0.016813
   13 Atom       -0.036838      0.003827      0.033011
   14 Atom       -0.026024      0.005595      0.020429
   15 Atom       -0.032130     -0.001329      0.033460
   16 Atom       -0.050183      0.002738      0.047444
   17 Atom       -0.055873     -0.000409      0.056282
   18 Atom       -0.319942      0.149744      0.170197
   19 Atom       -0.041992      0.020544      0.021448
   20 Atom       -1.645618     -0.178088      1.823706
   21 Atom       -0.298756      0.140344      0.158413
   22 Atom       -0.269652      0.133257      0.136395
   23 Atom       -0.280089      0.136894      0.143195
   24 Atom       -0.289678      0.142405      0.147274
   25 Atom       -0.281085      0.138677      0.142408
   26 Atom       -0.286777      0.142574      0.144203
   27 Atom       -0.288166      0.139087      0.149080
   28 Atom       -0.270764      0.132359      0.138405
   29 Atom       -0.284576      0.139767      0.144810
   30 Atom       -0.291337      0.143010      0.148327
   31 Atom       -0.280026      0.138501      0.141525
   32 Atom       -0.272814      0.134585      0.138230
   33 Atom       -0.271330      0.132815      0.138515
   34 Atom       -0.282510      0.139550      0.142959
   35 Atom       -0.279494      0.137690      0.141804
   36 Atom       -0.279850      0.137116      0.142734
   37 Atom       -0.283260      0.139175      0.144086
   38 Atom       -0.295115      0.146447      0.148667
   39 Atom       -0.286563      0.141870      0.144693
   40 Atom       -0.292577      0.144927      0.147650
   41 Atom       -0.289691      0.143855      0.145836
   42 Atom       -0.277328      0.129886      0.147442
   43 Atom       -0.294503      0.141459      0.153045
   44 Atom       -0.292962      0.141039      0.151924
   45 Atom       -0.293008      0.143282      0.149726
   46 Atom       -0.452873      0.197683      0.255190
 -----------------------------------------------------
 1|1|UNPC-KLEM_RSRCH_MSI|SP|RwB97XD|6-31G(d)|C18H26O2|KLEM_|22-May-2026
 |0||# wb97xd/6-31g(d) prop=efg||19NT_md_min_distance_cutoff8||0,1|C,0,
 -2.850214,-2.05095,0.395278|O,0,-3.853589,-2.585881,0.911074|C,0,-2.78
 8001,-0.64634,0.13496|C,0,-1.713015,-0.091864,-0.487688|C,0,-0.446955,
 -0.884103,-0.744047|C,0,-0.395019,-2.177864,0.065373|C,0,-1.706834,-2.
 931648,-0.025326|C,0,-1.780225,1.302429,-1.019544|C,0,-0.460912,2.0795
 92,-0.98143|C,0,0.712778,1.218185,-1.444466|C,0,0.800849,-0.008076,-0.
 509368|C,0,2.032778,1.967236,-1.516153|C,0,3.226015,1.036862,-1.80658|
 C,0,3.357033,0.022224,-0.67433|C,0,2.094101,-0.839908,-0.604138|C,0,2.
 196872,3.089367,-2.558331|C,0,3.737035,3.219041,-2.742317|C,0,4.325704
 ,2.103089,-1.86482|C,0,3.102641,0.308823,-3.159396|O,0,5.600199,1.6388
 49,-2.337424|H,0,-3.683192,-0.066642,0.351445|H,0,-0.468524,-1.143374,
 -1.817876|H,0,-0.177937,-1.94173,1.116661|H,0,0.417389,-2.813169,-0.29
 6468|H,0,-1.896245,-3.237395,-1.065169|H,0,-1.705715,-3.835305,0.59283
 3|H,0,-2.574069,1.862863,-0.516195|H,0,-2.123508,1.207294,-2.066824|H,
 0,-0.263974,2.427951,0.039593|H,0,-0.560651,2.974492,-1.601215|H,0,0.4
 82603,0.844297,-2.449912|H,0,0.747249,0.375453,0.52169|H,0,2.211151,2.
 408343,-0.521863|H,0,3.505983,0.547871,0.278792|H,0,4.234009,-0.626759
 ,-0.822381|H,0,2.049274,-1.496127,-1.484884|H,0,2.160044,-1.501415,0.2
 6859|H,0,1.724747,4.023609,-2.246491|H,0,1.724459,2.802925,-3.505527|H
 ,0,4.112485,4.198461,-2.434559|H,0,4.021393,3.075384,-3.789185|H,0,4.4
 79401,2.484804,-0.848609|H,0,3.224684,0.978335,-4.014887|H,0,3.866871,
 -0.471819,-3.227569|H,0,2.133589,-0.18491,-3.279708|H,0,5.988373,1.144
 467,-1.604268||Version=EM64W-G16RevA.03|State=1-A|HF=-851.7883957|RMSD
 =3.875e-009|Dipole=1.2265481,0.8271931,-0.3093057|Quadrupole=-11.21819
 57,6.3011902,4.9170055,-14.9865295,15.2458129,6.1964299|PG=C01 [X(C18H
 26O2)]||@


 THE UNDERLYING PHYSICAL LAWS NECESSARY FOR THE 
 MATHEMATICAL THEORY OF A LARGE PART OF PHYSICS AND THE
 WHOLE OF CHEMISTRY ARE THUS COMPLETELY KNOWN, AND THE
 DIFFICULTY IS ONLY THAT THE EXACT APPLICATION OF THESE
 LAWS LEADS TO EQUATIONS MUCH TOO COMPLICATED 
 TO BE SOLUBLE.

                                        -- P. A. M. DIRAC, 1929
 Job cpu time:       0 days  0 hours  2 minutes 27.0 seconds.
 Elapsed time:       0 days  0 hours  2 minutes 27.0 seconds.
 File lengths (MBytes):  RWF=     71 Int=      0 D2E=      0 Chk=      8 Scr=      1
 Normal termination of Gaussian 16 at Fri May 22 11:35:49 2026.
