 Entering Gaussian System, Link 0=g16
 Input=cutoff6_mm_min_elec.com
 Output=cutoff6_mm_min_elec.log
 Initial command:
 /usr/local/packages/license/gaussian/g16-c01/g16/l1.exe "/work/arkanil/gauss_scratch/Gau-2561398.inp" -scrdir="/work/arkanil/gauss_scratch/"
 Entering Link 1 = /usr/local/packages/license/gaussian/g16-c01/g16/l1.exe PID=   2561402.
  
 Copyright (c) 1988-2019, Gaussian, Inc.  All Rights Reserved.
  
 This is part of the Gaussian(R) 16 program.  It is based on
 the Gaussian(R) 09 system (copyright 2009, Gaussian, Inc.),
 the Gaussian(R) 03 system (copyright 2003, Gaussian, Inc.),
 the Gaussian(R) 98 system (copyright 1998, Gaussian, Inc.),
 the Gaussian(R) 94 system (copyright 1995, Gaussian, Inc.),
 the Gaussian 92(TM) system (copyright 1992, Gaussian, Inc.),
 the Gaussian 90(TM) system (copyright 1990, Gaussian, Inc.),
 the Gaussian 88(TM) system (copyright 1988, Gaussian, Inc.),
 the Gaussian 86(TM) system (copyright 1986, Carnegie Mellon
 University), and the Gaussian 82(TM) system (copyright 1983,
 Carnegie Mellon University). Gaussian is a federally registered
 trademark of Gaussian, Inc.
  
 This software contains proprietary and confidential information,
 including trade secrets, belonging to Gaussian, Inc.
  
 This software is provided under written license and may be
 used, copied, transmitted, or stored only in accord with that
 written license.
  
 The following legend is applicable only to US Government
 contracts under FAR:
  
                    RESTRICTED RIGHTS LEGEND
  
 Use, reproduction and disclosure by the US Government is
 subject to restrictions as set forth in subparagraphs (a)
 and (c) of the Commercial Computer Software - Restricted
 Rights clause in FAR 52.227-19.
  
 Gaussian, Inc.
 340 Quinnipiac St., Bldg. 40, Wallingford CT 06492
  
  
 ---------------------------------------------------------------
 Warning -- This program may not be used in any manner that
 competes with the business of Gaussian, Inc. or will provide
 assistance to any competitor of Gaussian, Inc.  The licensee
 of this program is prohibited from giving any competitor of
 Gaussian, Inc. access to this program.  By using this program,
 the user acknowledges that Gaussian, Inc. is engaged in the
 business of creating and licensing software in the field of
 computational chemistry and represents and warrants to the
 licensee that it is not a competitor of Gaussian, Inc. and that
 it will not use this program in any manner prohibited above.
 ---------------------------------------------------------------
  

 Cite this work as:
 Gaussian 16, Revision C.01,
 M. J. Frisch, G. W. Trucks, H. B. Schlegel, G. E. Scuseria, 
 M. A. Robb, J. R. Cheeseman, G. Scalmani, V. Barone, 
 G. A. Petersson, H. Nakatsuji, X. Li, M. Caricato, A. V. Marenich, 
 J. Bloino, B. G. Janesko, R. Gomperts, B. Mennucci, H. P. Hratchian, 
 J. V. Ortiz, A. F. Izmaylov, J. L. Sonnenberg, D. Williams-Young, 
 F. Ding, F. Lipparini, F. Egidi, J. Goings, B. Peng, A. Petrone, 
 T. Henderson, D. Ranasinghe, V. G. Zakrzewski, J. Gao, N. Rega, 
 G. Zheng, W. Liang, M. Hada, M. Ehara, K. Toyota, R. Fukuda, 
 J. Hasegawa, M. Ishida, T. Nakajima, Y. Honda, O. Kitao, H. Nakai, 
 T. Vreven, K. Throssell, J. A. Montgomery, Jr., J. E. Peralta, 
 F. Ogliaro, M. J. Bearpark, J. J. Heyd, E. N. Brothers, K. N. Kudin, 
 V. N. Staroverov, T. A. Keith, R. Kobayashi, J. Normand, 
 K. Raghavachari, A. P. Rendell, J. C. Burant, S. S. Iyengar, 
 J. Tomasi, M. Cossi, J. M. Millam, M. Klene, C. Adamo, R. Cammi, 
 J. W. Ochterski, R. L. Martin, K. Morokuma, O. Farkas, 
 J. B. Foresman, and D. J. Fox, Gaussian, Inc., Wallingford CT, 2019.
 
 ******************************************
 Gaussian 16:  ES64L-G16RevC.01  3-Jul-2019
                18-May-2026 
 ******************************************
 %chk=19NT_md_min_distance_cutoff6.chk
 %nprocshared=64
 Will use up to   64 processors via shared memory.
 %mem=200GB
 --------------------------
 # wb97xd/6-31g(d) prop=efg
 --------------------------
 1/38=1,172=1/1;
 2/12=2,17=6,18=5,40=1/2;
 3/5=1,6=6,7=1,11=2,25=1,30=1,74=-58/1,2,3;
 4//1;
 5/5=2,38=5/2;
 6/7=2,8=2,9=2,10=2,14=1,28=1/1,2;
 99/5=1,9=1/99;
 ----------------------------
 19NT_md_min_distance_cutoff6
 ----------------------------
 Symbolic Z-matrix:
 Charge = -1 Multiplicity = 1
 H                    0     9.22102   6.9412   -3.89539 
 C                    -1    8.74324   5.98139  -3.65712 
 H                    0     8.88036   5.3149   -4.51197 
 C                    0     9.39542   5.36881  -2.40484 
 H                    0     10.46208   5.22103  -2.60727 
 H                    0     9.33437   6.06672  -1.56067 
 C                    0     8.73649   4.06508  -2.04039 
 C                    0     9.11106   2.86336  -2.64426 
 H                    0     9.96068   2.84414  -3.32283 
 C                    0     8.41583   1.68625  -2.39643 
 H                    0     8.70861   0.75103  -2.86408 
 C                    0     7.31649   1.71148  -1.54334 
 O                    0     6.60804   0.56622  -1.34511 
 H                    0     6.02721   0.67877  -0.54353 
 C                    0     6.93563   2.89492  -0.91424 
 H                    0     6.08998   2.90556  -0.2342 
 C                    0     7.65138   4.05537  -1.16552 
 H                    0     7.3463    4.97844  -0.68234 
 C                    0     7.2239    6.19265  -3.54315 
 O                    0     6.43856   5.63809  -4.30115 
 N                    0     6.79668   7.03435  -2.55988 
 H                    0     7.48449   7.51873  -2.00237 
 C                    -1    5.38846   7.36616  -2.34361 
 H                    0     4.80472   6.44625  -2.44791 
 C                    0     5.16472   8.00422  -0.96976 
 H                    0     5.81208   8.89341  -0.90862 
 C                    0     3.71689   8.4894   -0.86421 
 H                    0     3.52359   8.92381   0.12234 
 H                    0     3.01509   7.663    -1.00884 
 H                    0     3.49621   9.25063  -1.62129 
 C                    0     5.55056   7.08065   0.19908 
 H                    0     6.63065   6.88936   0.16942 
 H                    0     5.38384   7.62055   1.1392 
 C                    0     4.80709   5.74823   0.2572 
 H                    0     5.11899   5.18366   1.14215 
 H                    0     5.00211   5.13324  -0.62823 
 H                    0     3.72481   5.8885    0.33953 
 H                    0     5.04538   8.04927  -3.13291 
 H                    0     3.8339    4.66163  -5.65275 
 C                    -1    2.90717   4.13562  -5.40012 
 H                    0     3.01616   3.09192  -5.72015 
 C                    0     2.63996   4.20809  -3.88965 
 H                    0     2.55227   5.27016  -3.61694 
 C                    0     1.32927   3.51089  -3.51883 
 H                    0     0.46948   3.94759  -4.04185 
 H                    0     1.37369   2.45018  -3.78552 
 H                    0     1.13538   3.56861  -2.44104 
 C                    0     3.80466   3.62263  -3.08639 
 H                    0     3.60395   3.68419  -2.0088 
 H                    0     4.73962   4.15295  -3.29395 
 H                    0     3.95842   2.56495  -3.34088 
 H                    0     2.08249   4.57878  -5.97114 
 H                    0     8.5593    1.54354  -8.55005 
 C                    -1    8.84401   0.78619  -7.81085 
 H                    0     9.80323   1.09045  -7.37197 
 C                    0     7.77577   0.64455  -6.72116 
 H                    0     6.82925   0.36478  -7.20765 
 C                    0     8.14684  -0.47211  -5.73958 
 H                    0     9.0934   -0.23875  -5.23234 
 H                    0     8.27261  -1.43141  -6.25519 
 H                    0     7.37696  -0.61475  -4.97449 
 C                    0     7.5569    1.98661  -6.00732 
 H                    0     8.4541    2.22196  -5.41626 
 H                    0     7.47351   2.78098  -6.76125 
 C                    0     6.32817   2.04917  -5.1039 
 H                    0     6.25828   3.03563  -4.63708 
 H                    0     5.40994   1.8783   -5.6802 
 H                    0     6.36443   1.30198  -4.30401 
 H                    0     9.00515  -0.1608   -8.33904 
 H                    0     13.72189  -1.25345  -5.1931 
 C                    -1    14.29766  -2.15585  -4.96104 
 H                    0     14.81564  -1.98189  -4.01165 
 C                    0     13.37291  -3.37269  -4.85729 
 H                    0     12.88274  -3.54095  -5.82389 
 H                    0     13.97263  -4.26814  -4.65168 
 C                    0     12.33027  -3.19631  -3.78026 
 C                    0     11.07177  -2.671    -4.06964 
 H                    0     10.81659  -2.41923  -5.09732 
 C                    0     10.12507  -2.45838  -3.07316 
 H                    0     9.15128  -2.05024  -3.32563 
 C                    0     10.42637  -2.78112  -1.74645 
 O                    0     9.54271  -2.61657  -0.73481 
 H                    0     8.66121  -2.42395  -1.10882 
 C                    0     11.68744  -3.29572  -1.43723 
 H                    0     11.91183  -3.54441  -0.40479 
 C                    0     12.61899  -3.49626  -2.44591 
 H                    0     13.5952  -3.90496  -2.19173 
 H                    0     15.05288  -2.29224  -5.74348 
 H                    0     5.11795  -6.91644   4.81438 
 C                    -1    4.36732  -6.13334   4.64953 
 H                    0     4.48404  -5.40202   5.45408 
 C                    0     4.61584  -5.46867   3.29884 
 H                    0     4.5984   -6.22675   2.50813 
 H                    0     5.61081  -5.01009   3.27341 
 C                    0     3.57812  -4.41331   2.90661 
 O                    0     2.57623  -4.25709   3.68094 
 O                    0     3.75571  -3.80342   1.8297 
 C                    0     3.00256  -6.81086   4.69697 
 O                    0     2.60372  -7.48179   3.74998 
 N                    0     2.28204  -6.717     5.84724 
 C                    0     1.05461  -7.49303   5.9993 
 H                    0     0.2327   -7.03796   5.43387 
 H                    0     1.20223  -8.50112   5.60478 
 C                    0     0.79234  -7.44766   7.50512 
 H                    0    -0.2678   -7.56384   7.74549 
 H                    0     1.34581  -8.25187   8.00481 
 C                    0     1.3466   -6.07976   7.92195 
 H                    0     1.60938  -6.02715   8.98225 
 H                    0     0.60815  -5.29982   7.71969 
 C                    -1    2.5729   -5.88715   7.01961 
 H                    0     2.71027  -4.83973   6.74049 
 H                    0     3.48833  -6.23345   7.51945 
 H                    0     3.59288  -8.79519  -5.58939 
 C                    -1    3.11763  -8.34482  -4.70902 
 H                    0     2.28247  -8.99239  -4.43188 
 C                    0     4.13388  -8.23896  -3.56619 
 H                    0     5.01303  -7.66512  -3.88968 
 H                    0     4.50952  -9.24992  -3.36522 
 C                    0     3.58796  -7.65084  -2.28034 
 C                    0     2.45982  -8.20337  -1.66233 
 H                    0     1.9122   -9.01611  -2.13388 
 C                    0     2.02325  -7.72851  -0.42885 
 H                    0     1.15054  -8.16489   0.04617 
 C                    0     2.69981  -6.68759   0.20143 
 H                    0     2.37244  -6.34839   1.17867 
 C                    0     3.8      -6.10189  -0.41966 
 H                    0     4.30478  -5.2712    0.06585 
 C                    0     4.23723  -6.58166  -1.65381 
 H                    0     5.10516  -6.12537  -2.12799 
 C                    0     2.48357  -7.02314  -5.17311 
 O                    0     1.32053  -6.98954  -5.57503 
 N                    0     3.2696   -5.91769  -5.21488 
 H                    0     4.12972  -5.90796  -4.68538 
 C                    -1    2.79867  -4.63717  -5.74523 
 H                    0     2.22144  -4.10772  -4.97496 
 C                    0     3.97345  -3.77775  -6.22093 
 H                    0     4.56636  -4.3545   -6.94072 
 H                    0     3.55956  -2.91911  -6.76222 
 C                    0     4.84057  -3.28641  -5.08607 
 C                    0     5.93953  -4.01548  -4.62333 
 H                    0     6.23417  -4.92925  -5.13713 
 C                    0     6.69062  -3.58571  -3.53362 
 H                    0     7.55016  -4.14984  -3.18552 
 C                    0     6.35543  -2.39271  -2.8961 
 O                    0     7.10972  -1.98529  -1.84193 
 H                    0     6.942    -1.03481  -1.64274 
 C                    0     5.27253  -1.63876  -3.35331 
 H                    0     5.03485  -0.69286  -2.87652 
 C                    0     4.5269   -2.09394  -4.43154 
 H                    0     3.68278  -1.50196  -4.77568 
 H                    0     2.12426  -4.86615  -6.57416 
 H                    0    -0.69772  -7.33964  -6.66664 
 C                    -1   -1.76798  -7.35249  -6.44127 
 H                    0    -2.33827  -7.44313  -7.36873 
 C                    0    -2.07305  -8.5312   -5.49409 
 H                    0    -1.72948  -9.4563   -5.96649 
 H                    0    -3.15579  -8.62969  -5.361 
 C                    0    -1.39943  -8.37023  -4.13667 
 H                    0    -0.36188  -8.0386   -4.26796 
 H                    0    -1.90459  -7.601    -3.545 
 C                    0    -1.36581  -9.63719  -3.29771 
 O                    0    -1.71622  -10.73368  -3.71044 
 N                    0    -0.8509   -9.42778  -2.05303 
 H                    0    -0.78508  -8.46901  -1.70306 
 H                    0    -0.96184  -10.17512  -1.38405 
 C                    0    -2.17855  -6.0074   -5.80316 
 O                    0    -3.28808  -5.51095  -6.01242 
 N                    0    -1.29026  -5.37402  -4.96789 
 H                    0    -0.39251  -5.82793  -4.8242 
 C                    -1   -1.72432  -4.41348  -3.93833 
 H                    0    -0.88935  -4.28832  -3.24282 
 H                    0    -2.58261  -4.80204  -3.38778 
 C                    0    -2.1334   -3.03765  -4.46236 
 O                    0    -2.87979  -2.31071  -3.79212 
 N                    0    -1.61141  -2.65936  -5.64022 
 H                    0    -1.02026  -3.34361  -6.09709 
 C                    -1   -1.83179  -1.37989  -6.31317 
 H                    0    -2.5266   -0.80616  -5.69838 
 C                    0    -0.51122  -0.62295  -6.49246 
 H                    0     0.09869  -1.15409  -7.23708 
 H                    0    -0.75109   0.34965  -6.93485 
 C                    0     0.31119  -0.44097  -5.2108 
 H                    0     0.5824   -1.43674  -4.83212 
 C                    0     1.60719   0.30266  -5.54394 
 H                    0     2.2402    0.4173   -4.65571 
 H                    0     2.18882  -0.2274   -6.30817 
 H                    0     1.39233   1.30672  -5.92906 
 C                    0    -0.47286   0.27709  -4.10978 
 H                    0    -0.8451    1.2483   -4.46012 
 H                    0    -1.32572  -0.31536  -3.76521 
 H                    0     0.16566   0.46194  -3.23961 
 C                    0    -2.50382  -1.5864   -7.70023 
 O                    0    -2.52325  -0.66597  -8.50373 
 N                    0    -2.97607  -2.83079  -7.98509 
 H                    0    -3.1137   -3.48782  -7.22557 
 C                    -1   -3.64186  -3.11776  -9.25363 
 H                    0    -3.07551  -2.65603  -10.06461 
 H                    0    -3.6709   -4.20054  -9.39027 
 H                    0    -4.66236  -2.71871  -9.27092 
 H                    0    -5.245     2.9872   -5.47775 
 C                    -1   -4.85402   3.33659  -4.519 
 H                    0    -5.66881   3.38467  -3.78904 
 C                    0    -3.76523   2.3612   -4.01546 
 H                    0    -2.93142   2.4027   -4.73054 
 C                    0    -3.24134   2.71932  -2.62161 
 H                    0    -2.72546   3.68396  -2.59697 
 H                    0    -4.06364   2.77062  -1.89694 
 H                    0    -2.53651   1.95291  -2.27702 
 C                    0    -4.32827   0.94108  -4.0317 
 H                    0    -5.17595   0.83755  -3.34362 
 H                    0    -4.67208   0.65197  -5.02955 
 H                    0    -3.56107   0.22471  -3.71782 
 C                    0    -4.3138    4.74755  -4.75951 
 O                    0    -3.89788   5.07413  -5.89095 
 N                    0    -4.29608   5.60068  -3.71818 
 H                    0    -4.70558   5.28145  -2.83707 
 C                    -1   -3.59221   6.88848  -3.68691 
 H                    0    -3.02737   6.96538  -4.61922 
 C                    0    -4.53455   8.09217  -3.47063 
 H                    0    -4.05314   8.98648  -3.88894 
 H                    0    -4.69321   8.31018  -2.40494 
 C                    0    -5.94685   7.92919  -4.02093 
 H                    0    -6.50534   8.81506  -3.69986 
 H                    0    -6.43375   7.08372  -3.52392 
 C                    0    -6.05693   7.69353  -5.52386 
 H                    0    -5.65118   6.72521  -5.81667 
 H                    0    -7.10386   7.71322  -5.84282 
 N                    0    -5.35018   8.73097  -6.28865 
 H                    0    -5.61063   9.68102  -6.06018 
 C                    0    -4.28821   8.57067  -7.06805 
 N                    0    -3.65302   7.41429  -7.20227 
 H                    0    -3.8096    6.5609   -6.61217 
 H                    0    -3.02332   7.29973  -7.98193 
 N                    0    -3.8515    9.6335   -7.79307 
 H                    0    -4.33967   10.51347  -7.74023 
 H                    0    -2.88232   9.67695  -8.06531 
 C                    0    -2.62885   6.80712  -2.48779 
 O                    0    -2.87965   6.07404  -1.53701 
 N                    0    -1.53892   7.60428  -2.50723 
 H                    0    -1.33167   8.13066  -3.34172 
 C                    -1   -0.54639   7.56071  -1.43502 
 H                    0    -1.08196   7.29976  -0.52111 
 C                    0     0.55456   6.54618  -1.7238 
 H                    0     1.19499   6.40618  -0.84689 
 H                    0     1.18305   6.86523  -2.56223 
 H                    0     0.11464   5.57896  -1.97783 
 H                    0    -0.1374    8.56736  -1.30654 
 H                    0     9.39856   7.18445   6.89264 
 C                    -1    8.48537   7.6994    6.57385 
 H                    0     8.56835   8.74908   6.87317 
 C                    0     8.28438   7.57527   5.06211 
 H                    0     9.13045   8.03814   4.53991 
 H                    0     7.38697   8.12905   4.75937 
 C                    0     8.15236   6.12172   4.60879 
 H                    0     7.26334   5.66392   5.06102 
 H                    0     9.02737   5.54254   4.92835 
 S                    0     8.01724   6.02691   2.79553 
 C                    0     7.92309   4.22998   2.59228 
 H                    0     8.79238   3.74287   3.04321 
 H                    0     6.99519   3.83569   3.01297 
 H                    0     7.93681   4.01259   1.52238 
 H                    0     7.64464   7.25887   7.12192 
 H                    0     3.07358   7.9098    5.88308 
 C                    -1    2.30695   8.15207   5.13931 
 H                    0     2.09023   9.22307   5.20818 
 C                    0     2.77677   7.7793    3.724 
 H                    0     2.00357   8.0653    3.001 
 H                    0     3.6675    8.37175   3.47608 
 C                    0     3.10001   6.3091    3.55472 
 C                    0     2.28686   5.46644   2.7926 
 H                    0     1.39869   5.87324   2.31224 
 C                    0     2.60206   4.118     2.62868 
 H                    0     1.96125   3.47834   2.02741 
 C                    0     3.72914   3.58459   3.24351 
 H                    0     3.98161   2.53497   3.14074 
 C                    0     4.53222   4.40823   4.02965 
 H                    0     5.3857    3.97866   4.54641 
 C                    0     4.22861   5.7577    4.17076 
 H                    0     4.87464   6.39679   4.76999 
 H                    0     1.4002    7.59874   5.40395 
 H                    0    -2.39025   5.35491   2.52545 
 C                    -1   -2.79136   5.15089   1.52744 
 H                    0    -2.47724   5.94367   0.84308 
 C                    0    -2.27383   3.7935    1.01303 
 H                    0    -2.83402   3.54686   0.10189 
 C                    0    -0.7948    3.89173   0.64521 
 H                    0    -0.19447   4.14796   1.5278 
 H                    0    -0.63554   4.65937  -0.11766 
 H                    0    -0.4258    2.93685   0.25072 
 C                    0    -2.50325   2.68882   2.04165 
 H                    0    -1.94004   2.89666   2.96121 
 H                    0    -2.17216   1.72126   1.65774 
 H                    0    -3.55856   2.59953   2.30882 
 C                    0    -4.32476   5.14627   1.64607 
 O                    0    -4.89301   4.8254    2.68904 
 N                    0    -4.9898    5.47548   0.50774 
 H                    0    -4.43903   5.70619  -0.31303 
 C                    -1   -6.43762   5.56224   0.3744 
 H                    0    -6.86454   5.30618   1.34739 
 C                    0    -6.87082   6.96213  -0.11658 
 H                    0    -7.96802   6.97891  -0.17503 
 H                    0    -6.50557   7.08241  -1.14241 
 C                    0    -6.36434   8.16914   0.66007 
 H                    0    -5.30707   8.01365   0.9158 
 H                    0    -6.90895   8.31617   1.59748 
 C                    0    -6.44576   9.47773  -0.20116 
 O                    0    -6.121     9.33888  -1.4196 
 O                    0    -6.7893    10.5113   0.38712 
 C                    0    -6.88636   4.59303  -0.72901 
 O                    0    -6.25312   4.51406  -1.78662 
 N                    0    -8.03055   3.90242  -0.52686 
 H                    0    -8.62177   4.11722   0.26476 
 C                    -1   -8.56301   2.9502   -1.48814 
 H                    0    -8.75255   3.46877  -2.43938 
 C                    0    -7.577     1.79995  -1.77749 
 H                    0    -6.69207   2.24568  -2.23464 
 H                    0    -7.9977    1.14581  -2.55278 
 C                    0    -7.13132   0.94092  -0.58424 
 H                    0    -7.95943   0.71902   0.09794 
 H                    0    -6.76527  -0.01782  -0.96098 
 S                    0    -5.75341   1.65805   0.39217 
 C                    0    -6.56864   2.08563   1.95276 
 H                    0    -7.53589   2.5503    1.74832 
 H                    0    -6.71451   1.20271   2.58296 
 H                    0    -5.93754   2.81604   2.46784 
 C                    0    -9.96499   2.50168  -0.97561 
 O                    0    -10.64995   3.28327  -0.32639 
 N                    0    -10.39752   1.26415  -1.34415 
 H                    0    -9.75283   0.61018  -1.76578 
 C                    -1   -11.73912   0.73838  -1.08317 
 H                    0    -12.26548   1.51776  -0.52233 
 C                    0    -12.48691   0.45082  -2.4023 
 H                    0    -11.90097  -0.30543  -2.94148 
 C                    0    -13.88146  -0.12112  -2.13343 
 H                    0    -14.48101   0.57823  -1.53652 
 H                    0    -14.40854  -0.28896  -3.07805 
 H                    0    -13.84038  -1.0741   -1.59831 
 C                    0    -12.57282   1.71593  -3.25735 
 H                    0    -13.12671   2.50406  -2.73291 
 H                    0    -11.58005   2.10544  -3.4987 
 H                    0    -13.09117   1.50492  -4.19856 
 C                    0    -11.61168  -0.55746  -0.24783 
 O                    0    -10.82636  -1.42963  -0.59907 
 N                    0    -12.45691  -0.69441   0.81193 
 H                    0    -12.89266   0.14546   1.16275 
 C                    -1   -12.4342  -1.86781   1.69413 
 H                    0    -12.37111  -2.751     1.05308 
 C                    0    -11.24348  -1.84613   2.66942 
 H                    0    -10.37672  -1.4789    2.10741 
 H                    0    -11.43633  -1.12476   3.46946 
 C                    0    -10.9037  -3.18776   3.23328 
 C                    0    -11.04045  -3.63178   4.51688 
 H                    0    -11.43633  -3.1185    5.38293 
 N                    0    -10.56155  -4.92217   4.62409 
 H                    0    -10.51808  -5.4575    5.47412 
 C                    0    -10.09065  -5.33162   3.39744 
 C                    0    -9.48959  -6.53119   3.00502 
 H                    0    -9.32455  -7.3408    3.71014 
 C                    0    -9.10561  -6.64654   1.6788 
 H                    0    -8.63228  -7.56292   1.3393 
 C                    0    -9.31188  -5.59721   0.75933 
 H                    0    -8.99696  -5.71927  -0.2725 
 C                    0    -9.8964   -4.40465   1.15616 
 H                    0    -10.04941  -3.59234   0.44858 
 C                    0    -10.29645  -4.26549   2.49418 
 H                    0    -13.38661  -1.90733   2.22886 
 H                    0    -12.13531   3.38038   3.5422 
 C                    -1   -11.20073   3.8567    3.22973 
 H                    0    -11.08898   4.7945    3.78316 
 C                    0    -10.00961   2.94649   3.5027 
 H                    0    -9.06848   3.45014   3.2626 
 H                    0    -9.9783    2.65384   4.556 
 S                    0    -10.18429   1.44212   2.47817 
 H                    0    -9.30537   0.66772   3.13581 
 H                    0    -11.27343   4.0942    2.16346 
 H                    0    -5.45336   3.99473   5.41222 
 C                    -1   -4.83438   3.41375   6.10235 
 H                    0    -5.45687   3.10855   6.95229 
 C                    0    -4.20708   2.22749   5.38096 
 H                    0    -3.70882   2.60923   4.48499 
 H                    0    -4.99472   1.54678   5.02366 
 C                    0    -3.19583   1.42018   6.20556 
 H                    0    -2.40841   2.11077   6.54488 
 C                    0    -3.83115   0.78174   7.44342 
 H                    0    -4.22943   1.53311   8.13414 
 H                    0    -4.65634   0.11754   7.15278 
 H                    0    -3.09781   0.17916   7.9918 
 C                    0    -2.54328   0.35486   5.32627 
 H                    0    -2.07722   0.8123    4.4469 
 H                    0    -3.29745  -0.35804   4.96859 
 H                    0    -1.77442  -0.21417   5.8615 
 H                    0    -4.0579    4.08441   6.48997 
 H                    0     0.49609   3.90684   7.22258 
 C                    -1    1.3777    3.29337   7.44314 
 H                    0     1.05625   2.47559   8.1014 
 C                    0     2.00759   2.74737   6.16054 
 H                    0     2.29635   3.60578   5.54187 
 C                    0     3.27206   1.94475   6.472 
 H                    0     3.76269   1.58304   5.56347 
 H                    0     4.00246   2.55435   7.01837 
 H                    0     3.03112   1.07451   7.0981 
 C                    0     1.01593   1.90442   5.35387 
 H                    0     1.4575    1.60234   4.39591 
 H                    0     0.09638   2.46211   5.1372 
 H                    0     0.73659   0.99008   5.89534 
 H                    0     2.09046   3.91276   8.00006 
 H                    0     7.53532   3.24703   5.61028 
 C                    -1    7.6757    2.22161   5.96968 
 H                    0     6.75129   1.90684   6.46089 
 C                    0     8.01133   1.28423   4.81225 
 H                    0     8.8927    1.62162   4.25765 
 H                    0     8.23009   0.27285   5.17943 
 C                    0     6.85246   1.1387    3.85645 
 O                    0     5.68674   1.16478   4.20398 
 O                    0     7.22655   0.98278   2.59314 
 H                    0     6.41027   0.8865    2.03737 
 H                    0     8.48314   2.23039   6.70771 
 H                    0     13.1893   0.74198   5.29298 
 C                    -1    13.90664   1.05404   4.52501 
 H                    0     14.22432   0.15564   3.98346 
 C                    0     13.28648   2.07715   3.5752 
 H                    0     14.03062   2.39549   2.83547 
 H                    0     12.99721   2.97481   4.13553 
 C                    0     12.06383   1.52377   2.84539 
 H                    0     11.29832   1.21574   3.56822 
 H                    0     12.3389   0.6392    2.25787 
 S                    0     11.38041   2.79031   1.73008 
 C                    0     10.10439   1.82512   0.87707 
 H                    0     9.30931   1.50995   1.55738 
 H                    0     9.67394   2.4783    0.11482 
 H                    0     10.53946   0.95227   0.38048 
 H                    0     14.78324   1.46861   5.03334 
 H                    0     12.48523  -3.29344   3.39327 
 C                    -1    11.59968  -2.68467   3.6042 
 H                    0     11.92667  -1.79202   4.15303 
 C                    0     10.87587  -2.29573   2.31442 
 H                    0     11.558   -1.72235   1.67052 
 H                    0     10.59468  -3.18836   1.74599 
 C                    0     9.62565  -1.44437   2.539 
 H                    0     9.85151  -0.60398   3.20531 
 H                    0     9.28651  -1.01927   1.5912 
 S                    0     8.19709  -2.33682   3.25972 
 C                    0     7.16554  -2.51437   1.77259 
 H                    0     7.67379  -3.12152   1.02057 
 H                    0     6.9356   -1.52844   1.35776 
 H                    0     6.22282  -2.99776   2.04592 
 H                    0     10.94087  -3.2633    4.26137 
 H                    0     6.43518  -2.47916   6.56639 
 C                    -1    5.65971  -1.71247   6.46689 
 H                    0     6.14955  -0.73268   6.46618 
 C                    0     4.8578   -1.90374   5.1824 
 H                    0     4.12707  -1.0984    5.05353 
 H                    0     4.31982  -2.85786   5.17591 
 H                    0     5.51188  -1.88195   4.30601 
 H                    0     5.01797  -1.76472   7.35459 
 H                    0     1.4631   -1.74177   10.20727 
 C                    -1    0.52528  -1.19873   10.0507 
 H                    0     0.43892  -0.42466   10.82103 
 C                    0     0.49138  -0.58086   8.64178 
 H                    0    -0.42967   0.00792   8.5275 
 H                    0     1.31917   0.13169   8.542 
 C                    0     0.58102  -1.59352   7.53699 
 C                    0     1.66597  -1.85859   6.74237 
 H                    0     2.63309  -1.37525   6.73007 
 N                    0     1.39791  -2.89455   5.87972 
 H                    0     2.00312  -3.26463   5.14338 
 C                    0     0.11187  -3.31667   6.09342 
 C                    0    -0.61109  -4.33833   5.46878 
 H                    0    -0.1569   -4.95306   4.69903 
 C                    0    -1.9143   -4.54755   5.88611 
 H                    0    -2.50287  -5.33015   5.41605 
 C                    0    -2.48987  -3.75982   6.9028 
 H                    0    -3.51766  -3.9457    7.20084 
 C                    0    -1.76506  -2.75888   7.52741 
 H                    0    -2.21696  -2.16066   8.31473 
 C                    0    -0.43986  -2.52282   7.12821 
 H                    0    -0.29647  -1.91042   10.18486 
 H                    0    -7.70464   1.20305   10.05296 
 C                    -1   -7.8193    1.4722    8.99787 
 H                    0    -6.81457   1.56782   8.5727 
 C                    0    -8.65063   0.42499   8.25462 
 H                    0    -9.59231   0.26676   8.79767 
 H                    0    -8.12292  -0.53962   8.26663 
 C                    0    -8.98563   0.78683   6.79921 
 H                    0    -9.49533   1.7628    6.81302 
 C                    0    -7.72881   0.92071   5.93596 
 H                    0    -7.16231  -0.0194    5.92566 
 H                    0    -7.98042   1.16669   4.89751 
 H                    0    -7.0645    1.70911   6.29817 
 C                    0    -9.94889  -0.23896   6.194 
 H                    0    -9.46683  -1.22039   6.09886 
 H                    0    -10.84467  -0.35976   6.8151 
 H                    0    -10.27582   0.06691   5.19374 
 H                    0    -8.29741   2.45786   8.95191 
 O                    0     0.31939  -4.64135   2.3067 
 H                    0    -0.30023  -4.01886   2.70736 
 H                    0     1.15493  -4.5452    2.84131 
 O                    0    -5.15209  -1.97228  -2.20076 
 H                    0    -4.26982  -1.74611  -2.53615 
 H                    0    -5.12766  -1.93101  -1.20795 
 O                    0     1.6068   -3.60348   0.05466 
 H                    0     0.98683  -4.02342   0.68359 
 H                    0     2.44367  -3.6101    0.57298 
 O                    0    -7.38112  -4.45951  -1.78355 
 H                    0    -7.42978  -3.49942  -1.6758 
 H                    0    -6.51108  -4.60806  -2.24392 
 O                    0    -4.95402  -4.60991  -2.86477 
 H                    0    -4.82125  -3.67224  -2.60656 
 H                    0    -5.066    -4.56373  -3.84651 
 O                    0    -3.78207  -6.30123   0.96391 
 H                    0    -3.74749  -6.54086   0.00908 
 H                    0    -4.606    -5.79501   1.04676 
 O                    0    -6.23154  -4.75228   0.72068 
 H                    0    -6.65847  -4.84452  -0.16089 
 H                    0    -6.96781  -4.8474    1.34124 
 O                    0    -5.03634  -1.65764  -5.67172 
 H                    0    -4.38193  -1.70267  -4.95518 
 H                    0    -5.24294  -2.60458  -5.81919 
 O                    0    -7.2111   -1.30132  -3.95347 
 H                    0    -6.58456  -1.22993  -4.70596 
 H                    0    -6.58639  -1.45582  -3.2187 
 O                    0    -1.0631   -6.82076   1.22513 
 H                    0    -0.55878  -6.16495   1.7392 
 H                    0    -2.00838  -6.59581   1.34493 
 O                    0     1.24296  -4.88151  -2.35019 
 H                    0     1.45465  -4.38527  -1.52148 
 H                    0     1.96921  -5.51619  -2.43066 
 O                    0    -3.49512  -6.72908  -1.74229 
 H                    0    -3.95623  -5.9689   -2.14117 
 H                    0    -2.53997  -6.50503  -1.72671 
 O                    0    -5.62575  -4.28562  -5.44341 
 H                    0    -6.60416  -4.35721  -5.28847 
 H                    0    -5.25647  -5.0469   -5.91246 
 O                    0    -8.08452  -3.89122  -4.56062 
 H                    0    -7.90141  -2.94039  -4.37168 
 H                    0    -8.13785  -4.29241  -3.67701 
 O                    0    -0.80709  -6.55624  -1.41828 
 H                    0    -0.06157  -5.99298  -1.71283 
 H                    0    -0.80549  -6.56815  -0.42513 
 C                    0     4.01964   0.52727   0.79476 
 O                    0     5.23255   0.83408   0.82469 
 C                    0     3.32387   0.13055   1.97605 
 C                    0     2.084    -0.42058   1.90581 
 C                    0     1.28093  -0.43855   0.62633 
 C                    0     1.80003   0.60864  -0.36003 
 C                    0     3.30761   0.48317  -0.52964 
 C                    0     1.55862  -1.15585   3.094 
 C                    0     0.04403  -1.11508   3.2445 
 C                    0    -0.64639  -1.41112   1.91612 
 C                    0    -0.23864  -0.33839   0.88794 
 C                    0    -2.15545  -1.47975   2.0601 
 C                    0    -2.90514  -1.71716   0.73416 
 C                    0    -2.56139  -0.55901  -0.20945 
 C                    0    -1.04432  -0.42857  -0.42098 
 C                    0    -2.76153  -2.51436   3.01497 
 C                    0    -4.25231  -2.54779   2.60192 
 C                    0    -4.3439   -1.7145    1.29848 
 C                    0    -2.58311  -3.06974   0.07133 
 O                    0    -5.36511  -2.15693   0.41471 
 H                    0     3.89508   0.1237    2.90092 
 H                    0     1.45021  -1.44385   0.19939 
 H                    0     1.55054   1.61583   0.0024 
 H                    0     1.31797   0.48889  -1.33347 
 H                    0     3.54726  -0.49141  -0.98251 
 H                    0     3.72171   1.25612  -1.18572 
 H                    0     2.05714  -0.80349   4.0025 
 H                    0     1.88789  -2.19902   2.95614 
 H                    0    -0.27072  -0.12626   3.60069 
 H                    0    -0.25784  -1.82838   4.01744 
 H                    0    -0.27653  -2.37232   1.53941 
 H                    0    -0.441     0.64344   1.34411 
 H                    0    -2.48235  -0.49033   2.42174 
 H                    0    -2.96134   0.37417   0.20512 
 H                    0    -3.04128  -0.68173  -1.18775 
 H                    0    -0.677    -1.27999  -1.01042 
 H                    0    -0.86045   0.46652  -1.02747 
 H                    0    -2.61454  -2.26798   4.06882 
 H                    0    -2.31003  -3.50191   2.85738 
 H                    0    -4.9058   -2.13265   3.37546 
 H                    0    -4.58036  -3.57643   2.41952 
 H                    0    -4.60129  -0.67699   1.53653 
 H                    0    -2.94183  -3.93754   0.63483 
 H                    0    -3.05124  -3.12003  -0.91793 
 H                    0    -1.50868  -3.20876  -0.08436 
 H                    0    -5.57751  -3.09957   0.58869 
 
 Stoichiometry    C182H341N18O39S5(1-)
 Framework group  C1[X(C182H341N18O39S5)]
 Deg. of freedom  1749
 Full point group                 C1      NOp   1
 Largest Abelian subgroup         C1      NOp   1
 Largest concise Abelian subgroup C1      NOp   1
                         Standard orientation:                         
 ---------------------------------------------------------------------
 Center     Atomic      Atomic             Coordinates (Angstroms)
 Number     Number       Type             X           Y           Z
 ---------------------------------------------------------------------
      1          1           0        9.221024    6.941204   -3.895389
      2          6           0        8.743237    5.981385   -3.657119
      3          1           0        8.880359    5.314901   -4.511972
      4          6           0        9.395416    5.368811   -2.404837
      5          1           0       10.462077    5.221034   -2.607268
      6          1           0        9.334368    6.066724   -1.560673
      7          6           0        8.736488    4.065075   -2.040394
      8          6           0        9.111057    2.863363   -2.644256
      9          1           0        9.960680    2.844143   -3.322831
     10          6           0        8.415828    1.686247   -2.396434
     11          1           0        8.708615    0.751030   -2.864079
     12          6           0        7.316485    1.711476   -1.543335
     13          8           0        6.608037    0.566223   -1.345109
     14          1           0        6.027206    0.678766   -0.543529
     15          6           0        6.935626    2.894920   -0.914236
     16          1           0        6.089977    2.905563   -0.234197
     17          6           0        7.651381    4.055374   -1.165521
     18          1           0        7.346295    4.978443   -0.682338
     19          6           0        7.223900    6.192653   -3.543150
     20          8           0        6.438557    5.638085   -4.301151
     21          7           0        6.796684    7.034348   -2.559882
     22          1           0        7.484488    7.518734   -2.002374
     23          6           0        5.388456    7.366161   -2.343608
     24          1           0        4.804716    6.446252   -2.447907
     25          6           0        5.164717    8.004219   -0.969764
     26          1           0        5.812082    8.893406   -0.908623
     27          6           0        3.716887    8.489403   -0.864214
     28          1           0        3.523593    8.923813    0.122339
     29          1           0        3.015087    7.662998   -1.008839
     30          1           0        3.496209    9.250633   -1.621289
     31          6           0        5.550559    7.080649    0.199084
     32          1           0        6.630645    6.889358    0.169419
     33          1           0        5.383840    7.620548    1.139198
     34          6           0        4.807094    5.748232    0.257204
     35          1           0        5.118992    5.183662    1.142152
     36          1           0        5.002114    5.133238   -0.628227
     37          1           0        3.724808    5.888500    0.339530
     38          1           0        5.045378    8.049273   -3.132907
     39          1           0        3.833897    4.661631   -5.652747
     40          6           0        2.907170    4.135617   -5.400123
     41          1           0        3.016160    3.091917   -5.720154
     42          6           0        2.639963    4.208085   -3.889649
     43          1           0        2.552269    5.270161   -3.616937
     44          6           0        1.329271    3.510892   -3.518831
     45          1           0        0.469480    3.947592   -4.041847
     46          1           0        1.373692    2.450183   -3.785522
     47          1           0        1.135375    3.568608   -2.441038
     48          6           0        3.804659    3.622627   -3.086387
     49          1           0        3.603954    3.684192   -2.008799
     50          1           0        4.739622    4.152950   -3.293954
     51          1           0        3.958423    2.564947   -3.340879
     52          1           0        2.082490    4.578781   -5.971144
     53          1           0        8.559299    1.543537   -8.550052
     54          6           0        8.844005    0.786191   -7.810849
     55          1           0        9.803231    1.090446   -7.371967
     56          6           0        7.775770    0.644552   -6.721162
     57          1           0        6.829253    0.364779   -7.207653
     58          6           0        8.146837   -0.472111   -5.739577
     59          1           0        9.093398   -0.238752   -5.232337
     60          1           0        8.272608   -1.431407   -6.255191
     61          1           0        7.376956   -0.614753   -4.974488
     62          6           0        7.556903    1.986608   -6.007320
     63          1           0        8.454100    2.221959   -5.416261
     64          1           0        7.473510    2.780982   -6.761247
     65          6           0        6.328171    2.049173   -5.103896
     66          1           0        6.258280    3.035628   -4.637081
     67          1           0        5.409942    1.878304   -5.680197
     68          1           0        6.364432    1.301977   -4.304013
     69          1           0        9.005151   -0.160800   -8.339041
     70          1           0       13.721891   -1.253445   -5.193098
     71          6           0       14.297661   -2.155851   -4.961036
     72          1           0       14.815635   -1.981891   -4.011649
     73          6           0       13.372908   -3.372693   -4.857292
     74          1           0       12.882738   -3.540947   -5.823887
     75          1           0       13.972627   -4.268142   -4.651676
     76          6           0       12.330273   -3.196311   -3.780258
     77          6           0       11.071770   -2.670996   -4.069639
     78          1           0       10.816589   -2.419225   -5.097315
     79          6           0       10.125068   -2.458380   -3.073161
     80          1           0        9.151281   -2.050236   -3.325627
     81          6           0       10.426368   -2.781116   -1.746454
     82          8           0        9.542708   -2.616571   -0.734813
     83          1           0        8.661205   -2.423953   -1.108824
     84          6           0       11.687442   -3.295721   -1.437229
     85          1           0       11.911826   -3.544413   -0.404791
     86          6           0       12.618987   -3.496258   -2.445914
     87          1           0       13.595198   -3.904958   -2.191735
     88          1           0       15.052883   -2.292237   -5.743478
     89          1           0        5.117949   -6.916437    4.814384
     90          6           0        4.367316   -6.133339    4.649529
     91          1           0        4.484038   -5.402015    5.454076
     92          6           0        4.615844   -5.468669    3.298842
     93          1           0        4.598395   -6.226745    2.508126
     94          1           0        5.610808   -5.010090    3.273407
     95          6           0        3.578123   -4.413306    2.906609
     96          8           0        2.576232   -4.257094    3.680936
     97          8           0        3.755707   -3.803422    1.829700
     98          6           0        3.002560   -6.810855    4.696970
     99          8           0        2.603717   -7.481785    3.749978
    100          7           0        2.282038   -6.716998    5.847235
    101          6           0        1.054607   -7.493034    5.999297
    102          1           0        0.232700   -7.037964    5.433871
    103          1           0        1.202230   -8.501115    5.604779
    104          6           0        0.792340   -7.447659    7.505120
    105          1           0       -0.267803   -7.563842    7.745494
    106          1           0        1.345814   -8.251868    8.004809
    107          6           0        1.346604   -6.079758    7.921950
    108          1           0        1.609381   -6.027148    8.982245
    109          1           0        0.608153   -5.299822    7.719686
    110          6           0        2.572904   -5.887147    7.019610
    111          1           0        2.710265   -4.839729    6.740491
    112          1           0        3.488332   -6.233449    7.519445
    113          1           0        3.592883   -8.795186   -5.589390
    114          6           0        3.117629   -8.344818   -4.709020
    115          1           0        2.282465   -8.992386   -4.431880
    116          6           0        4.133877   -8.238964   -3.566188
    117          1           0        5.013030   -7.665119   -3.889676
    118          1           0        4.509516   -9.249925   -3.365220
    119          6           0        3.587958   -7.650837   -2.280340
    120          6           0        2.459822   -8.203367   -1.662334
    121          1           0        1.912203   -9.016114   -2.133877
    122          6           0        2.023252   -7.728507   -0.428845
    123          1           0        1.150543   -8.164887    0.046168
    124          6           0        2.699809   -6.687586    0.201425
    125          1           0        2.372438   -6.348391    1.178669
    126          6           0        3.800002   -6.101889   -0.419663
    127          1           0        4.304780   -5.271195    0.065847
    128          6           0        4.237227   -6.581657   -1.653805
    129          1           0        5.105158   -6.125368   -2.127986
    130          6           0        2.483568   -7.023142   -5.173107
    131          8           0        1.320526   -6.989541   -5.575030
    132          7           0        3.269602   -5.917686   -5.214877
    133          1           0        4.129718   -5.907959   -4.685380
    134          6           0        2.798668   -4.637167   -5.745229
    135          1           0        2.221437   -4.107723   -4.974958
    136          6           0        3.973449   -3.777745   -6.220925
    137          1           0        4.566362   -4.354496   -6.940721
    138          1           0        3.559564   -2.919105   -6.762223
    139          6           0        4.840566   -3.286411   -5.086068
    140          6           0        5.939529   -4.015480   -4.623325
    141          1           0        6.234170   -4.929245   -5.137126
    142          6           0        6.690620   -3.585709   -3.533621
    143          1           0        7.550162   -4.149843   -3.185516
    144          6           0        6.355431   -2.392708   -2.896099
    145          8           0        7.109721   -1.985292   -1.841929
    146          1           0        6.942002   -1.034812   -1.642735
    147          6           0        5.272529   -1.638758   -3.353308
    148          1           0        5.034854   -0.692858   -2.876520
    149          6           0        4.526897   -2.093939   -4.431544
    150          1           0        3.682776   -1.501960   -4.775681
    151          1           0        2.124257   -4.866152   -6.574159
    152          1           0       -0.697718   -7.339635   -6.666643
    153          6           0       -1.767984   -7.352491   -6.441268
    154          1           0       -2.338273   -7.443135   -7.368732
    155          6           0       -2.073051   -8.531202   -5.494093
    156          1           0       -1.729484   -9.456303   -5.966485
    157          1           0       -3.155791   -8.629690   -5.361003
    158          6           0       -1.399429   -8.370234   -4.136672
    159          1           0       -0.361882   -8.038596   -4.267964
    160          1           0       -1.904589   -7.601001   -3.545003
    161          6           0       -1.365810   -9.637194   -3.297714
    162          8           0       -1.716222  -10.733681   -3.710439
    163          7           0       -0.850903   -9.427776   -2.053026
    164          1           0       -0.785082   -8.469013   -1.703062
    165          1           0       -0.961841  -10.175125   -1.384050
    166          6           0       -2.178546   -6.007402   -5.803160
    167          8           0       -3.288075   -5.510945   -6.012417
    168          7           0       -1.290257   -5.374017   -4.967894
    169          1           0       -0.392512   -5.827932   -4.824197
    170          6           0       -1.724320   -4.413480   -3.938334
    171          1           0       -0.889349   -4.288318   -3.242819
    172          1           0       -2.582612   -4.802039   -3.387779
    173          6           0       -2.133397   -3.037646   -4.462358
    174          8           0       -2.879792   -2.310707   -3.792122
    175          7           0       -1.611412   -2.659355   -5.640220
    176          1           0       -1.020257   -3.343613   -6.097093
    177          6           0       -1.831789   -1.379886   -6.313173
    178          1           0       -2.526603   -0.806158   -5.698375
    179          6           0       -0.511222   -0.622949   -6.492462
    180          1           0        0.098693   -1.154091   -7.237084
    181          1           0       -0.751094    0.349652   -6.934851
    182          6           0        0.311188   -0.440972   -5.210795
    183          1           0        0.582399   -1.436735   -4.832117
    184          6           0        1.607193    0.302660   -5.543942
    185          1           0        2.240204    0.417301   -4.655709
    186          1           0        2.188821   -0.227396   -6.308168
    187          1           0        1.392333    1.306721   -5.929064
    188          6           0       -0.472855    0.277091   -4.109784
    189          1           0       -0.845095    1.248302   -4.460121
    190          1           0       -1.325717   -0.315358   -3.765206
    191          1           0        0.165656    0.461935   -3.239614
    192          6           0       -2.503815   -1.586397   -7.700230
    193          8           0       -2.523246   -0.665965   -8.503728
    194          7           0       -2.976073   -2.830785   -7.985090
    195          1           0       -3.113696   -3.487821   -7.225571
    196          6           0       -3.641861   -3.117759   -9.253632
    197          1           0       -3.075513   -2.656029  -10.064605
    198          1           0       -3.670896   -4.200542   -9.390266
    199          1           0       -4.662360   -2.718713   -9.270922
    200          1           0       -5.244999    2.987201   -5.477746
    201          6           0       -4.854020    3.336589   -4.519001
    202          1           0       -5.668810    3.384665   -3.789041
    203          6           0       -3.765228    2.361195   -4.015458
    204          1           0       -2.931417    2.402695   -4.730536
    205          6           0       -3.241336    2.719320   -2.621611
    206          1           0       -2.725461    3.683957   -2.596966
    207          1           0       -4.063636    2.770616   -1.896938
    208          1           0       -2.536510    1.952905   -2.277019
    209          6           0       -4.328272    0.941084   -4.031703
    210          1           0       -5.175951    0.837547   -3.343621
    211          1           0       -4.672083    0.651965   -5.029552
    212          1           0       -3.561065    0.224705   -3.717822
    213          6           0       -4.313796    4.747549   -4.759505
    214          8           0       -3.897877    5.074134   -5.890953
    215          7           0       -4.296075    5.600683   -3.718175
    216          1           0       -4.705575    5.281452   -2.837072
    217          6           0       -3.592211    6.888477   -3.686905
    218          1           0       -3.027370    6.965382   -4.619220
    219          6           0       -4.534549    8.092171   -3.470631
    220          1           0       -4.053142    8.986480   -3.888944
    221          1           0       -4.693214    8.310177   -2.404939
    222          6           0       -5.946845    7.929188   -4.020932
    223          1           0       -6.505335    8.815056   -3.699857
    224          1           0       -6.433746    7.083723   -3.523924
    225          6           0       -6.056928    7.693526   -5.523863
    226          1           0       -5.651178    6.725206   -5.816670
    227          1           0       -7.103862    7.713219   -5.842818
    228          7           0       -5.350181    8.730971   -6.288646
    229          1           0       -5.610631    9.681015   -6.060183
    230          6           0       -4.288212    8.570670   -7.068046
    231          7           0       -3.653020    7.414292   -7.202269
    232          1           0       -3.809599    6.560903   -6.612173
    233          1           0       -3.023323    7.299728   -7.981929
    234          7           0       -3.851500    9.633504   -7.793067
    235          1           0       -4.339669   10.513466   -7.740233
    236          1           0       -2.882324    9.676947   -8.065312
    237          6           0       -2.628849    6.807116   -2.487791
    238          8           0       -2.879652    6.074040   -1.537008
    239          7           0       -1.538922    7.604280   -2.507233
    240          1           0       -1.331670    8.130659   -3.341722
    241          6           0       -0.546390    7.560707   -1.435019
    242          1           0       -1.081957    7.299755   -0.521113
    243          6           0        0.554560    6.546181   -1.723804
    244          1           0        1.194987    6.406175   -0.846890
    245          1           0        1.183054    6.865232   -2.562228
    246          1           0        0.114642    5.578959   -1.977832
    247          1           0       -0.137404    8.567356   -1.306541
    248          1           0        9.398564    7.184447    6.892639
    249          6           0        8.485374    7.699401    6.573848
    250          1           0        8.568347    8.749080    6.873166
    251          6           0        8.284376    7.575273    5.062108
    252          1           0        9.130450    8.038142    4.539911
    253          1           0        7.386967    8.129048    4.759367
    254          6           0        8.152362    6.121725    4.608794
    255          1           0        7.263339    5.663918    5.061018
    256          1           0        9.027368    5.542537    4.928345
    257         16           0        8.017241    6.026914    2.795531
    258          6           0        7.923088    4.229977    2.592275
    259          1           0        8.792379    3.742866    3.043208
    260          1           0        6.995190    3.835692    3.012972
    261          1           0        7.936808    4.012594    1.522379
    262          1           0        7.644644    7.258871    7.121916
    263          1           0        3.073578    7.909795    5.883078
    264          6           0        2.306954    8.152069    5.139310
    265          1           0        2.090230    9.223069    5.208179
    266          6           0        2.776768    7.779302    3.724003
    267          1           0        2.003570    8.065296    3.000995
    268          1           0        3.667496    8.371752    3.476076
    269          6           0        3.100013    6.309095    3.554719
    270          6           0        2.286856    5.466437    2.792603
    271          1           0        1.398685    5.873238    2.312241
    272          6           0        2.602057    4.117999    2.628680
    273          1           0        1.961254    3.478343    2.027413
    274          6           0        3.729144    3.584594    3.243506
    275          1           0        3.981606    2.534972    3.140741
    276          6           0        4.532217    4.408226    4.029655
    277          1           0        5.385695    3.978662    4.546412
    278          6           0        4.228613    5.757704    4.170763
    279          1           0        4.874639    6.396793    4.769989
    280          1           0        1.400201    7.598736    5.403947
    281          1           0       -2.390246    5.354907    2.525448
    282          6           0       -2.791357    5.150888    1.527439
    283          1           0       -2.477235    5.943667    0.843078
    284          6           0       -2.273831    3.793496    1.013033
    285          1           0       -2.834024    3.546863    0.101888
    286          6           0       -0.794797    3.891728    0.645209
    287          1           0       -0.194471    4.147958    1.527801
    288          1           0       -0.635543    4.659370   -0.117655
    289          1           0       -0.425797    2.936845    0.250719
    290          6           0       -2.503246    2.688823    2.041651
    291          1           0       -1.940041    2.896660    2.961212
    292          1           0       -2.172162    1.721259    1.657742
    293          1           0       -3.558557    2.599526    2.308818
    294          6           0       -4.324757    5.146273    1.646069
    295          8           0       -4.893013    4.825396    2.689044
    296          7           0       -4.989798    5.475477    0.507743
    297          1           0       -4.439031    5.706194   -0.313026
    298          6           0       -6.437615    5.562236    0.374398
    299          1           0       -6.864542    5.306181    1.347390
    300          6           0       -6.870820    6.962133   -0.116581
    301          1           0       -7.968024    6.978909   -0.175025
    302          1           0       -6.505573    7.082406   -1.142405
    303          6           0       -6.364335    8.169143    0.660067
    304          1           0       -5.307066    8.013647    0.915795
    305          1           0       -6.908947    8.316172    1.597476
    306          6           0       -6.445758    9.477733   -0.201161
    307          8           0       -6.121000    9.338885   -1.419598
    308          8           0       -6.789297   10.511302    0.387122
    309          6           0       -6.886361    4.593033   -0.729006
    310          8           0       -6.253118    4.514062   -1.786622
    311          7           0       -8.030545    3.902424   -0.526860
    312          1           0       -8.621769    4.117220    0.264761
    313          6           0       -8.563006    2.950196   -1.488136
    314          1           0       -8.752550    3.468771   -2.439383
    315          6           0       -7.577003    1.799945   -1.777491
    316          1           0       -6.692069    2.245681   -2.234644
    317          1           0       -7.997701    1.145806   -2.552784
    318          6           0       -7.131323    0.940921   -0.584244
    319          1           0       -7.959427    0.719024    0.097936
    320          1           0       -6.765268   -0.017816   -0.960979
    321         16           0       -5.753411    1.658054    0.392171
    322          6           0       -6.568637    2.085628    1.952755
    323          1           0       -7.535891    2.550299    1.748321
    324          1           0       -6.714508    1.202713    2.582959
    325          1           0       -5.937539    2.816044    2.467842
    326          6           0       -9.964988    2.501681   -0.975608
    327          8           0      -10.649951    3.283265   -0.326389
    328          7           0      -10.397525    1.264153   -1.344154
    329          1           0       -9.752834    0.610178   -1.765779
    330          6           0      -11.739119    0.738378   -1.083165
    331          1           0      -12.265482    1.517760   -0.522327
    332          6           0      -12.486910    0.450824   -2.402298
    333          1           0      -11.900967   -0.305433   -2.941477
    334          6           0      -13.881456   -0.121118   -2.133427
    335          1           0      -14.481012    0.578234   -1.536521
    336          1           0      -14.408538   -0.288955   -3.078054
    337          1           0      -13.840383   -1.074100   -1.598307
    338          6           0      -12.572824    1.715928   -3.257349
    339          1           0      -13.126707    2.504057   -2.732910
    340          1           0      -11.580048    2.105438   -3.498703
    341          1           0      -13.091173    1.504917   -4.198558
    342          6           0      -11.611684   -0.557461   -0.247828
    343          8           0      -10.826360   -1.429629   -0.599066
    344          7           0      -12.456914   -0.694405    0.811933
    345          1           0      -12.892663    0.145460    1.162748
    346          6           0      -12.434197   -1.867810    1.694130
    347          1           0      -12.371111   -2.750998    1.053077
    348          6           0      -11.243478   -1.846126    2.669416
    349          1           0      -10.376718   -1.478899    2.107406
    350          1           0      -11.436325   -1.124757    3.469458
    351          6           0      -10.903701   -3.187762    3.233279
    352          6           0      -11.040453   -3.631781    4.516875
    353          1           0      -11.436333   -3.118497    5.382929
    354          7           0      -10.561545   -4.922174    4.624089
    355          1           0      -10.518081   -5.457504    5.474120
    356          6           0      -10.090647   -5.331623    3.397437
    357          6           0       -9.489589   -6.531191    3.005016
    358          1           0       -9.324554   -7.340799    3.710140
    359          6           0       -9.105611   -6.646539    1.678797
    360          1           0       -8.632280   -7.562924    1.339296
    361          6           0       -9.311884   -5.597211    0.759332
    362          1           0       -8.996964   -5.719272   -0.272496
    363          6           0       -9.896399   -4.404651    1.156158
    364          1           0      -10.049411   -3.592342    0.448582
    365          6           0      -10.296452   -4.265487    2.494180
    366          1           0      -13.386607   -1.907331    2.228860
    367          1           0      -12.135314    3.380378    3.542199
    368          6           0      -11.200730    3.856703    3.229725
    369          1           0      -11.088981    4.794504    3.783157
    370          6           0      -10.009608    2.946487    3.502701
    371          1           0       -9.068481    3.450143    3.262600
    372          1           0       -9.978299    2.653842    4.555999
    373         16           0      -10.184288    1.442118    2.478166
    374          1           0       -9.305366    0.667721    3.135810
    375          1           0      -11.273428    4.094199    2.163460
    376          1           0       -5.453356    3.994733    5.412224
    377          6           0       -4.834377    3.413753    6.102349
    378          1           0       -5.456869    3.108550    6.952286
    379          6           0       -4.207081    2.227489    5.380958
    380          1           0       -3.708821    2.609225    4.484987
    381          1           0       -4.994717    1.546782    5.023662
    382          6           0       -3.195831    1.420182    6.205561
    383          1           0       -2.408410    2.110767    6.544884
    384          6           0       -3.831145    0.781736    7.443417
    385          1           0       -4.229429    1.533110    8.134143
    386          1           0       -4.656344    0.117541    7.152782
    387          1           0       -3.097811    0.179155    7.991797
    388          6           0       -2.543283    0.354864    5.326272
    389          1           0       -2.077222    0.812298    4.446900
    390          1           0       -3.297451   -0.358043    4.968588
    391          1           0       -1.774419   -0.214166    5.861498
    392          1           0       -4.057905    4.084411    6.489972
    393          1           0        0.496092    3.906836    7.222583
    394          6           0        1.377695    3.293371    7.443136
    395          1           0        1.056246    2.475592    8.101401
    396          6           0        2.007593    2.747374    6.160539
    397          1           0        2.296346    3.605780    5.541871
    398          6           0        3.272058    1.944752    6.472000
    399          1           0        3.762691    1.583037    5.563469
    400          1           0        4.002455    2.554348    7.018367
    401          1           0        3.031123    1.074505    7.098101
    402          6           0        1.015927    1.904422    5.353867
    403          1           0        1.457497    1.602342    4.395909
    404          1           0        0.096377    2.462105    5.137201
    405          1           0        0.736588    0.990077    5.895341
    406          1           0        2.090461    3.912759    8.000059
    407          1           0        7.535321    3.247030    5.610277
    408          6           0        7.675697    2.221609    5.969676
    409          1           0        6.751291    1.906837    6.460890
    410          6           0        8.011327    1.284226    4.812248
    411          1           0        8.892701    1.621620    4.257650
    412          1           0        8.230088    0.272852    5.179426
    413          6           0        6.852464    1.138704    3.856454
    414          8           0        5.686738    1.164783    4.203982
    415          8           0        7.226549    0.982775    2.593140
    416          1           0        6.410267    0.886502    2.037368
    417          1           0        8.483137    2.230394    6.707710
    418          1           0       13.189299    0.741980    5.292983
    419          6           0       13.906635    1.054041    4.525013
    420          1           0       14.224323    0.155644    3.983457
    421          6           0       13.286476    2.077150    3.575204
    422          1           0       14.030621    2.395490    2.835473
    423          1           0       12.997214    2.974814    4.135534
    424          6           0       12.063835    1.523774    2.845388
    425          1           0       11.298320    1.215742    3.568217
    426          1           0       12.338897    0.639198    2.257873
    427         16           0       11.380409    2.790313    1.730075
    428          6           0       10.104393    1.825117    0.877074
    429          1           0        9.309311    1.509947    1.557384
    430          1           0        9.673945    2.478301    0.114817
    431          1           0       10.539462    0.952268    0.380481
    432          1           0       14.783241    1.468610    5.033337
    433          1           0       12.485228   -3.293444    3.393269
    434          6           0       11.599677   -2.684670    3.604195
    435          1           0       11.926672   -1.792023    4.153031
    436          6           0       10.875870   -2.295729    2.314415
    437          1           0       11.558002   -1.722350    1.670520
    438          1           0       10.594681   -3.188363    1.745994
    439          6           0        9.625651   -1.444366    2.538999
    440          1           0        9.851514   -0.603975    3.205313
    441          1           0        9.286505   -1.019269    1.591199
    442         16           0        8.197087   -2.336822    3.259725
    443          6           0        7.165537   -2.514367    1.772588
    444          1           0        7.673793   -3.121522    1.020571
    445          1           0        6.935603   -1.528442    1.357760
    446          1           0        6.222820   -2.997758    2.045922
    447          1           0       10.940873   -3.263295    4.261371
    448          1           0        6.435180   -2.479163    6.566395
    449          6           0        5.659705   -1.712474    6.466890
    450          1           0        6.149546   -0.732683    6.466184
    451          6           0        4.857802   -1.903738    5.182404
    452          1           0        4.127074   -1.098400    5.053533
    453          1           0        4.319821   -2.857855    5.175907
    454          1           0        5.511881   -1.881949    4.306013
    455          1           0        5.017967   -1.764724    7.354590
    456          1           0        1.463102   -1.741771   10.207275
    457          6           0        0.525277   -1.198730   10.050697
    458          1           0        0.438917   -0.424659   10.821028
    459          6           0        0.491378   -0.580856    8.641779
    460          1           0       -0.429673    0.007917    8.527502
    461          1           0        1.319174    0.131687    8.542005
    462          6           0        0.581021   -1.593519    7.536990
    463          6           0        1.665965   -1.858591    6.742369
    464          1           0        2.633089   -1.375251    6.730070
    465          7           0        1.397907   -2.894554    5.879722
    466          1           0        2.003116   -3.264626    5.143377
    467          6           0        0.111867   -3.316670    6.093420
    468          6           0       -0.611090   -4.338334    5.468777
    469          1           0       -0.156895   -4.953060    4.699033
    470          6           0       -1.914303   -4.547554    5.886108
    471          1           0       -2.502869   -5.330149    5.416054
    472          6           0       -2.489871   -3.759815    6.902796
    473          1           0       -3.517663   -3.945698    7.200840
    474          6           0       -1.765064   -2.758878    7.527409
    475          1           0       -2.216961   -2.160662    8.314729
    476          6           0       -0.439863   -2.522820    7.128207
    477          1           0       -0.296465   -1.910424   10.184864
    478          1           0       -7.704635    1.203050   10.052961
    479          6           0       -7.819304    1.472204    8.997869
    480          1           0       -6.814567    1.567815    8.572699
    481          6           0       -8.650630    0.424994    8.254616
    482          1           0       -9.592306    0.266756    8.797672
    483          1           0       -8.122916   -0.539615    8.266633
    484          6           0       -8.985631    0.786827    6.799210
    485          1           0       -9.495332    1.762802    6.813018
    486          6           0       -7.728812    0.920705    5.935964
    487          1           0       -7.162308   -0.019396    5.925664
    488          1           0       -7.980420    1.166691    4.897510
    489          1           0       -7.064496    1.709105    6.298167
    490          6           0       -9.948890   -0.238961    6.193995
    491          1           0       -9.466832   -1.220394    6.098862
    492          1           0      -10.844673   -0.359758    6.815102
    493          1           0      -10.275824    0.066910    5.193737
    494          1           0       -8.297412    2.457861    8.951914
    495          8           0        0.319388   -4.641350    2.306698
    496          1           0       -0.300229   -4.018855    2.707360
    497          1           0        1.154931   -4.545198    2.841311
    498          8           0       -5.152088   -1.972277   -2.200761
    499          1           0       -4.269819   -1.746108   -2.536152
    500          1           0       -5.127663   -1.931005   -1.207953
    501          8           0        1.606797   -3.603477    0.054656
    502          1           0        0.986833   -4.023422    0.683588
    503          1           0        2.443674   -3.610102    0.572982
    504          8           0       -7.381119   -4.459514   -1.783550
    505          1           0       -7.429785   -3.499421   -1.675797
    506          1           0       -6.511083   -4.608056   -2.243915
    507          8           0       -4.954018   -4.609905   -2.864774
    508          1           0       -4.821251   -3.672238   -2.606560
    509          1           0       -5.066003   -4.563726   -3.846505
    510          8           0       -3.782065   -6.301226    0.963906
    511          1           0       -3.747488   -6.540859    0.009084
    512          1           0       -4.606001   -5.795009    1.046765
    513          8           0       -6.231540   -4.752279    0.720676
    514          1           0       -6.658474   -4.844523   -0.160888
    515          1           0       -6.967809   -4.847396    1.341243
    516          8           0       -5.036344   -1.657643   -5.671716
    517          1           0       -4.381929   -1.702671   -4.955184
    518          1           0       -5.242944   -2.604581   -5.819187
    519          8           0       -7.211095   -1.301318   -3.953466
    520          1           0       -6.584560   -1.229925   -4.705964
    521          1           0       -6.586394   -1.455822   -3.218697
    522          8           0       -1.063096   -6.820755    1.225125
    523          1           0       -0.558777   -6.164949    1.739202
    524          1           0       -2.008375   -6.595815    1.344932
    525          8           0        1.242961   -4.881505   -2.350189
    526          1           0        1.454646   -4.385272   -1.521483
    527          1           0        1.969208   -5.516189   -2.430661
    528          8           0       -3.495123   -6.729080   -1.742293
    529          1           0       -3.956227   -5.968904   -2.141173
    530          1           0       -2.539968   -6.505028   -1.726713
    531          8           0       -5.625755   -4.285616   -5.443410
    532          1           0       -6.604161   -4.357207   -5.288466
    533          1           0       -5.256466   -5.046903   -5.912460
    534          8           0       -8.084524   -3.891224   -4.560623
    535          1           0       -7.901407   -2.940385   -4.371680
    536          1           0       -8.137845   -4.292411   -3.677011
    537          8           0       -0.807085   -6.556240   -1.418282
    538          1           0       -0.061571   -5.992982   -1.712826
    539          1           0       -0.805492   -6.568147   -0.425134
    540          6           0        4.019635    0.527268    0.794760
    541          8           0        5.232554    0.834078    0.824692
    542          6           0        3.323872    0.130553    1.976052
    543          6           0        2.084000   -0.420581    1.905814
    544          6           0        1.280928   -0.438551    0.626331
    545          6           0        1.800026    0.608636   -0.360029
    546          6           0        3.307608    0.483167   -0.529641
    547          6           0        1.558622   -1.155846    3.093997
    548          6           0        0.044026   -1.115079    3.244500
    549          6           0       -0.646387   -1.411123    1.916115
    550          6           0       -0.238642   -0.338388    0.887935
    551          6           0       -2.155449   -1.479749    2.060099
    552          6           0       -2.905140   -1.717157    0.734164
    553          6           0       -2.561394   -0.559013   -0.209448
    554          6           0       -1.044322   -0.428570   -0.420979
    555          6           0       -2.761531   -2.514357    3.014967
    556          6           0       -4.252314   -2.547787    2.601922
    557          6           0       -4.343900   -1.714497    1.298477
    558          6           0       -2.583109   -3.069737    0.071327
    559          8           0       -5.365110   -2.156934    0.414708
    560          1           0        3.895082    0.123696    2.900916
    561          1           0        1.450207   -1.443851    0.199393
    562          1           0        1.550540    1.615827    0.002400
    563          1           0        1.317971    0.488894   -1.333467
    564          1           0        3.547260   -0.491409   -0.982508
    565          1           0        3.721711    1.256115   -1.185719
    566          1           0        2.057142   -0.803489    4.002502
    567          1           0        1.887893   -2.199017    2.956144
    568          1           0       -0.270724   -0.126263    3.600685
    569          1           0       -0.257840   -1.828377    4.017436
    570          1           0       -0.276528   -2.372322    1.539412
    571          1           0       -0.440998    0.643440    1.344112
    572          1           0       -2.482349   -0.490326    2.421743
    573          1           0       -2.961335    0.374165    0.205117
    574          1           0       -3.041280   -0.681725   -1.187745
    575          1           0       -0.676997   -1.279990   -1.010422
    576          1           0       -0.860450    0.466519   -1.027473
    577          1           0       -2.614536   -2.267984    4.068821
    578          1           0       -2.310032   -3.501910    2.857384
    579          1           0       -4.905795   -2.132654    3.375456
    580          1           0       -4.580363   -3.576432    2.419518
    581          1           0       -4.601291   -0.676993    1.536528
    582          1           0       -2.941834   -3.937544    0.634830
    583          1           0       -3.051244   -3.120031   -0.917933
    584          1           0       -1.508677   -3.208761   -0.084360
    585          1           0       -5.577509   -3.099568    0.588689
 ---------------------------------------------------------------------
 Rotational constants (GHZ):           0.0036308           0.0024088           0.0022410
[...]
 374\C,-1,5.388456,7.366161,-2.343608\H,0,4.804716,6.446252,-2.447907\C
 ,0,5.164717,8.004219,-0.969764\H,0,5.812082,8.893406,-0.908623\C,0,3.7
 16887,8.489403,-0.864214\H,0,3.523593,8.923813,0.122339\H,0,3.015087,7
 .662998,-1.008839\H,0,3.496209,9.250633,-1.621289\C,0,5.550559,7.08064
 9,0.199084\H,0,6.630645,6.889358,0.169419\H,0,5.38384,7.620548,1.13919
 8\C,0,4.807094,5.748232,0.257204\H,0,5.118992,5.183662,1.142152\H,0,5.
 002114,5.133238,-0.628227\H,0,3.724808,5.8885,0.33953\H,0,5.045378,8.0
 49273,-3.132907\H,0,3.833897,4.661631,-5.652747\C,-1,2.90717,4.135617,
 -5.400123\H,0,3.01616,3.091917,-5.720154\C,0,2.639963,4.208085,-3.8896
 49\H,0,2.552269,5.270161,-3.616937\C,0,1.329271,3.510892,-3.518831\H,0
 ,0.46948,3.947592,-4.041847\H,0,1.373692,2.450183,-3.785522\H,0,1.1353
 75,3.568608,-2.441038\C,0,3.804659,3.622627,-3.086387\H,0,3.603954,3.6
 84192,-2.008799\H,0,4.739622,4.15295,-3.293954\H,0,3.958423,2.564947,-
 3.340879\H,0,2.08249,4.578781,-5.971144\H,0,8.559299,1.543537,-8.55005
 2\C,-1,8.844005,0.786191,-7.810849\H,0,9.803231,1.090446,-7.371967\C,0
 ,7.77577,0.644552,-6.721162\H,0,6.829253,0.364779,-7.207653\C,0,8.1468
 37,-0.472111,-5.739577\H,0,9.093398,-0.238752,-5.232337\H,0,8.272608,-
 1.431407,-6.255191\H,0,7.376956,-0.614753,-4.974488\C,0,7.556903,1.986
 608,-6.00732\H,0,8.4541,2.221959,-5.416261\H,0,7.47351,2.780982,-6.761
 247\C,0,6.328171,2.049173,-5.103896\H,0,6.25828,3.035628,-4.637081\H,0
 ,5.409942,1.878304,-5.680197\H,0,6.364432,1.301977,-4.304013\H,0,9.005
 151,-0.1608,-8.339041\H,0,13.721891,-1.253445,-5.193098\C,-1,14.297661
 ,-2.155851,-4.961036\H,0,14.815635,-1.981891,-4.011649\C,0,13.372908,-
 3.372693,-4.857292\H,0,12.882738,-3.540947,-5.823887\H,0,13.972627,-4.
 268142,-4.651676\C,0,12.330273,-3.196311,-3.780258\C,0,11.07177,-2.670
 996,-4.069639\H,0,10.816589,-2.419225,-5.097315\C,0,10.125068,-2.45838
 ,-3.073161\H,0,9.151281,-2.050236,-3.325627\C,0,10.426368,-2.781116,-1
 .746454\O,0,9.542708,-2.616571,-0.734813\H,0,8.661205,-2.423953,-1.108
 824\C,0,11.687442,-3.295721,-1.437229\H,0,11.911826,-3.544413,-0.40479
 1\C,0,12.618987,-3.496258,-2.445914\H,0,13.595198,-3.904958,-2.191735\
 H,0,15.052883,-2.292237,-5.743478\H,0,5.117949,-6.916437,4.814384\C,-1
 ,4.367316,-6.133339,4.649529\H,0,4.484038,-5.402015,5.454076\C,0,4.615
 844,-5.468669,3.298842\H,0,4.598395,-6.226745,2.508126\H,0,5.610808,-5
 .01009,3.273407\C,0,3.578123,-4.413306,2.906609\O,0,2.576232,-4.257094
 ,3.680936\O,0,3.755707,-3.803422,1.8297\C,0,3.00256,-6.810855,4.69697\
 O,0,2.603717,-7.481785,3.749978\N,0,2.282038,-6.716998,5.847235\C,0,1.
 054607,-7.493034,5.999297\H,0,0.2327,-7.037964,5.433871\H,0,1.20223,-8
 .501115,5.604779\C,0,0.79234,-7.447659,7.50512\H,0,-0.267803,-7.563842
 ,7.745494\H,0,1.345814,-8.251868,8.004809\C,0,1.346604,-6.079758,7.921
 95\H,0,1.609381,-6.027148,8.982245\H,0,0.608153,-5.299822,7.719686\C,-
 1,2.572904,-5.887147,7.01961\H,0,2.710265,-4.839729,6.740491\H,0,3.488
 332,-6.233449,7.519445\H,0,3.592883,-8.795186,-5.58939\C,-1,3.117629,-
 8.344818,-4.70902\H,0,2.282465,-8.992386,-4.43188\C,0,4.133877,-8.2389
 64,-3.566188\H,0,5.01303,-7.665119,-3.889676\H,0,4.509516,-9.249925,-3
 .36522\C,0,3.587958,-7.650837,-2.28034\C,0,2.459822,-8.203367,-1.66233
 4\H,0,1.912203,-9.016114,-2.133877\C,0,2.023252,-7.728507,-0.428845\H,
 0,1.150543,-8.164887,0.046168\C,0,2.699809,-6.687586,0.201425\H,0,2.37
 2438,-6.348391,1.178669\C,0,3.800002,-6.101889,-0.419663\H,0,4.30478,-
 5.271195,0.065847\C,0,4.237227,-6.581657,-1.653805\H,0,5.105158,-6.125
 368,-2.127986\C,0,2.483568,-7.023142,-5.173107\O,0,1.320526,-6.989541,
 -5.57503\N,0,3.269602,-5.917686,-5.214877\H,0,4.129718,-5.907959,-4.68
 538\C,-1,2.798668,-4.637167,-5.745229\H,0,2.221437,-4.107723,-4.974958
 \C,0,3.973449,-3.777745,-6.220925\H,0,4.566362,-4.354496,-6.940721\H,0
 ,3.559564,-2.919105,-6.762223\C,0,4.840566,-3.286411,-5.086068\C,0,5.9
 39529,-4.01548,-4.623325\H,0,6.23417,-4.929245,-5.137126\C,0,6.69062,-
 3.585709,-3.533621\H,0,7.550162,-4.149843,-3.185516\C,0,6.355431,-2.39
 2708,-2.896099\O,0,7.109721,-1.985292,-1.841929\H,0,6.942002,-1.034812
 ,-1.642735\C,0,5.272529,-1.638758,-3.353308\H,0,5.034854,-0.692858,-2.
 87652\C,0,4.526897,-2.093939,-4.431544\H,0,3.682776,-1.50196,-4.775681
 \H,0,2.124257,-4.866152,-6.574159\H,0,-0.697718,-7.339635,-6.666643\C,
 -1,-1.767984,-7.352491,-6.441268\H,0,-2.338273,-7.443135,-7.368732\C,0
 ,-2.073051,-8.531202,-5.494093\H,0,-1.729484,-9.456303,-5.966485\H,0,-
 3.155791,-8.62969,-5.361003\C,0,-1.399429,-8.370234,-4.136672\H,0,-0.3
 61882,-8.038596,-4.267964\H,0,-1.904589,-7.601001,-3.545003\C,0,-1.365
 81,-9.637194,-3.297714\O,0,-1.716222,-10.733681,-3.710439\N,0,-0.85090
 3,-9.427776,-2.053026\H,0,-0.785082,-8.469013,-1.703062\H,0,-0.961841,
 -10.175125,-1.38405\C,0,-2.178546,-6.007402,-5.80316\O,0,-3.288075,-5.
 510945,-6.012417\N,0,-1.290257,-5.374017,-4.967894\H,0,-0.392512,-5.82
 7932,-4.824197\C,-1,-1.72432,-4.41348,-3.938334\H,0,-0.889349,-4.28831
 8,-3.242819\H,0,-2.582612,-4.802039,-3.387779\C,0,-2.133397,-3.037646,
 -4.462358\O,0,-2.879792,-2.310707,-3.792122\N,0,-1.611412,-2.659355,-5
 .64022\H,0,-1.020257,-3.343613,-6.097093\C,-1,-1.831789,-1.379886,-6.3
 13173\H,0,-2.526603,-0.806158,-5.698375\C,0,-0.511222,-0.622949,-6.492
 462\H,0,0.098693,-1.154091,-7.237084\H,0,-0.751094,0.349652,-6.934851\
 C,0,0.311188,-0.440972,-5.210795\H,0,0.582399,-1.436735,-4.832117\C,0,
 1.607193,0.30266,-5.543942\H,0,2.240204,0.417301,-4.655709\H,0,2.18882
 1,-0.227396,-6.308168\H,0,1.392333,1.306721,-5.929064\C,0,-0.472855,0.
 277091,-4.109784\H,0,-0.845095,1.248302,-4.460121\H,0,-1.325717,-0.315
 358,-3.765206\H,0,0.165656,0.461935,-3.239614\C,0,-2.503815,-1.586397,
 -7.70023\O,0,-2.523246,-0.665965,-8.503728\N,0,-2.976073,-2.830785,-7.
 98509\H,0,-3.113696,-3.487821,-7.225571\C,-1,-3.641861,-3.117759,-9.25
 3632\H,0,-3.075513,-2.656029,-10.064605\H,0,-3.670896,-4.200542,-9.390
 266\H,0,-4.66236,-2.718713,-9.270922\H,0,-5.244999,2.987201,-5.477746\
 C,-1,-4.85402,3.336589,-4.519001\H,0,-5.66881,3.384665,-3.789041\C,0,-
 3.765228,2.361195,-4.015458\H,0,-2.931417,2.402695,-4.730536\C,0,-3.24
 1336,2.71932,-2.621611\H,0,-2.725461,3.683957,-2.596966\H,0,-4.063636,
 2.770616,-1.896938\H,0,-2.53651,1.952905,-2.277019\C,0,-4.328272,0.941
 084,-4.031703\H,0,-5.175951,0.837547,-3.343621\H,0,-4.672083,0.651965,
 -5.029552\H,0,-3.561065,0.224705,-3.717822\C,0,-4.313796,4.747549,-4.7
 59505\O,0,-3.897877,5.074134,-5.890953\N,0,-4.296075,5.600683,-3.71817
 5\H,0,-4.705575,5.281452,-2.837072\C,-1,-3.592211,6.888477,-3.686905\H
 ,0,-3.02737,6.965382,-4.61922\C,0,-4.534549,8.092171,-3.470631\H,0,-4.
 053142,8.98648,-3.888944\H,0,-4.693214,8.310177,-2.404939\C,0,-5.94684
 5,7.929188,-4.020932\H,0,-6.505335,8.815056,-3.699857\H,0,-6.433746,7.
 083723,-3.523924\C,0,-6.056928,7.693526,-5.523863\H,0,-5.651178,6.7252
 06,-5.81667\H,0,-7.103862,7.713219,-5.842818\N,0,-5.350181,8.730971,-6
 .288646\H,0,-5.610631,9.681015,-6.060183\C,0,-4.288212,8.57067,-7.0680
 46\N,0,-3.65302,7.414292,-7.202269\H,0,-3.809599,6.560903,-6.612173\H,
 0,-3.023323,7.299728,-7.981929\N,0,-3.8515,9.633504,-7.793067\H,0,-4.3
 39669,10.513466,-7.740233\H,0,-2.882324,9.676947,-8.065312\C,0,-2.6288
 49,6.807116,-2.487791\O,0,-2.879652,6.07404,-1.537008\N,0,-1.538922,7.
 60428,-2.507233\H,0,-1.33167,8.130659,-3.341722\C,-1,-0.54639,7.560707
 ,-1.435019\H,0,-1.081957,7.299755,-0.521113\C,0,0.55456,6.546181,-1.72
 3804\H,0,1.194987,6.406175,-0.84689\H,0,1.183054,6.865232,-2.562228\H,
 0,0.114642,5.578959,-1.977832\H,0,-0.137404,8.567356,-1.306541\H,0,9.3
 98564,7.184447,6.892639\C,-1,8.485374,7.699401,6.573848\H,0,8.568347,8
 .74908,6.873166\C,0,8.284376,7.575273,5.062108\H,0,9.13045,8.038142,4.
 539911\H,0,7.386967,8.129048,4.759367\C,0,8.152362,6.121725,4.608794\H
 ,0,7.263339,5.663918,5.061018\H,0,9.027368,5.542537,4.928345\S,0,8.017
 241,6.026914,2.795531\C,0,7.923088,4.229977,2.592275\H,0,8.792379,3.74
 2866,3.043208\H,0,6.99519,3.835692,3.012972\H,0,7.936808,4.012594,1.52
 2379\H,0,7.644644,7.258871,7.121916\H,0,3.073578,7.909795,5.883078\C,-
 1,2.306954,8.152069,5.13931\H,0,2.09023,9.223069,5.208179\C,0,2.776768
 ,7.779302,3.724003\H,0,2.00357,8.065296,3.000995\H,0,3.667496,8.371752
 ,3.476076\C,0,3.100013,6.309095,3.554719\C,0,2.286856,5.466437,2.79260
 3\H,0,1.398685,5.873238,2.312241\C,0,2.602057,4.117999,2.62868\H,0,1.9
 61254,3.478343,2.027413\C,0,3.729144,3.584594,3.243506\H,0,3.981606,2.
 534972,3.140741\C,0,4.532217,4.408226,4.029655\H,0,5.385695,3.978662,4
 .546412\C,0,4.228613,5.757704,4.170763\H,0,4.874639,6.396793,4.769989\
 H,0,1.400201,7.598736,5.403947\H,0,-2.390246,5.354907,2.525448\C,-1,-2
 .791357,5.150888,1.527439\H,0,-2.477235,5.943667,0.843078\C,0,-2.27383
 1,3.793496,1.013033\H,0,-2.834024,3.546863,0.101888\C,0,-0.794797,3.89
 1728,0.645209\H,0,-0.194471,4.147958,1.527801\H,0,-0.635543,4.65937,-0
 .117655\H,0,-0.425797,2.936845,0.250719\C,0,-2.503246,2.688823,2.04165
 1\H,0,-1.940041,2.89666,2.961212\H,0,-2.172162,1.721259,1.657742\H,0,-
 3.558557,2.599526,2.308818\C,0,-4.324757,5.146273,1.646069\O,0,-4.8930
 13,4.825396,2.689044\N,0,-4.989798,5.475477,0.507743\H,0,-4.439031,5.7
 06194,-0.313026\C,-1,-6.437615,5.562236,0.374398\H,0,-6.864542,5.30618
 1,1.34739\C,0,-6.87082,6.962133,-0.116581\H,0,-7.968024,6.978909,-0.17
 5025\H,0,-6.505573,7.082406,-1.142405\C,0,-6.364335,8.169143,0.660067\
 H,0,-5.307066,8.013647,0.915795\H,0,-6.908947,8.316172,1.597476\C,0,-6
 .445758,9.477733,-0.201161\O,0,-6.121,9.338885,-1.419598\O,0,-6.789297
 ,10.511302,0.387122\C,0,-6.886361,4.593033,-0.729006\O,0,-6.253118,4.5
 14062,-1.786622\N,0,-8.030545,3.902424,-0.52686\H,0,-8.621769,4.11722,
 0.264761\C,-1,-8.563006,2.950196,-1.488136\H,0,-8.75255,3.468771,-2.43
 9383\C,0,-7.577003,1.799945,-1.777491\H,0,-6.692069,2.245681,-2.234644
 \H,0,-7.997701,1.145806,-2.552784\C,0,-7.131323,0.940921,-0.584244\H,0
 ,-7.959427,0.719024,0.097936\H,0,-6.765268,-0.017816,-0.960979\S,0,-5.
 753411,1.658054,0.392171\C,0,-6.568637,2.085628,1.952755\H,0,-7.535891
 ,2.550299,1.748321\H,0,-6.714508,1.202713,2.582959\H,0,-5.937539,2.816
 044,2.467842\C,0,-9.964988,2.501681,-0.975608\O,0,-10.649951,3.283265,
 -0.326389\N,0,-10.397525,1.264153,-1.344154\H,0,-9.752834,0.610178,-1.
 765779\C,-1,-11.739119,0.738378,-1.083165\H,0,-12.265482,1.51776,-0.52
 2327\C,0,-12.48691,0.450824,-2.402298\H,0,-11.900967,-0.305433,-2.9414
 77\C,0,-13.881456,-0.121118,-2.133427\H,0,-14.481012,0.578234,-1.53652
 1\H,0,-14.408538,-0.288955,-3.078054\H,0,-13.840383,-1.0741,-1.598307\
 C,0,-12.572824,1.715928,-3.257349\H,0,-13.126707,2.504057,-2.73291\H,0
 ,-11.580048,2.105438,-3.498703\H,0,-13.091173,1.504917,-4.198558\C,0,-
 11.611684,-0.557461,-0.247828\O,0,-10.82636,-1.429629,-0.599066\N,0,-1
 2.456914,-0.694405,0.811933\H,0,-12.892663,0.14546,1.162748\C,-1,-12.4
 34197,-1.86781,1.69413\H,0,-12.371111,-2.750998,1.053077\C,0,-11.24347
 8,-1.846126,2.669416\H,0,-10.376718,-1.478899,2.107406\H,0,-11.436325,
 -1.124757,3.469458\C,0,-10.903701,-3.187762,3.233279\C,0,-11.040453,-3
 .631781,4.516875\H,0,-11.436333,-3.118497,5.382929\N,0,-10.561545,-4.9
 22174,4.624089\H,0,-10.518081,-5.457504,5.47412\C,0,-10.090647,-5.3316
 23,3.397437\C,0,-9.489589,-6.531191,3.005016\H,0,-9.324554,-7.340799,3
 .71014\C,0,-9.105611,-6.646539,1.678797\H,0,-8.63228,-7.562924,1.33929
 6\C,0,-9.311884,-5.597211,0.759332\H,0,-8.996964,-5.719272,-0.272496\C
 ,0,-9.896399,-4.404651,1.156158\H,0,-10.049411,-3.592342,0.448582\C,0,
 -10.296452,-4.265487,2.49418\H,0,-13.386607,-1.907331,2.22886\H,0,-12.
 135314,3.380378,3.542199\C,-1,-11.20073,3.856703,3.229725\H,0,-11.0889
 81,4.794504,3.783157\C,0,-10.009608,2.946487,3.502701\H,0,-9.068481,3.
 450143,3.2626\H,0,-9.978299,2.653842,4.555999\S,0,-10.184288,1.442118,
 2.478166\H,0,-9.305366,0.667721,3.13581\H,0,-11.273428,4.094199,2.1634
 6\H,0,-5.453356,3.994733,5.412224\C,-1,-4.834377,3.413753,6.102349\H,0
 ,-5.456869,3.10855,6.952286\C,0,-4.207081,2.227489,5.380958\H,0,-3.708
 821,2.609225,4.484987\H,0,-4.994717,1.546782,5.023662\C,0,-3.195831,1.
 420182,6.205561\H,0,-2.40841,2.110767,6.544884\C,0,-3.831145,0.781736,
 7.443417\H,0,-4.229429,1.53311,8.134143\H,0,-4.656344,0.117541,7.15278
 2\H,0,-3.097811,0.179155,7.991797\C,0,-2.543283,0.354864,5.326272\H,0,
 -2.077222,0.812298,4.4469\H,0,-3.297451,-0.358043,4.968588\H,0,-1.7744
 19,-0.214166,5.861498\H,0,-4.057905,4.084411,6.489972\H,0,0.496092,3.9
 06836,7.222583\C,-1,1.377695,3.293371,7.443136\H,0,1.056246,2.475592,8
 .101401\C,0,2.007593,2.747374,6.160539\H,0,2.296346,3.60578,5.541871\C
 ,0,3.272058,1.944752,6.472\H,0,3.762691,1.583037,5.563469\H,0,4.002455
 ,2.554348,7.018367\H,0,3.031123,1.074505,7.098101\C,0,1.015927,1.90442
 2,5.353867\H,0,1.457497,1.602342,4.395909\H,0,0.096377,2.462105,5.1372
 01\H,0,0.736588,0.990077,5.895341\H,0,2.090461,3.912759,8.000059\H,0,7
 .535321,3.24703,5.610277\C,-1,7.675697,2.221609,5.969676\H,0,6.751291,
 1.906837,6.46089\C,0,8.011327,1.284226,4.812248\H,0,8.892701,1.62162,4
 .25765\H,0,8.230088,0.272852,5.179426\C,0,6.852464,1.138704,3.856454\O
 ,0,5.686738,1.164783,4.203982\O,0,7.226549,0.982775,2.59314\H,0,6.4102
 67,0.886502,2.037368\H,0,8.483137,2.230394,6.70771\H,0,13.189299,0.741
 98,5.292983\C,-1,13.906635,1.054041,4.525013\H,0,14.224323,0.155644,3.
 983457\C,0,13.286476,2.07715,3.575204\H,0,14.030621,2.39549,2.835473\H
 ,0,12.997214,2.974814,4.135534\C,0,12.063835,1.523774,2.845388\H,0,11.
 29832,1.215742,3.568217\H,0,12.338897,0.639198,2.257873\S,0,11.380409,
 2.790313,1.730075\C,0,10.104393,1.825117,0.877074\H,0,9.309311,1.50994
 7,1.557384\H,0,9.673945,2.478301,0.114817\H,0,10.539462,0.952268,0.380
 481\H,0,14.783241,1.46861,5.033337\H,0,12.485228,-3.293444,3.393269\C,
 -1,11.599677,-2.68467,3.604195\H,0,11.926672,-1.792023,4.153031\C,0,10
 .87587,-2.295729,2.314415\H,0,11.558002,-1.72235,1.67052\H,0,10.594681
 ,-3.188363,1.745994\C,0,9.625651,-1.444366,2.538999\H,0,9.851514,-0.60
 3975,3.205313\H,0,9.286505,-1.019269,1.591199\S,0,8.197087,-2.336822,3
 .259725\C,0,7.165537,-2.514367,1.772588\H,0,7.673793,-3.121522,1.02057
 1\H,0,6.935603,-1.528442,1.35776\H,0,6.22282,-2.997758,2.045922\H,0,10
 .940873,-3.263295,4.261371\H,0,6.43518,-2.479163,6.566395\C,-1,5.65970
 5,-1.712474,6.46689\H,0,6.149546,-0.732683,6.466184\C,0,4.857802,-1.90
 3738,5.182404\H,0,4.127074,-1.0984,5.053533\H,0,4.319821,-2.857855,5.1
 75907\H,0,5.511881,-1.881949,4.306013\H,0,5.017967,-1.764724,7.35459\H
 ,0,1.463102,-1.741771,10.207275\C,-1,0.525277,-1.19873,10.050697\H,0,0
 .438917,-0.424659,10.821028\C,0,0.491378,-0.580856,8.641779\H,0,-0.429
 673,0.007917,8.527502\H,0,1.319174,0.131687,8.542005\C,0,0.581021,-1.5
 93519,7.53699\C,0,1.665965,-1.858591,6.742369\H,0,2.633089,-1.375251,6
 .73007\N,0,1.397907,-2.894554,5.879722\H,0,2.003116,-3.264626,5.143377
 \C,0,0.111867,-3.31667,6.09342\C,0,-0.61109,-4.338334,5.468777\H,0,-0.
 156895,-4.95306,4.699033\C,0,-1.914303,-4.547554,5.886108\H,0,-2.50286
 9,-5.330149,5.416054\C,0,-2.489871,-3.759815,6.902796\H,0,-3.517663,-3
 .945698,7.20084\C,0,-1.765064,-2.758878,7.527409\H,0,-2.216961,-2.1606
 62,8.314729\C,0,-0.439863,-2.52282,7.128207\H,0,-0.296465,-1.910424,10
 .184864\H,0,-7.704635,1.20305,10.052961\C,-1,-7.819304,1.472204,8.9978
 69\H,0,-6.814567,1.567815,8.572699\C,0,-8.65063,0.424994,8.254616\H,0,
 -9.592306,0.266756,8.797672\H,0,-8.122916,-0.539615,8.266633\C,0,-8.98
 5631,0.786827,6.79921\H,0,-9.495332,1.762802,6.813018\C,0,-7.728812,0.
 920705,5.935964\H,0,-7.162308,-0.019396,5.925664\H,0,-7.98042,1.166691
 ,4.89751\H,0,-7.064496,1.709105,6.298167\C,0,-9.94889,-0.238961,6.1939
 95\H,0,-9.466832,-1.220394,6.098862\H,0,-10.844673,-0.359758,6.815102\
 H,0,-10.275824,0.06691,5.193737\H,0,-8.297412,2.457861,8.951914\O,0,0.
 319388,-4.64135,2.306698\H,0,-0.300229,-4.018855,2.70736\H,0,1.154931,
 -4.545198,2.841311\O,0,-5.152088,-1.972277,-2.200761\H,0,-4.269819,-1.
 746108,-2.536152\H,0,-5.127663,-1.931005,-1.207953\O,0,1.606797,-3.603
 477,0.054656\H,0,0.986833,-4.023422,0.683588\H,0,2.443674,-3.610102,0.
 572982\O,0,-7.381119,-4.459514,-1.78355\H,0,-7.429785,-3.499421,-1.675
 797\H,0,-6.511083,-4.608056,-2.243915\O,0,-4.954018,-4.609905,-2.86477
 4\H,0,-4.821251,-3.672238,-2.60656\H,0,-5.066003,-4.563726,-3.846505\O
 ,0,-3.782065,-6.301226,0.963906\H,0,-3.747488,-6.540859,0.009084\H,0,-
 4.606001,-5.795009,1.046765\O,0,-6.23154,-4.752279,0.720676\H,0,-6.658
 474,-4.844523,-0.160888\H,0,-6.967809,-4.847396,1.341243\O,0,-5.036344
 ,-1.657643,-5.671716\H,0,-4.381929,-1.702671,-4.955184\H,0,-5.242944,-
 2.604581,-5.819187\O,0,-7.211095,-1.301318,-3.953466\H,0,-6.58456,-1.2
 29925,-4.705964\H,0,-6.586394,-1.455822,-3.218697\O,0,-1.063096,-6.820
 755,1.225125\H,0,-0.558777,-6.164949,1.739202\H,0,-2.008375,-6.595815,
 1.344932\O,0,1.242961,-4.881505,-2.350189\H,0,1.454646,-4.385272,-1.52
 1483\H,0,1.969208,-5.516189,-2.430661\O,0,-3.495123,-6.72908,-1.742293
 \H,0,-3.956227,-5.968904,-2.141173\H,0,-2.539968,-6.505028,-1.726713\O
 ,0,-5.625755,-4.285616,-5.44341\H,0,-6.604161,-4.357207,-5.288466\H,0,
 -5.256466,-5.046903,-5.91246\O,0,-8.084524,-3.891224,-4.560623\H,0,-7.
 901407,-2.940385,-4.37168\H,0,-8.137845,-4.292411,-3.677011\O,0,-0.807
 085,-6.55624,-1.418282\H,0,-0.061571,-5.992982,-1.712826\H,0,-0.805492
 ,-6.568147,-0.425134\C,0,4.019635,0.527268,0.79476\O,0,5.232554,0.8340
 78,0.824692\C,0,3.323872,0.130553,1.976052\C,0,2.084,-0.420581,1.90581
 4\C,0,1.280928,-0.438551,0.626331\C,0,1.800026,0.608636,-0.360029\C,0,
 3.307608,0.483167,-0.529641\C,0,1.558622,-1.155846,3.093997\C,0,0.0440
 26,-1.115079,3.2445\C,0,-0.646387,-1.411123,1.916115\C,0,-0.238642,-0.
 338388,0.887935\C,0,-2.155449,-1.479749,2.060099\C,0,-2.90514,-1.71715
 7,0.734164\C,0,-2.561394,-0.559013,-0.209448\C,0,-1.044322,-0.42857,-0
 .420979\C,0,-2.761531,-2.514357,3.014967\C,0,-4.252314,-2.547787,2.601
 922\C,0,-4.3439,-1.714497,1.298477\C,0,-2.583109,-3.069737,0.071327\O,
 0,-5.36511,-2.156934,0.414708\H,0,3.895082,0.123696,2.900916\H,0,1.450
 207,-1.443851,0.199393\H,0,1.55054,1.615827,0.0024\H,0,1.317971,0.4888
 94,-1.333467\H,0,3.54726,-0.491409,-0.982508\H,0,3.721711,1.256115,-1.
 185719\H,0,2.057142,-0.803489,4.002502\H,0,1.887893,-2.199017,2.956144
 \H,0,-0.270724,-0.126263,3.600685\H,0,-0.25784,-1.828377,4.017436\H,0,
 -0.276528,-2.372322,1.539412\H,0,-0.440998,0.64344,1.344112\H,0,-2.482
 349,-0.490326,2.421743\H,0,-2.961335,0.374165,0.205117\H,0,-3.04128,-0
 .681725,-1.187745\H,0,-0.676997,-1.27999,-1.010422\H,0,-0.86045,0.4665
 19,-1.027473\H,0,-2.614536,-2.267984,4.068821\H,0,-2.310032,-3.50191,2
 .857384\H,0,-4.905795,-2.132654,3.375456\H,0,-4.580363,-3.576432,2.419
 518\H,0,-4.601291,-0.676993,1.536528\H,0,-2.941834,-3.937544,0.63483\H
 ,0,-3.051244,-3.120031,-0.917933\H,0,-1.508677,-3.208761,-0.08436\H,0,
 -5.577509,-3.099568,0.588689\\Version=ES64L-G16RevC.01\State=1-A\HF=-1
 3048.6279901\RMSD=3.001e-09\Dipole=1.943359,6.58637,-4.2015559\Quadrup
 ole=-28.7223793,-99.1645524,127.8869317,63.2669126,-16.5636887,-147.07
 65516\PG=C01 [X(C182H341N18O39S5)]\\@
 The archive entry for this job was punched.


 THE ENLIGHTENED ONE, BECAUSE HE SAW MANKIND DROWNING  
 IN THE GREAT SEA OF BIRTH, DEATH, AND SORROW, LONGED TO SAVE 
 THEM, FOR THIS HE WAS MOVED TO PITY.                         
 BECAUSE HE SAW MEN OF THE WORLD STRAYING IN FALSE PATHS, AND 
 NONE TO GUIDE THEM, FOR THIS HE WAS MOVED TO PITY.           
                     ..................                       
 BECAUSE HE SAW THE MEN OF THE WORLD PLOUGHING THEIR FIELDS,  
 SOWING THE SEED, TRAFFICKING, HUCKSTERING, BUYING, SELLING,  
 AND AT THE END WINNOWING NOTHING BUT BITTERNESS,             
 FOR THIS HE WAS MOVED TO PITY......                   
                   BUDAH'S PITY - UPSAKA SILA SUTRA           
 Job cpu time:       0 days 23 hours 34 minutes 55.0 seconds.
 Elapsed time:       0 days  0 hours 22 minutes 53.1 seconds.
 File lengths (MBytes):  RWF=  10192 Int=      0 D2E=      0 Chk=   1092 Scr=      1
 Normal termination of Gaussian 16 at Mon May 18 13:51:47 2026.
