 Entering Gaussian System, Link 0=g16
 Initial command:
 /cm/shared/apps/spack/cpu/opt/spack/linux-centos8-zen/gcc-8.3.1/gaussian-16.C.01-po5bqktfeugvmjyga3v7eigbecnokxng/g16/l1.exe "/scratch/hklem/job_32090257/Gau-1377819.inp" -scrdir="/scratch/hklem/job_32090257/"
 Entering Link 1 = /cm/shared/apps/spack/cpu/opt/spack/linux-centos8-zen/gcc-8.3.1/gaussian-16.C.01-po5bqktfeugvmjyga3v7eigbecnokxng/g16/l1.exe PID=   1377820.
  
 Copyright (c) 1988-2019, Gaussian, Inc.  All Rights Reserved.
  
 This is part of the Gaussian(R) 16 program.  It is based on
 the Gaussian(R) 09 system (copyright 2009, Gaussian, Inc.),
 the Gaussian(R) 03 system (copyright 2003, Gaussian, Inc.),
 the Gaussian(R) 98 system (copyright 1998, Gaussian, Inc.),
 the Gaussian(R) 94 system (copyright 1995, Gaussian, Inc.),
 the Gaussian 92(TM) system (copyright 1992, Gaussian, Inc.),
 the Gaussian 90(TM) system (copyright 1990, Gaussian, Inc.),
 the Gaussian 88(TM) system (copyright 1988, Gaussian, Inc.),
 the Gaussian 86(TM) system (copyright 1986, Carnegie Mellon
 University), and the Gaussian 82(TM) system (copyright 1983,
 Carnegie Mellon University). Gaussian is a federally registered
 trademark of Gaussian, Inc.
  
 This software contains proprietary and confidential information,
 including trade secrets, belonging to Gaussian, Inc.
  
 This software is provided under written license and may be
 used, copied, transmitted, or stored only in accord with that
 written license.
  
 The following legend is applicable only to US Government
 contracts under FAR:
  
                    RESTRICTED RIGHTS LEGEND
  
 Use, reproduction and disclosure by the US Government is
 subject to restrictions as set forth in subparagraphs (a)
 and (c) of the Commercial Computer Software - Restricted
 Rights clause in FAR 52.227-19.
  
 Gaussian, Inc.
 340 Quinnipiac St., Bldg. 40, Wallingford CT 06492
  
  
 ---------------------------------------------------------------
 Warning -- This program may not be used in any manner that
 competes with the business of Gaussian, Inc. or will provide
 assistance to any competitor of Gaussian, Inc.  The licensee
 of this program is prohibited from giving any competitor of
 Gaussian, Inc. access to this program.  By using this program,
 the user acknowledges that Gaussian, Inc. is engaged in the
 business of creating and licensing software in the field of
 computational chemistry and represents and warrants to the
 licensee that it is not a competitor of Gaussian, Inc. and that
 it will not use this program in any manner prohibited above.
 ---------------------------------------------------------------
  

 Cite this work as:
 Gaussian 16, Revision C.01,
 M. J. Frisch, G. W. Trucks, H. B. Schlegel, G. E. Scuseria, 
 M. A. Robb, J. R. Cheeseman, G. Scalmani, V. Barone, 
 G. A. Petersson, H. Nakatsuji, X. Li, M. Caricato, A. V. Marenich, 
 J. Bloino, B. G. Janesko, R. Gomperts, B. Mennucci, H. P. Hratchian, 
 J. V. Ortiz, A. F. Izmaylov, J. L. Sonnenberg, D. Williams-Young, 
 F. Ding, F. Lipparini, F. Egidi, J. Goings, B. Peng, A. Petrone, 
 T. Henderson, D. Ranasinghe, V. G. Zakrzewski, J. Gao, N. Rega, 
 G. Zheng, W. Liang, M. Hada, M. Ehara, K. Toyota, R. Fukuda, 
 J. Hasegawa, M. Ishida, T. Nakajima, Y. Honda, O. Kitao, H. Nakai, 
 T. Vreven, K. Throssell, J. A. Montgomery, Jr., J. E. Peralta, 
 F. Ogliaro, M. J. Bearpark, J. J. Heyd, E. N. Brothers, K. N. Kudin, 
 V. N. Staroverov, T. A. Keith, R. Kobayashi, J. Normand, 
 K. Raghavachari, A. P. Rendell, J. C. Burant, S. S. Iyengar, 
 J. Tomasi, M. Cossi, J. M. Millam, M. Klene, C. Adamo, R. Cammi, 
 J. W. Ochterski, R. L. Martin, K. Morokuma, O. Farkas, 
 J. B. Foresman, and D. J. Fox, Gaussian, Inc., Wallingford CT, 2019.
 
 ******************************************
 Gaussian 16:  ES64L-G16RevC.01  3-Jul-2019
                11-Jul-2024 
 ******************************************
 %nprocshared=32
 Will use up to   32 processors via shared memory.
 %mem=64GB
 --------------------------
 # wb97xd/6-31G(d) prop=efg
 --------------------------
 1/38=1,172=1/1;
 2/12=2,17=6,18=5,40=1/2;
 3/5=1,6=6,7=1,11=2,25=1,30=1,74=-58/1,2,3;
 4//1;
 5/5=2,38=5/2;
 6/7=2,8=2,9=2,10=2,14=1,28=1/1,2;
 99/5=1,9=1/99;
 ---------------------------------------
 19nt_mm_min_distance_cutoff6_xtb_conf_1
 ---------------------------------------
 Symbolic Z-matrix:
 Charge = -1 Multiplicity = 1
 H                     46.9997   33.7602   30.901 
 C                     46.354    34.588    30.601 
 H                     45.8613   34.3393   29.661 
 C                     45.2951   34.8545   31.6824 
 H                     44.6692   33.9654   31.7865 
 H                     45.7857   35.039    32.6413 
 C                     44.4521   36.0428   31.3125 
 C                     43.2906   35.9093   30.5642 
 H                     42.9546   34.9247   30.2708 
 C                     42.5494   37.0164   30.1961 
 H                     41.6446   36.9089   29.6179 
 C                     42.9704   38.2869   30.5718 
 O                     42.246    39.3708   30.1825 
 H                     42.565    40.1705   30.687 
 C                     44.128    38.4316   31.3262 
 H                     44.4488   39.4169   31.6305 
 C                     44.8563   37.3167   31.6861 
 H                     45.7569   37.4363   32.2674 
 C                     47.2073   35.8418   30.3328 
 O                     47.0653   36.5148   29.3301 
 N                     48.1255   36.1474   31.2778 
 H                     48.2302   35.5389   32.0747 
 C                     49.06     37.273    31.205 
 H                     48.5762   38.0673   30.6371 
 C                     49.4677   37.7317   32.6057 
 H                     49.7938   36.8429   33.163 
 C                     50.6586   38.6826   32.5182 
 H                     50.9317   39.0324   33.5104 
 H                     50.4145   39.5417   31.9039 
 H                     51.5193   38.1809   32.0802 
 C                     48.3032   38.3536   33.3871 
 H                     47.5462   37.5865   33.5627 
 H                     48.6692   38.6557   34.3696 
 C                     47.6493   39.5562   32.7204 
 H                     46.8652   39.9409   33.3668 
 H                     47.2051   39.2917   31.7649 
 H                     48.3667   40.3565   32.5647 
 H                     49.9526   36.955    30.6499 
 H                     47.9848   38.2102   26.9234 
 C                     48.062    39.251    26.619 
 H                     47.2104   39.4838   25.9845 
 C                     48.0682   40.154    27.8509 
 H                     48.9337   39.8883   28.4683 
 C                     48.1839   41.6202   27.442 
 H                     49.1056   41.8021   26.8916 
 H                     47.3486   41.8896   26.8043 
 H                     48.1656   42.2696   28.3148 
 C                     46.8055   39.9328   28.6783 
 H                     46.8132   40.566    29.5639 
 H                     46.7315   38.8934   28.9874 
 H                     45.9237   40.1723   28.0878 
 H                     48.9729   39.3818   26.0377 
 H                     43.422    34.4516   24.6764 
 C                     42.527    34.831    25.165 
 H                     42.2341   34.124    25.9391 
 C                     42.7846   36.2071   25.7759 
 H                     43.1017   36.8878   24.9771 
 C                     41.4985   36.7532   26.3908 
 H                     41.1468   36.0905   27.1793 
 H                     40.7178   36.8347   25.6363 
 H                     41.6609   37.7416   26.8104 
 C                     43.9129   36.1142   26.8086 
 H                     43.5543   35.5707   27.685 
 H                     44.7347   35.5378   26.3765 
 C                     44.457    37.4654   27.2497 
 H                     45.2931   37.3159   27.9269 
 H                     44.8016   38.0367   26.3901 
 H                     43.6983   38.0429   27.7695 
 H                     41.7287   34.8801   24.4267 
 H                     37.8561   33.1024   28.1122 
 C                     36.813    32.932    28.368 
 H                     36.7358   32.858    29.4507 
 C                     35.9453   34.0811   27.8536 
 H                     36.0269   34.1326   26.7651 
 H                     34.9008   33.8889   28.1076 
 C                     36.3894   35.3823   28.4596 
 C                     37.5123   36.0352   27.9697 
 H                     38.0442   35.6225   27.1237 
 C                     37.9612   37.2087   28.5415 
 H                     38.8372   37.7003   28.1462 
 C                     37.285    37.7637   29.624 
 O                     37.6787   38.9218   30.2048 
 H                     38.4488   39.2807   29.7261 
 C                     36.1626   37.1112   30.1266 
 H                     35.6425   37.5431   30.9675 
 C                     35.7284   35.9346   29.5486 
 H                     34.8546   35.4394   29.9488 
 H                     36.4982   31.986    27.9317 
 H                     36.125    46.38     32.5384 
 C                     37.164    46.712    32.465 
 H                     37.6195   46.6791   33.4522 
 C                     37.9313   45.7935   31.5149 
 H                     37.45     45.7679   30.5364 
 H                     37.9673   44.7776   31.9171 
 C                     39.3684   46.3032   31.3304 
 O                     39.8704   46.9899   32.2344 
 O                     39.9588   46.0111   30.2604 
 C                     37.1655   48.1218   31.8963 
 O                     36.8304   48.3418   30.7428 
 N                     37.5295   49.1348   32.7092 
 C                     37.5137   50.5007   32.2107 
 H                     38.4117   50.6925   31.6135 
 H                     36.6433   50.6441   31.5675 
 C                     37.5033   51.3532   33.4724 
 H                     37.9159   52.3455   33.304 
 H                     36.4849   51.4531   33.8519 
 C                     38.3491   50.52     34.4331 
 H                     38.165    50.7605   35.4789 
 H                     39.4066   50.676    34.2222 
 C                     37.95     49.082    34.098 
 H                     38.7856   48.3899   34.2229 
 H                     37.1161   48.7504   34.7307 
 H                     36.8252   43.949    22.2309 
 C                     37.317    44.529    23.018 
 H                     37.1523   45.583    22.7919 
 C                     36.7058   44.1722   24.3722 
 H                     36.8305   43.1073   24.586 
 H                     35.6298   44.3604   24.3045 
 C                     37.2627   44.9935   25.5048 
 C                     37.142    46.3805   25.4883 
 H                     36.6744   46.8691   24.6461 
 C                     37.5958   47.1405   26.5515 
 H                     37.4929   48.2135   26.5357 
 C                     38.1682   46.5225   27.6506 
 H                     38.4892   47.1108   28.4937 
 C                     38.3051   45.1447   27.6711 
 H                     38.7491   44.6649   28.5297 
 C                     37.8622   44.3846   26.6005 
 H                     37.9629   43.307    26.631 
 C                     38.8217   44.2785   22.8374 
 O                     39.4739   44.9763   22.0762 
 N                     39.3802   43.2292   23.471 
 H                     38.8781   42.7506   24.2021 
 C                     40.763    42.802    23.272 
 H                     41.4097   43.2986   24.0047 
 C                     40.8677   41.2822   23.4244 
 H                     40.143    40.8065   22.7609 
 H                     41.8686   40.9749   23.1173 
 C                     40.6247   40.8668   24.8496 
 C                     39.3506   40.5465   25.3033 
 H                     38.5194   40.532    24.6108 
 C                     39.1247   40.2103   26.6246 
 H                     38.1321   39.9647   26.9701 
 C                     40.1879   40.169    27.5219 
 O                     39.9432   39.805    28.8072 
 H                     40.7838   39.6722   29.2961 
 C                     41.4677   40.4802   27.0766 
 H                     42.2953   40.4319   27.7692 
 C                     41.6747   40.8348   25.7583 
 H                     42.6722   41.0784   25.426 
 H                     41.0531   43.1242   22.2696 
 H                     40.3967   46.3272   20.4579 
 C                     40.928    47.267    20.313 
 H                     41.2494   47.356    19.2755 
 C                     40.0067   48.4341   20.6806 
 H                     39.1902   48.4757   19.9567 
 H                     40.5546   49.3766   20.6181 
 C                     39.4047   48.2758   22.072 
 H                     39.0895   47.2372   22.2021 
 H                     40.1313   48.5192   22.8423 
 C                     38.1693   49.1349   22.2891 
 O                     37.4025   49.4609   21.4027 
 N                     37.9741   49.4356   23.5864 
 H                     38.6987   49.2389   24.2714 
 H                     37.2152   50.0458   23.8395 
 C                     42.2062   47.2527   21.1788 
 O                     43.2957   47.5846   20.7278 
 N                     42.086    46.8175   22.4591 
 H                     41.1788   46.4796   22.7488 
 C                     43.019    47.115    23.555 
 H                     42.6173   46.6393   24.4503 
 H                     43.0651   48.1966   23.7216 
 C                     44.4615   46.6492   23.3772 
 O                     45.3787   47.2625   23.9209 
 N                     44.6804   45.5359   22.6676 
 H                     43.8859   45.0914   22.2313 
 C                     45.983    44.912    22.455 
 H                     46.7249   45.478    23.0187 
 C                     45.9452   43.4463   22.8926 
 H                     45.3255   42.89     22.1837 
 H                     46.96     43.0556   22.8131 
 C                     45.4056   43.2231   24.3078 
 H                     44.3606   43.5521   24.3468 
 C                     45.4517   41.7291   24.6233 
 H                     45.065    41.5335   25.6216 
 H                     44.8587   41.1645   23.9062 
 H                     46.476    41.3666   24.5719 
 C                     46.1959   44.0196   25.3408 
 H                     47.2601   43.8178   25.249 
 H                     46.0301   45.0855   25.2187 
 H                     45.8768   43.7478   26.3439 
 C                     46.3846   44.9389   20.9468 
 O                     47.2818   44.2159   20.5545 
 N                     45.6554   45.721    20.1309 
 H                     44.9851   46.3887   20.5 
 C                     45.882    45.789    18.692 
 H                     46.5958   45.0106   18.4302 
 H                     44.939    45.6296   18.1704 
 H                     46.2875   46.7635   18.4196 
 H                     51.3182   46.2497   23.646 
 C                     51.26     46.169    24.731 
 H                     51.5852   47.0974   25.1973 
 C                     49.8065   45.8703   25.1407 
 H                     49.5466   44.8711   24.7713 
 C                     49.6274   45.9126   26.6555 
 H                     50.203    45.1377   27.1538 
 H                     49.9397   46.8784   27.0462 
 H                     48.5801   45.7689   26.9093 
 C                     48.8843   46.8925   24.4819 
 H                     49.1374   47.8944   24.8172 
 H                     48.9673   46.8582   23.3986 
 H                     47.8529   46.6921   24.7586 
 C                     52.2108   45.0575   25.1581 
 O                     52.5132   44.1494   24.3608 
 N                     52.718    45.1084   26.3911 
 H                     52.4928   45.9193   26.97 
 C                     53.485    44.06     27.077 
 H                     53.3989   43.1427   26.4864 
 C                     54.9516   44.4554   27.3181 
 H                     55.573    43.5604   27.2461 
 H                     55.0941   44.8567   28.33 
 C                     55.49     45.5505   26.4009 
 H                     56.462    45.8308   26.8086 
 H                     54.8477   46.4281   26.4643 
 C                     55.6146   45.1695   24.9243 
 H                     54.6404   45.0676   24.4541 
 H                     56.1636   45.9521   24.3946 
 N                     56.3503   43.9306   24.7471 
 H                     57.3036   43.9693   25.0798 
 C                     55.8259   42.727    24.5462 
 N                     54.5478   42.5251   24.2998 
 H                     53.7654   43.2529   24.3453 
 H                     54.247    41.5935   24.0687 
 N                     56.6682   41.6666   24.5821 
 H                     57.659    41.8026   24.674 
 H                     56.35     40.7578   24.2972 
 C                     52.7698   43.8762   28.4348 
 O                     52.1467   44.7931   28.9278 
 N                     52.8631   42.6662   29.0152 
 H                     53.3789   41.9284   28.5647 
 C                     52.152    42.334    30.246 
 H                     51.8802   43.2824   30.7113 
 C                     50.9027   41.5176   29.9494 
 H                     50.2976   41.4289   30.8467 
 H                     51.1607   40.522    29.5943 
 H                     50.3096   42.0168   29.1891 
 H                     52.8301   41.793    30.9094 
 H                     45.537    38.045    40.5201 
 C                     46.435    38.561    40.187 
 H                     47.2432   38.3254   40.8751 
 C                     46.8015   38.135    38.7699 
 H                     46.9973   37.0611   38.7437 
 H                     47.7141   38.6445   38.4532 
 C                     45.6866   38.4595   37.7906 
 H                     45.4997   39.5343   37.758 
 H                     44.7656   37.9386   38.0601 
 S                     46.1372   37.9348   36.1001 
 C                     44.6295   38.4788   35.2587 
 H                     43.7768   37.9717   35.701 
 H                     44.5379   39.5574   35.3438 
 H                     44.7186   38.2001   34.2152 
 H                     46.2491   39.6323   40.2279 
 H                     49.4436   42.6552   37.9301 
 C                     50.213    42.685    37.162 
 H                     51.1748   42.4724   37.624 
 C                     49.9074   41.6687   36.0597 
 H                     50.6959   41.7077   35.3049 
 H                     49.8968   40.6638   36.4903 
 C                     48.576    41.9593   35.4259 
 C                     48.4871   42.6219   34.2098 
 H                     49.3941   42.9175   33.6986 
 C                     47.2534   42.9038   33.6472 
 H                     47.1961   43.4122   32.6957 
 C                     46.0926   42.5396   34.3038 
 H                     45.1252   42.7545   33.8789 
 C                     46.1723   41.9028   35.5306 
 H                     45.2615   41.6606   36.0572 
 C                     47.4035   41.6062   36.0825 
 H                     47.4645   41.098    37.0349 
 H                     50.2414   43.6904   36.748 
 H                     50.6562   46.4247   32.4281 
 C                     50.84     46.417    31.354 
 H                     51.4598   45.5633   31.0888 
 C                     49.5122   46.3646   30.5865 
 H                     49.695    46.6929   29.5585 
 C                     48.9725   44.9384   30.5433 
 H                     48.8532   44.5464   31.5513 
 H                     49.6591   44.2989   29.9961 
 H                     48.0068   44.9146   30.042 
 C                     48.5099   47.3127   31.2298 
 H                     48.2583   46.9795   32.236 
 H                     47.5983   47.3638   30.6419 
 H                     48.9374   48.3094   31.2868 
 C                     51.5914   47.7075   30.9797 
 O                     51.441    48.7531   31.5938 
 N                     52.396    47.6024   29.9034 
 H                     52.4434   46.7109   29.4266 
 C                     53.236    48.657    29.347 
 H                     53.1211   49.5416   29.9759 
 C                     54.7033   48.1853   29.2649 
 H                     55.3099   48.9984   28.8576 
 H                     54.7397   47.3501   28.5592 
 C                     55.3076   47.6885   30.5654 
 H                     54.588    47.0685   31.1053 
 H                     55.624    48.5052   31.2135 
 C                     56.5616   46.7645   30.2475 
 O                     56.3734   45.8993   29.3702 
 O                     57.5815   46.9879   30.8952 
 C                     52.818    48.9069   27.8924 
 O                     52.5885   47.9688   27.1372 
 N                     52.7936   50.1882   27.4766 
 H                     53.113    50.9327   28.0825 
 C                     52.401    50.618    26.143 
 H                     53.0938   50.1875   25.4037 
 C                     50.9759   50.1496   25.8064 
 H                     50.9733   49.0609   25.8679 
 H                     50.7293   50.4158   24.7765 
 C                     49.8989   50.6801   26.7494 
 H                     50.0819   51.7105   27.0474 
 H                     48.9235   50.6232   26.269 
 S                     49.7741   49.6689   28.282 
 C                     50.185    50.8964   29.5485 
 H                     51.0093   51.5061   29.193 
 H                     49.3128   51.5127   29.7528 
 H                     50.4802   50.3482   30.4398 
 C                     52.59     52.1657   26.0715 
 O                     53.3488   52.7144   26.8518 
 N                     51.9396   52.8278   25.0916 
 H                     51.2175   52.3641   24.5601 
 C                     52.113    54.245    24.763 
 H                     52.9506   54.6055   25.3679 
 C                     52.4128   54.4034   23.2635 
 H                     51.5499   54.0147   22.7125 
 C                     52.5975   55.8777   22.9126 
 H                     53.4183   56.3064   23.4846 
 H                     52.8269   55.9811   21.8548 
 H                     51.6934   56.443    23.1224 
 C                     53.6567   53.6052   22.8811 
 H                     54.5215   53.964    23.4354 
 H                     53.524    52.5488   23.0993 
 H                     53.8581   53.7133   21.8182 
 C                     50.8106   55.0255   25.1029 
 O                     49.7349   54.6185   24.7179 
 N                     50.9726   56.1987   25.7609 
 H                     51.8542   56.3735   26.2164 
 C                     49.863    57.09     26.119 
 H                     49.1224   56.9972   25.3225 
 C                     49.2159   56.6987   27.4559 
 H                     49.184    55.6075   27.5018 
 H                     49.8225   57.0555   28.2892 
 C                     47.8259   57.2282   27.5551 
 C                     47.3451   58.1948   28.3865 
 H                     47.8586   58.7592   29.1414 
 N                     46.0082   58.3934   28.1565 
 H                     45.4208   59.04     28.6535 
 C                     45.5994   57.5524   27.1611 
 C                     44.3511   57.3839   26.574 
 H                     43.4995   57.9648   26.897 
 C                     44.243    56.4512   25.5646 
 H                     43.2888   56.2941   25.0847 
 C                     45.3465   55.6977   25.1488 
 H                     45.2205   54.9829   24.3499 
 C                     46.5851   55.8513   25.7334 
 H                     47.4263   55.2583   25.4084 
 C                     46.7232   56.7961   26.7518 
 H                     50.2438   58.1113   26.1449 
 H                     53.8943   55.4868   29.6398 
 C                     53.834    54.416    29.825 
 H                     54.6589   54.1246   30.4714 
 C                     52.5141   54.0661   30.4823 
 H                     52.4568   53.0037   30.7193 
 H                     52.3528   54.6501   31.3888 
 S                     51.1391   54.4538   29.3284 
 H                     50.1594   54.1529   30.1791 
 H                     53.9297   53.894    28.8743 
 H                     50.5474   50.6743   33.4482 
 C                     49.755    50.767    34.187 
 H                     49.8041   51.7614   34.627 
 C                     48.4062   50.5018   33.5338 
 H                     48.4969   49.5997   32.9295 
 H                     48.1506   51.3221   32.8586 
 C                     47.2588   50.2942   34.5256 
 H                     47.5301   49.4725   35.1986 
 C                     46.9932   51.5404   35.3657 
 H                     47.8603   51.8006   35.9682 
 H                     46.7456   52.3826   34.7218 
 H                     46.1548   51.3694   36.0377 
 C                     45.9992   49.9022   33.7595 
 H                     46.2011   49.062    33.1007 
 H                     45.6553   50.7392   33.1553 
 H                     45.1968   49.6226   34.4347 
 H                     49.9442   50.0362   34.9705 
 H                     47.2512   46.7507   36.9531 
 C                     46.253    46.438    37.253 
 H                     45.6256   47.3241   37.3214 
 C                     45.6753   45.4508   36.2435 
 H                     46.3409   44.5821   36.1908 
 C                     44.2945   44.9728   36.6839 
 H                     43.9197   44.2119   36.0049 
 H                     44.3392   44.546    37.6846 
 H                     43.5921   45.8044   36.6981 
 C                     45.601    46.0882   34.8595 
 H                     45.2262   45.37     34.1351 
 H                     46.5866   46.4183   34.5381 
 H                     44.9376   46.9508   34.8736 
 H                     46.3194   45.9859   38.2409 
 H                     43.3121   40.7728   37.621 
 C                     42.317    41.201    37.522 
 H                     42.413    42.2832   37.4829 
 C                     41.6403   40.697    36.254 
 H                     41.6514   39.6072   36.203 
 H                     40.5974   41.0263   36.2205 
 C                     42.2833   41.2452   34.9983 
 O                     42.9605   42.2409   34.9556 
 O                     42.008    40.509    33.9333 
 H                     42.3766   40.9305   33.1063 
 H                     41.7359   40.9276   38.3993 
 H                     38.2627   37.1151   38.0626 
 C                     38.331    36.071    37.764 
 H                     37.5785   35.8826   37.001 
 C                     39.7237   35.757    37.2302 
 H                     39.7857   34.7035   36.9502 
 H                     40.4692   35.9373   38.0073 
 C                     40.05     36.6123   36.0176 
 H                     40.0402   37.672    36.2792 
 H                     39.337    36.4323   35.2118 
 S                     41.7116   36.2053   35.3689 
 C                     41.6249   37.0658   33.7745 
 H                     41.5842   38.1405   33.9281 
 H                     42.5259   36.8053   33.2297 
 H                     40.752    36.7182   33.229 
 H                     38.1073   35.4511   38.6286 
 H                     35.4836   38.6858   34.8314 
 C                     36.5      39.053    34.953 
 H                     36.9631   38.523    35.7835 
 C                     37.305    38.8503   33.6749 
 H                     37.3853   37.7825   33.4508 
 H                     36.7972   39.3239   32.8331 
 C                     38.7074   39.4257   33.798 
 H                     39.1734   39.101    34.7268 
 H                     39.3355   39.1304   32.9596 
 S                     38.7293   41.2505   33.8452 
 C                     38.99     41.5834   32.0825 
 H                     38.2004   41.1127   31.505 
 H                     39.9645   41.2004   31.7914 
 H                     38.9644   42.6603   31.9502 
 H                     36.4612   40.1117   35.1997 
 H                     38.8784   44.6762   35.9081 
 C                     39.963    44.652    35.992 
 H                     40.2367   43.7998   36.6102 
 C                     40.6034   44.5382   34.6187 
 H                     41.6843   44.4767   34.7187 
 H                     40.3527   45.3929   33.9947 
 H                     40.254    43.6359   34.1219 
 H                     40.2875   45.5596   36.4988 
 H                     41.5498   49.6283   37.8763 
 C                     42.518    50.112    37.763 
 H                     43.0224   50.1097   38.728 
 C                     43.353    49.3817   36.713 
 H                     44.3321   49.8628   36.6379 
 H                     43.5057   48.3473   37.0291 
 C                     42.6714   49.3939   35.3847 
 C                     41.9766   48.3672   34.8103 
 H                     41.8245   47.3689   35.1736 
 N                     41.4466   48.751    33.6148 
 H                     40.8809   48.1486   33.0185 
 C                     41.7833   50.0485   33.3879 
 C                     41.4834   50.8899   32.3214 
 H                     40.8686   50.5535   31.4996 
 C                     41.9774   52.1748   32.353 
 H                     41.7646   52.8475   31.5354 
 C                     42.7548   52.6248   33.4245 
 H                     43.1261   53.6401   33.4093 
 C                     43.0488   51.806    34.4907 
 H                     43.6489   52.1664   35.3136 
 C                     42.5637   50.4982   34.4868 
 H                     42.349    51.1431   37.4608 
 H                     49.1336   55.6542   36.1618 
 C                     49.23     55.22     35.169 
 H                     48.6904   54.2775   35.159 
 C                     48.6773   56.1785   34.1193 
 H                     49.1613   57.1513   34.242 
 H                     47.6072   56.3201   34.2893 
 C                     48.8926   55.708    32.676 
 H                     49.9663   55.5412   32.5267 
 C                     48.1521   54.4033   32.3931 
 H                     47.1048   54.4921   32.6745 
 H                     48.1936   54.1641   31.3312 
 H                     48.5937   53.5786   32.9449 
 C                     48.4337   56.7904   31.6997 
 H                     47.3682   56.9766   31.8188 
 H                     48.9678   57.7217   31.8784 
 H                     48.6116   56.4827   30.6715 
 H                     50.2834   55.0172   34.985 
 C                     43.2693   42.5498   31.1054 
 O                     42.942    41.4574   31.6111 
 C                     43.1853   43.7796   31.8087 
 C                     43.432    44.9863   31.2353 
 C                     43.9757   45.0911   29.8442 
 C                     44.6609   43.7788   29.454 
 C                     43.7109   42.6108   29.67 
 C                     43.0541   46.2239   31.9562 
 C                     43.9514   47.4208   31.6612 
 C                     44.1657   47.572    30.1593 
 C                     44.8939   46.3176   29.6549 
 C                     44.9852   48.811    29.8339 
 C                     45.286    48.9635   28.3345 
 C                     46.0999   47.7473   27.8976 
 C                     45.3408   46.45     28.1933 
 C                     44.4239   50.1797   30.212 
 C                     45.3265   51.1477   29.4282 
 C                     46.0719   50.2977   28.3749 
 C                     44.0434   49.118    27.4537 
 O                     46.2242   50.9511   27.1343 
 H                     42.8158   43.7293   32.8234 
 H                     43.1093   45.2322   29.1802 
 H                     45.5584   43.6388   30.063 
 H                     44.9597   43.8034   28.4071 
 H                     42.8141   42.7544   29.0562 
 H                     44.1716   41.6621   29.3829 
 H                     43.0022   46.0365   33.0292 
 H                     42.0294   46.4548   31.636 
 H                     44.9158   47.2784   32.1541 
 H                     43.5026   48.3224   32.0744 
 H                     43.1932   47.6468   29.6736 
 H                     45.7872   46.1734   30.2737 
 H                     45.9521   48.7118   30.3414 
 H                     47.0576   47.7442   28.4221 
 H                     46.3159   47.783    26.8288 
 H                     44.4666   46.3837   27.5443 
 H                     46.0031   45.62     27.9427 
 H                     44.4609   50.3676   31.2822 
 H                     43.3872   50.2674   29.892 
 H                     46.0355   51.6467   30.088 
 H                     44.7387   51.9203   28.9315 
 H                     47.093    50.0826   28.709 
 H                     43.5108   50.0387   27.6656 
 H                     44.3325   49.1271   26.4054 
 H                     43.3571   48.2921   27.5971 
 H                     45.4599   51.5459   26.9921 
 O                     41.0935   48.3013   29.5728 
 H                     41.2167   48.8272   30.3653 
 H                     40.6352   47.4757   29.875 
 O                     46.5436   49.6898   24.8183 
 H                     46.3981   48.7366   24.8183 
 H                     46.4697   50.014    25.744 
 O                     41.4792   46.0032   27.9589 
 H                     41.589    46.95     28.1181 
 H                     40.85     45.7413   28.653 
 O                     45.4794   52.4139   24.0382 
 H                     46.2159   51.9659   24.4679 
 H                     44.873    51.6921   23.7533 
 O                     44.2299   50.1364   23.3759 
 H                     44.9729   49.7572   23.8791 
 H                     44.4679   49.9967   22.4383 
 O                     41.962    51.7278   26.8915 
 H                     41.8028   51.535    25.9447 
 H                     42.7664   52.2606   26.8967 
 O                     44.4657   52.9921   26.4873 
 H                     44.6841   52.877    25.5373 
 H                     44.7333   53.8869   26.708 
 O                     47.1762   48.1422   21.8468 
 H                     46.6807   47.8132   22.6084 
 H                     46.544    48.7069   21.3702 
 O                     48.5174   50.244    22.9922 
 H                     48.2896   49.4667   22.4459 
 H                     47.9289   50.1411   23.7597 
 O                     40.036    49.8172   27.5406 
 H                     40.365    49.2716   28.276 
 H                     40.6577   50.556    27.4496 
 O                     40.6568   45.9709   25.408 
 H                     40.9698   45.9176   26.3406 
 H                     39.7352   45.7032   25.436 
 O                     41.6764   50.9398   24.2981 
 H                     42.5331   50.6456   23.9614 
 H                     41.1684   50.1373   24.5064 
 O                     45.3881   50.0251   20.9461 
 H                     45.9608   50.8278   21.0882 
 H                     44.8978   50.1376   20.1331 
 O                     46.954    52.0157   21.6428 
 H                     47.6526   51.476    22.0757 
 H                     46.4742   52.4434   22.3691 
 O                     40.2582   48.7258   25.1498 
 H                     40.4334   47.7759   25.2482 
 H                     40.125    49.0901   26.0611 
 
 Stoichiometry    C182H341N18O39S5(1-)
 Framework group  C1[X(C182H341N18O39S5)]
 Deg. of freedom  1749
 Full point group                 C1      NOp   1
 Largest Abelian subgroup         C1      NOp   1
 Largest concise Abelian subgroup C1      NOp   1
                         Standard orientation:                         
 ---------------------------------------------------------------------
 Center     Atomic      Atomic             Coordinates (Angstroms)
 Number     Number       Type             X           Y           Z
 ---------------------------------------------------------------------
      1          1           0        9.247191    6.807458   -4.017196
      2          6           0        8.820576    5.827648   -3.793245
      3          1           0        8.994673    5.157101   -4.634829
      4          6           0        9.467233    5.243549   -2.527393
      5          1           0       10.535362    5.107158   -2.710657
      6          1           0        9.351604    5.944683   -1.697177
      7          6           0        8.829935    3.930336   -2.168431
      8          6           0        9.309786    2.726154   -2.664964
      9          1           0       10.189013    2.720208   -3.293726
     10          6           0        8.686488    1.530868   -2.359454
     11          1           0        9.064515    0.595978   -2.743656
     12          6           0        7.557525    1.526911   -1.548290
     13          8           0        6.938076    0.346814   -1.274785
     14          1           0        6.279244    0.490847   -0.539261
     15          6           0        7.072438    2.725729   -1.040726
     16          1           0        6.203645    2.722771   -0.399229
     17          6           0        7.706195    3.910163   -1.354443
     18          1           0        7.321472    4.837951   -0.961388
     19          6           0        7.293351    5.949529   -3.635779
     20          8           0        6.525973    5.187447   -4.191533
     21          7           0        6.857299    6.956416   -2.844865
     22          1           0        7.530749    7.584158   -2.434148
     23          6           0        5.449871    7.270534   -2.587881
     24          1           0        4.888161    6.338445   -2.644245
     25          6           0        5.286267    7.961361   -1.233415
     26          1           0        6.001700    8.794317   -1.198356
     27          6           0        3.884349    8.553525   -1.114768
     28          1           0        3.756416    9.019948   -0.141378
     29          1           0        3.134073    7.779460   -1.228395
     30          1           0        3.719355    9.306810   -1.882681
     31          6           0        5.611317    7.035841   -0.053940
     32          1           0        6.669220    6.768619   -0.095916
     33          1           0        5.471500    7.595230    0.872376
     34          6           0        4.777893    5.763471    0.015332
     35          1           0        5.059850    5.199078    0.899979
     36          1           0        4.935351    5.133943   -0.855963
     37          1           0        3.719344    5.991966    0.096884
     38          1           0        5.085676    7.934203   -3.383432
     39          1           0        3.975188    4.383676   -5.727604
     40          6           0        3.005855    3.924739   -5.549692
     41          1           0        3.065458    2.879567   -5.843071
     42          6           0        2.639057    4.040672   -4.071503
     43          1           0        2.593825    5.103960   -3.810269
     44          6           0        1.275881    3.407504   -3.804712
     45          1           0        0.494890    3.901053   -4.380924
     46          1           0        1.296676    2.360419   -4.087811
     47          1           0        1.019841    3.466834   -2.748891
     48          6           0        3.708135    3.381245   -3.205385
     49          1           0        3.455665    3.473573   -2.150386
     50          1           0        4.676096    3.844091   -3.379159
     51          1           0        3.790806    2.324738   -3.451516
     52          1           0        2.262458    4.417626   -6.173537
     53          1           0        8.674647    1.184779   -8.498412
     54          6           0        8.970835    0.469869   -7.733640
     55          1           0        9.920266    0.794277   -7.311491
     56          6           0        7.909879    0.376270   -6.638734
     57          1           0        6.961978    0.073152   -7.098722
     58          6           0        8.308930   -0.684341   -5.615874
     59          1           0        9.256947   -0.421195   -5.150455
     60          1           0        8.418809   -1.655977   -6.094680
     61          1           0        7.552769   -0.777788   -4.842013
     62          6           0        7.713897    1.748938   -5.986404
     63          1           0        8.595310    1.992694   -5.389949
     64          1           0        7.630804    2.501165   -6.774790
     65          6           0        6.476265    1.841218   -5.105434
     66          1           0        6.370029    2.856813   -4.734900
     67          1           0        5.584558    1.581153   -5.672240
     68          1           0        6.552190    1.174597   -4.251517
     69          1           0        9.120650   -0.497683   -8.209222
     70          1           0       13.626349   -1.654830   -5.031197
     71          6           0       14.372863   -2.365969   -4.685473
     72          1           0       14.792737   -1.992685   -3.753786
     73          6           0       13.737016   -3.739082   -4.465927
     74          1           0       13.331328   -4.102031   -5.413465
     75          1           0       14.501301   -4.443515   -4.131143
     76          6           0       12.639691   -3.648735   -3.443529
     77          6           0       11.393765   -3.148570   -3.796640
     78          1           0       11.204208   -2.860053   -4.821228
     79          6           0       10.386882   -3.016971   -2.861526
     80          1           0        9.425335   -2.624769   -3.156337
     81          6           0       10.605459   -3.393034   -1.539452
     82          8           0        9.641887   -3.298276   -0.592841
     83          1           0        8.816836   -2.974269   -0.999445
     84          6           0       11.854568   -3.888140   -1.175118
     85          1           0       12.021092   -4.176228   -0.148751
     86          6           0       12.854600   -4.008536   -2.119809
     87          1           0       13.819379   -4.395629   -1.822704
     88          1           0       15.167782   -2.423271   -5.426549
     89          1           0        5.110264   -6.648273    5.039773
     90          6           0        4.289498   -5.935131    4.926178
     91          1           0        4.375590   -5.167373    5.691856
     92          6           0        4.356832   -5.289931    3.542609
     93          1           0        4.333703   -6.053065    2.763597
     94          1           0        5.277174   -4.708909    3.440156
     95          6           0        3.156269   -4.354713    3.334988
     96          8           0        2.613383   -3.861956    4.336608
     97          8           0        2.773156   -4.149108    2.156114
     98          6           0        2.982873   -6.702272    5.049402
     99          8           0        2.635020   -7.505355    4.197750
    100          7           0        2.220299   -6.487773    6.141163
    101          6           0        0.978731   -7.225667    6.309849
    102          1           0        0.188006   -6.773556    5.701417
    103          1           0        1.117495   -8.254785    5.972911
    104          6           0        0.669989   -7.092567    7.795013
    105          1           0       -0.391399   -7.199846    8.007622
    106          1           0        1.222443   -7.842410    8.363933
    107          6           0        1.194367   -5.693286    8.110581
    108          1           0        1.404228   -5.547074    9.168887
    109          1           0        0.465408   -4.947457    7.795175
    110          6           0        2.459297   -5.589856    7.256958
    111          1           0        2.627481   -4.570234    6.903526
    112          1           0        3.340555   -5.919912    7.822735
    113          1           0        3.660428   -8.999924   -5.207778
    114          6           0        3.174214   -8.517979   -4.353894
    115          1           0        2.341091   -9.155364   -4.055884
    116          6           0        4.175665   -8.378872   -3.208262
    117          1           0        5.034388   -7.775394   -3.514337
    118          1           0        4.553863   -9.380604   -2.981816
    119          6           0        3.563832   -7.806587   -1.957021
    120          6           0        2.501641   -8.458665   -1.336414
    121          1           0        2.097033   -9.360740   -1.771425
    122          6           0        1.971415   -7.974976   -0.153691
    123          1           0        1.153662   -8.488565    0.325550
    124          6           0        2.502939   -6.837174    0.429813
    125          1           0        2.113935   -6.480557    1.368671
    126          6           0        3.550611   -6.173613   -0.186276
    127          1           0        3.965042   -5.288589    0.271454
    128          6           0        4.073153   -6.650919   -1.377589
    129          1           0        4.900097   -6.131815   -1.845550
    130          6           0        2.553564   -7.226093   -4.906447
    131          8           0        1.431690   -7.240732   -5.389043
    132          7           0        3.302276   -6.106418   -4.919101
    133          1           0        4.161651   -6.063359   -4.394420
    134          6           0        2.881054   -4.854315   -5.542837
    135          1           0        2.366821   -4.230280   -4.802683
    136          6           0        4.098820   -4.112173   -6.099838
    137          1           0        4.656565   -4.783682   -6.755361
    138          1           0        3.744085   -3.268218   -6.693511
    139          6           0        4.980344   -3.614490   -4.987171
    140          6           0        6.024509   -4.385717   -4.490488
    141          1           0        6.256022   -5.338584   -4.947771
    142          6           0        6.802617   -3.944040   -3.437225
    143          1           0        7.610554   -4.549423   -3.055526
    144          6           0        6.558181   -2.697366   -2.868629
    145          8           0        7.357665   -2.274135   -1.855677
    146          1           0        7.179879   -1.332451   -1.643806
    147          6           0        5.520931   -1.914613   -3.363033
    148          1           0        5.341955   -0.940068   -2.932709
    149          6           0        4.738529   -2.378230   -4.401981
    150          1           0        3.933611   -1.762968   -4.773906
    151          1           0        2.175880   -5.116205   -6.334620
    152          1           0       -0.609315   -7.608664   -6.386195
    153          6           0       -1.682070   -7.586918   -6.198515
    154          1           0       -2.225500   -7.744249   -7.129942
    155          6           0       -2.043782   -8.678893   -5.187179
    156          1           0       -1.874346   -9.653322   -5.650011
    157          1           0       -3.102794   -8.613162   -4.929149
    158          6           0       -1.196161   -8.595965   -3.923012
    159          1           0       -0.158558   -8.403300   -4.208013
    160          1           0       -1.535826   -7.791305   -3.276712
    161          6           0       -1.193384   -9.887227   -3.120495
    162          8           0       -1.326940  -10.993037   -3.609688
    163          7           0       -0.951921   -9.678966   -1.812889
    164          1           0       -0.960764   -8.735387   -1.435340
    165          1           0       -0.981275  -10.459334   -1.178463
    166          6           0       -2.067536   -6.182460   -5.686145
    167          8           0       -3.025886   -5.569561   -6.140554
    168          7           0       -1.275738   -5.628762   -4.732473
    169          1           0       -0.453523   -6.147368   -4.456566
    170          6           0       -1.668123   -4.549286   -3.815545
    171          1           0       -0.813779   -4.361155   -3.164455
    172          1           0       -2.514961   -4.872415   -3.200570
    173          6           0       -2.082444   -3.223957   -4.448973
    174          8           0       -2.885101   -2.490314   -3.874070
    175          7           0       -1.506350   -2.871274   -5.604228
    176          1           0       -0.870794   -3.527744   -6.033511
    177          6           0       -1.731904   -1.614319   -6.311622
    178          1           0       -2.400856   -1.001542   -5.707025
    179          6           0       -0.400456   -0.905185   -6.567694
    180          1           0        0.155188   -1.474147   -7.318413
    181          1           0       -0.627594    0.069144   -7.001141
    182          6           0        0.474674   -0.735459   -5.323058
    183          1           0        0.755034   -1.726182   -4.946689
    184          6           0        1.749895    0.009020   -5.714546
    185          1           0        2.401101    0.138647   -4.852265
    186          1           0        2.296157   -0.537391   -6.481154
    187          1           0        1.503472    0.990856   -6.112682
    188          6           0       -0.265975    0.004657   -4.214120
    189          1           0       -0.674413    0.941588   -4.584269
    190          1           0       -1.077331   -0.599040   -3.819414
    191          1           0        0.413569    0.222703   -3.394008
    192          6           0       -2.405659   -1.857809   -7.698504
    193          8           0       -2.397236   -0.969758   -8.530904
    194          7           0       -2.905529   -3.084558   -7.931574
    195          1           0       -2.992208   -3.769395   -7.186695
    196          6           0       -3.502449   -3.464754   -9.206542
    197          1           0       -3.316915   -2.659442   -9.914360
    198          1           0       -3.046256   -4.389917   -9.556806
    199          1           0       -4.576653   -3.610280   -9.091689
    200          1           0       -5.185892    2.784003   -5.681533
    201          6           0       -4.769645    3.176719   -4.754367
    202          1           0       -5.546795    3.260985   -3.996703
    203          6           0       -3.664224    2.229958   -4.252944
    204          1           0       -2.834634    2.264850   -4.969162
    205          6           0       -3.158093    2.635341   -2.871647
    206          1           0       -2.679582    3.610500   -2.885073
    207          1           0       -3.981215    2.665548   -2.161362
    208          1           0       -2.431565    1.909440   -2.515099
    209          6           0       -4.212600    0.806431   -4.205830
    210          1           0       -5.050992    0.751896   -3.517052
    211          1           0       -4.548242    0.480311   -5.186949
    212          1           0       -3.441673    0.124778   -3.857220
    213          6           0       -4.232476    4.571774   -5.049556
    214          8           0       -3.890599    4.880773   -6.206888
    215          7           0       -4.167615    5.442822   -4.040992
    216          1           0       -4.535231    5.154231   -3.132713
    217          6           0       -3.510730    6.756732   -4.046656
    218          1           0       -2.901590    6.821650   -4.953516
    219          6           0       -4.508092    7.922329   -3.936934
    220          1           0       -4.125028    8.767637   -4.512314
    221          1           0       -4.604973    8.266458   -2.898917
    222          6           0       -5.938532    7.597332   -4.359538
    223          1           0       -6.540829    8.456316   -4.061283
    224          1           0       -6.299420    6.738082   -3.795446
    225          6           0       -6.132227    7.293676   -5.846585
    226          1           0       -5.691249    6.339187   -6.120494
    227          1           0       -7.201185    7.246645   -6.069212
    228          7           0       -5.561305    8.330132   -6.687617
    229          1           0       -5.981339    9.239975   -6.558295
    230          6           0       -4.381677    8.287141   -7.296417
    231          7           0       -3.638365    7.201624   -7.360880
    232          1           0       -3.812075    6.276957   -6.852226
    233          1           0       -2.801439    7.227915   -7.918222
    234          7           0       -3.946142    9.423385   -7.891787
    235          1           0       -4.535173   10.235511   -7.937819
    236          1           0       -3.134651    9.405811   -8.482981
    237          6           0       -2.594617    6.742060   -2.801892
    238          8           0       -2.869777    6.045748   -1.847196
    239          7           0       -1.494187    7.514658   -2.844506
    240          1           0       -1.296078    8.066721   -3.662630
    241          6           0       -0.498063    7.513725   -1.777443
    242          1           0       -0.986438    7.089156   -0.899335
    243          6           0        0.711425    6.674692   -2.162663
    244          1           0        1.358122    6.541058   -1.300639
    245          1           0        1.277578    7.147848   -2.962334
    246          1           0        0.386685    5.694155   -2.497499
    247          1           0       -0.211756    8.545349   -1.562084
    248          1           0        9.387317    7.531770    6.588549
    249          6           0        8.413261    7.956333    6.354931
    250          1           0        8.393981    8.986458    6.702273
    251          6           0        8.149828    7.895662    4.854633
    252          1           0        8.908373    8.471640    4.320645
    253          1           0        7.178410    8.341215    4.629782
    254          6           0        8.167925    6.463458    4.348872
    255          1           0        7.386687    5.872379    4.829998
    256          1           0        9.138853    5.997510    4.528867
    257         16           0        7.860143    6.408795    2.549310
    258          6           0        7.942811    4.613112    2.335444
    259          1           0        8.918873    4.264287    2.660252
    260          1           0        7.144650    4.144911    2.903543
    261          1           0        7.813018    4.403109    1.280191
    262          1           0        7.656107    7.395230    6.898802
    263          1           0        2.903515    8.018979    5.615660
    264          6           0        2.258612    8.362315    4.810016
    265          1           0        2.075278    9.426804    4.940221
    266          6           0        2.908270    8.088768    3.451915
    267          1           0        2.250120    8.449531    2.658400
    268          1           0        3.851974    8.637123    3.388013
    269          6           0        3.166739    6.618837    3.275075
    270          6           0        2.317395    5.824759    2.517517
    271          1           0        1.463798    6.276141    2.028660
    272          6           0        2.554025    4.467062    2.380889
    273          1           0        1.891308    3.859977    1.781422
    274          6           0        3.635786    3.884718    3.014837
    275          1           0        3.831118    2.828644    2.919249
    276          6           0        4.472189    4.664993    3.794906
    277          1           0        5.289207    4.195273    4.321564
    278          6           0        4.245527    6.022324    3.916129
    279          1           0        4.906458    6.632773    4.515776
    280          1           0        1.310322    7.834960    4.885347
    281          1           0       -2.387315    5.477376    2.224658
    282          6           0       -2.793225    5.228810    1.244360
    283          1           0       -2.499890    5.983583    0.518027
    284          6           0       -2.299472    3.846082    0.798123
    285          1           0       -2.962295    3.482153    0.006794
    286          6           0       -0.885720    3.937238    0.232275
    287          1           0       -0.209893    4.371873    0.965972
    288          1           0       -0.882880    4.557397   -0.659466
    289          1           0       -0.521309    2.947461   -0.036038
    290          6           0       -2.361424    2.876319    1.969898
    291          1           0       -1.665933    3.176247    2.752904
    292          1           0       -2.110750    1.869786    1.648487
    293          1           0       -3.367214    2.864946    2.379376
    294          6           0       -4.329392    5.210758    1.344151
    295          8           0       -4.914174    4.906025    2.372833
    296          7           0       -4.974746    5.520167    0.201946
    297          1           0       -4.420962    5.729882   -0.618846
    298          6           0       -6.419827    5.600257    0.021148
    299          1           0       -6.888483    5.394102    0.985044
    300          6           0       -6.813720    6.984846   -0.535604
    301          1           0       -7.900476    7.020371   -0.648242
    302          1           0       -6.367536    7.076769   -1.530273
    303          6           0       -6.336630    8.177878    0.272077
    304          1           0       -5.308617    8.021860    0.607583
    305          1           0       -6.965312    8.367296    1.141571
    306          6           0       -6.326413    9.472146   -0.651024
    307          8           0       -5.792032    9.322698   -1.767155
    308          8           0       -6.836203   10.484292   -0.176373
    309          6           0       -6.838611    4.602187   -1.065826
    310          8           0       -6.188134    4.492853   -2.099245
    311          7           0       -7.983032    3.921539   -0.860320
    312          1           0       -8.567499    4.125884   -0.060286
    313          6           0       -8.524100    2.919831   -1.766508
    314          1           0       -8.749949    3.390560   -2.735669
    315          6           0       -7.517347    1.781626   -2.000056
    316          1           0       -6.619455    2.230177   -2.426258
    317          1           0       -7.911107    1.081298   -2.739557
    318          6           0       -7.115422    1.026408   -0.735655
    319          1           0       -7.952019    0.887811   -0.053808
    320          1           0       -6.713157    0.049390   -0.998418
    321         16           0       -5.781832    1.897726    0.185922
    322          6           0       -6.607079    2.238660    1.761470
    323          1           0       -7.625687    2.556169    1.563455
    324          1           0       -6.597886    1.342458    2.377128
    325          1           0       -6.051706    3.038121    2.245727
    326          6           0       -9.890562    2.443568   -1.181560
    327          8           0      -10.490038    3.159123   -0.397770
    328          7           0      -10.382481    1.268069   -1.626327
    329          1           0       -9.796648    0.643888   -2.161244
    330          6           0      -11.711838    0.732856   -1.321597
    331          1           0      -12.251717    1.522136   -0.789615
    332          6           0      -12.437064    0.355653   -2.623610
    333          1           0      -11.845534   -0.423409   -3.115991
    334          6           0      -13.824870   -0.200929   -2.315363
    335          1           0      -14.420929    0.535057   -1.778967
    336          1           0      -14.338897   -0.448727   -3.240906
    337          1           0      -13.756594   -1.101776   -1.711385
    338          6           0      -12.542283    1.567692   -3.545853
    339          1           0      -13.109684    2.361335   -3.064135
    340          1           0      -11.557523    1.953656   -3.795814
    341          1           0      -13.047298    1.292643   -4.468518
    342          6           0      -11.575021   -0.537339   -0.433429
    343          8           0      -10.810765   -1.424953   -0.748166
    344          7           0      -12.409455   -0.613638    0.631232
    345          1           0      -12.866262    0.229025    0.941878
    346          6           0      -12.455204   -1.758798    1.547954
    347          1           0      -12.237644   -2.644231    0.947796
    348          6           0      -11.412690   -1.642782    2.669943
    349          1           0      -10.502423   -1.223710    2.234473
    350          1           0      -11.763835   -0.959478    3.444186
    351          6           0      -11.099883   -2.978790    3.252649
    352          6           0      -11.387652   -3.447474    4.499338
    353          1           0      -11.881912   -2.953369    5.313998
    354          7           0      -10.932538   -4.733367    4.637157
    355          1           0      -11.006691   -5.292093    5.469302
    356          6           0      -10.339886   -5.121906    3.469672
    357          6           0       -9.739673   -6.324241    3.115457
    358          1           0       -9.677291   -7.144432    3.815736
    359          6           0       -9.230913   -6.429914    1.838547
    360          1           0       -8.758498   -7.349621    1.527991
    361          6           0       -9.310311   -5.365774    0.933193
    362          1           0       -8.905847   -5.492510   -0.059481
    363          6           0       -9.894284   -4.166667    1.280465
    364          1           0       -9.942179   -3.351200    0.575049
    365          6           0      -10.425477   -4.037189    2.564959
    366          1           0      -13.466179   -1.830738    1.949810
    367          1           0      -12.179817    3.580990    3.169216
    368          6           0      -11.230228    4.020853    2.870306
    369          1           0      -11.225379    5.071142    3.153284
    370          6           0      -10.078459    3.299749    3.541160
    371          1           0       -9.121836    3.758396    3.290835
    372          1           0      -10.198646    3.277579    4.624617
    373         16           0      -10.030096    1.558676    2.959141
    374          1           0       -9.034495    1.176650    3.757188
    375          1           0      -11.139616    3.946975    1.787807
    376          1           0       -5.458041    4.102761    5.016184
    377          6           0       -4.908890    3.680970    5.854540
    378          1           0       -5.605926    3.497867    6.670295
    379          6           0       -4.198861    2.407367    5.418584
    380          1           0       -3.696429    2.609393    4.473102
    381          1           0       -4.929995    1.615892    5.236569
    382          6           0       -3.151004    1.901380    6.413202
    383          1           0       -2.427420    2.705740    6.589710
    384          6           0       -3.771791    1.506644    7.750412
    385          1           0       -4.246542    2.359139    8.230450
    386          1           0       -4.515411    0.725100    7.604017
    387          1           0       -3.006160    1.124596    8.422416
    388          6           0       -2.417719    0.709720    5.805414
    389          1           0       -2.038219    0.960099    4.818496
    390          1           0       -3.096153   -0.135537    5.709696
    391          1           0       -1.581929    0.401712    6.425497
    392          1           0       -4.183939    4.422530    6.183587
    393          1           0        0.430765    4.203361    6.979785
    394          6           0        1.282193    3.602407    7.292912
    395          1           0        0.908311    2.754202    7.862336
    396          6           0        2.074969    3.124322    6.080339
    397          1           0        2.419935    4.003656    5.525173
    398          6           0        3.296973    2.320524    6.515837
    399          1           0        3.901341    2.048553    5.654875
    400          1           0        3.914872    2.903586    7.196864
    401          1           0        2.989349    1.410358    7.027785
    402          6           0        1.188758    2.288962    5.161613
    403          1           0        1.745228    1.983075    4.279674
    404          1           0        0.323365    2.864398    4.839680
    405          1           0        0.836155    1.399288    5.679810
    406          1           0        1.905618    4.208765    7.947452
    407          1           0        7.465280    3.499936    5.668797
    408          6           0        7.599219    2.459977    5.958496
    409          1           0        6.665457    2.100758    6.383881
    410          6           0        7.976199    1.611498    4.751131
    411          1           0        8.834651    2.029475    4.223170
    412          1           0        8.233768    0.595033    5.063635
    413          6           0        6.833248    1.461104    3.770417
    414          8           0        5.671077    1.621846    4.044940
    415          8           0        7.252484    1.117067    2.562988
    416          1           0        6.479020    0.948262    1.954124
    417          1           0        8.376735    2.411440    6.716911
    418          1           0       13.128485    0.868935    5.392828
    419          6           0       13.847483    1.223407    4.657055
    420          1           0       14.158178    0.378189    4.046321
    421          6           0       13.230702    2.312900    3.787723
    422          1           0       13.966014    2.672806    3.065304
    423          1           0       12.934297    3.160754    4.408568
    424          6           0       12.014662    1.792634    3.040074
    425          1           0       11.242211    1.467114    3.739252
    426          1           0       12.285709    0.961073    2.388059
    427         16           0       11.301407    3.100726    1.978218
    428          6           0       10.179219    2.087891    0.975747
    429          1           0        9.378473    1.689776    1.592627
    430          1           0        9.767390    2.739915    0.213035
    431          1           0       10.744332    1.286382    0.508221
    432          1           0       14.718073    1.605824    5.184010
    433          1           0       12.324933   -3.298694    3.775323
    434          6           0       11.545082   -2.544669    3.852592
    435          1           0       11.981926   -1.634531    4.259910
    436          6           0       10.918491   -2.272824    2.490192
    437          1           0       11.672542   -1.870843    1.807050
    438          1           0       10.546655   -3.202567    2.056484
    439          6           0        9.773775   -1.276314    2.587961
    440          1           0       10.072621   -0.407229    3.171603
    441          1           0        9.442572   -0.950359    1.603743
    442         16           0        8.304341   -1.956669    3.430861
    443          6           0        7.380358   -2.534596    1.982360
    444          1           0        7.992722   -3.230004    1.416719
    445          1           0        7.104933   -1.677009    1.374278
    446          1           0        6.485432   -3.028903    2.346557
    447          1           0       10.783850   -2.899741    4.543723
    448          1           0        6.075362   -2.397615    6.724860
    449          6           0        5.565254   -1.446951    6.583409
    450          1           0        6.295986   -0.649302    6.697926
    451          6           0        4.922890   -1.383996    5.207757
    452          1           0        4.449535   -0.415706    5.064659
    453          1           0        4.176664   -2.165531    5.084921
    454          1           0        5.682320   -1.510323    4.439419
    455          1           0        4.817239   -1.339806    7.367551
    456          1           0        1.297372   -1.358679   10.134392
    457          6           0        0.378594   -0.779544   10.066108
    458          1           0        0.408423    0.008816   10.816606
    459          6           0        0.229889   -0.189211    8.665230
    460          1           0       -0.681049    0.414513    8.627256
    461          1           0        1.079993    0.464410    8.457088
    462          6           0        0.175051   -1.267274    7.633784
    463          6           0        1.188440   -1.663693    6.807533
    464          1           0        2.179223   -1.262003    6.714168
    465          7           0        0.795634   -2.710389    6.028076
    466          1           0        1.394217   -3.173437    5.345609
    467          6           0       -0.490511   -3.023253    6.338408
    468          6           0       -1.331926   -4.007963    5.830784
    469          1           0       -0.989640   -4.701810    5.077181
    470          6           0       -2.611752   -4.086337    6.332684
    471          1           0       -3.287865   -4.837753    5.952520
    472          6           0       -3.054851   -3.206435    7.324853
    473          1           0       -4.068303   -3.299509    7.689794
    474          6           0       -2.228743   -2.235660    7.843304
    475          1           0       -2.582550   -1.563148    8.611237
    476          6           0       -0.926786   -2.130368    7.353916
    477          1           0       -0.456397   -1.440288   10.288058
    478          1           0       -7.949174    1.986768    9.861666
    479          6           0       -7.942226    1.863097    8.780864
    480          1           0       -6.908932    1.776942    8.457669
    481          6           0       -8.743899    0.626770    8.387310
    482          1           0       -9.739831    0.696975    8.833227
    483          1           0       -8.260713   -0.261932    8.800596
    484          6           0       -8.901892    0.446891    6.872873
    485          1           0       -9.360457    1.356325    6.465943
    486          6           0       -7.554509    0.231419    6.188223
    487          1           0       -7.007384   -0.575352    6.671628
    488          1           0       -7.697286   -0.040958    5.143236
    489          1           0       -6.951468    1.133979    6.224993
    490          6           0       -9.829738   -0.731710    6.580735
    491          1           0       -9.399963   -1.653293    6.968192
    492          1           0      -10.801214   -0.582046    7.048017
    493          1           0       -9.977000   -0.850084    5.509370
    494          1           0       -8.371646    2.756539    8.331425
    495          6           0        4.123533    0.305180    0.745498
    496          8           0        5.321983    0.650698    0.768524
    497          6           0        3.382617    0.017488    1.921241
    498          6           0        2.113103   -0.466069    1.904473
    499          6           0        1.338540   -0.576762    0.627935
    500          6           0        1.931405    0.365715   -0.422843
    501          6           0        3.423382    0.109339   -0.570001
    502          6           0        1.521359   -0.996621    3.154479
    503          6           0        0.009607   -0.825623    3.255022
    504          6           0       -0.666810   -1.272600    1.963837
    505          6           0       -0.176468   -0.359937    0.830335
    506          6           0       -2.181758   -1.194855    2.070958
    507          6           0       -2.902706   -1.568864    0.766240
    508          6           0       -2.467002   -0.573843   -0.307330
    509          6           0       -0.944694   -0.589267   -0.477625
    510          6           0       -2.887052   -2.060155    3.112674
    511          6           0       -4.361627   -1.979462    2.682359
    512          6           0       -4.368930   -1.418505    1.242624
    513          6           0       -2.652995   -3.004189    0.295899
    514          8           0       -5.341419   -2.015971    0.414062
    515          1           0        3.912661    0.110677    2.858815
    516          1           0        1.470954   -1.609479    0.270981
    517          1           0        1.765912    1.403304   -0.119513
    518          1           0        1.448701    0.211171   -1.386689
    519          1           0        3.584190   -0.930889   -0.876084
    520          1           0        3.868211    0.759734   -1.327508
    521          1           0        2.016914   -0.561257    4.022825
    522          1           0        1.764088   -2.067478    3.168601
    523          1           0       -0.222540    0.225152    3.442837
    524          1           0       -0.365954   -1.399914    4.100115
    525          1           0       -0.373851   -2.300903    1.754021
    526          1           0       -0.333522    0.679481    1.141199
    527          1           0       -2.445712   -0.153432    2.290181
    528          1           0       -2.798749    0.428551   -0.029033
    529          1           0       -2.922818   -0.810449   -1.269886
    530          1           0       -0.636523   -1.541419   -0.911514
    531          1           0       -0.687884    0.197353   -1.188695
    532          1           0       -2.740561   -1.698674    4.127502
    533          1           0       -2.522597   -3.084769    3.066013
    534          1           0       -4.931239   -1.331665    3.347880
    535          1           0       -4.831571   -2.963344    2.698472
    536          1           0       -4.618448   -0.351620    1.248350
    537          1           0       -3.060751   -3.732284    0.988622
    538          1           0       -3.118649   -3.161310   -0.674191
    539          1           0       -1.593336   -3.201200    0.186395
    540          1           0       -5.472679   -2.944134    0.695926
    541          8           0        0.141689   -4.356645    2.350187
    542          1           0       -0.110838   -4.160499    3.254378
    543          1           0        1.131583   -4.302606    2.337162
    544          8           0       -5.173127   -2.127673   -2.234702
    545          1           0       -4.329716   -1.875385   -2.628108
    546          1           0       -5.122707   -1.967287   -1.265567
    547          8           0        1.320527   -3.740431   -0.152876
    548          1           0        0.547687   -3.960009    0.384092
    549          1           0        2.059090   -3.903017    0.458965
    550          8           0       -7.057905   -4.384377   -1.515880
    551          1           0       -6.945709   -3.428574   -1.475484
    552          1           0       -6.249945   -4.717045   -1.970212
    553          8           0       -4.777845   -4.787977   -2.866929
    554          1           0       -4.702708   -3.825977   -2.732905
    555          1           0       -5.064536   -4.887703   -3.795970
    556          8           0       -3.860985   -5.986658    1.347083
    557          1           0       -3.904499   -6.402073    0.461372
    558          1           0       -4.700536   -5.519395    1.435296
    559          8           0       -6.280707   -4.536358    1.078895
    560          1           0       -6.580897   -4.666863    0.153530
    561          1           0       -7.074050   -4.579966    1.617123
    562          8           0       -5.128136   -2.111922   -5.643923
    563          1           0       -4.383796   -2.110552   -5.027683
    564          1           0       -5.401698   -3.043806   -5.693595
    565          8           0       -7.170226   -1.379958   -3.963917
    566          1           0       -6.588472   -1.472102   -4.743406
    567          1           0       -6.559007   -1.543126   -3.225158
    568          8           0       -1.142638   -6.606251    1.435926
    569          1           0       -0.652822   -5.838355    1.778197
    570          1           0       -2.083480   -6.409415    1.565118
    571          8           0        1.011429   -5.380889   -2.249977
    572          1           0        1.170657   -4.745235   -1.514353
    573          1           0        1.706852   -6.037985   -2.169944
    574          8           0       -3.847416   -6.896303   -1.222080
    575          1           0       -4.147768   -6.189589   -1.808765
    576          1           0       -2.878565   -6.928478   -1.297916
    577          8           0       -5.999887   -4.690876   -5.265873
    578          1           0       -6.898185   -4.472173   -4.894747
    579          1           0       -6.080809   -5.453272   -5.837032
    580          8           0       -8.200045   -3.896313   -4.070926
    581          1           0       -7.993543   -2.935074   -4.061065
    582          1           0       -8.084681   -4.192246   -3.154541
    583          8           0       -1.083884   -6.894427   -1.185134
    584          1           0       -0.377941   -6.337349   -1.551190
    585          1           0       -1.039765   -6.804951   -0.199755
 ---------------------------------------------------------------------
 Rotational constants (GHZ):           0.0035785           0.0023816           0.0022194
 Standard basis: 6-31G(d) (6D, 7F)
 There are  4362 symmetry adapted cartesian basis functions of A   symmetry.
 There are  4362 symmetry adapted basis functions of A   symmetry.
  4362 basis functions,  8316 primitive gaussians,  4362 cartesian basis functions
   976 alpha electrons      976 beta electrons
       nuclear repulsion energy    106401.9452091330 Hartrees.
 NAtoms=  585 NActive=  585 NUniq=  585 SFac= 1.00D+00 NAtFMM=   60 NAOKFM=T Big=T
 Integral buffers will be    131072 words long.
 Raffenetti 2 integral format.
 Two-electron integral symmetry is turned on.
 Nuclear repulsion after empirical dispersion term =   106401.1767155218 Hartrees.
 One-electron integrals computed using PRISM.
 NBasis=  4362 RedAO= T EigKep=  3.28D-04  NBF=  4362
 NBsUse=  4362 1.00D-06 EigRej= -1.00D+00 NBFU=  4362
 ExpMin= 1.17D-01 ExpMax= 2.19D+04 ExpMxC= 3.30D+03 IAcc=3 IRadAn=         5 AccDes= 0.00D+00
 Harris functional with IExCor= 4639 and IRadAn=       5 diagonalized for initial guess.
 HarFok:  IExCor= 4639 AccDes= 0.00D+00 IRadAn=         5 IDoV= 1 UseB2=F ITyADJ=14
 ICtDFT=  3500011 ScaDFX=  1.000000  1.000000  1.000000  1.000000
 FoFCou: FMM=F IPFlag=           0 FMFlag=      100000 FMFlg1=        2001
         NFxFlg=           0 DoJE=T BraDBF=F KetDBF=T FulRan=T
         wScrn=  0.000000 ICntrl=       500 IOpCl=  0 I1Cent=   200000004 NGrid=           0
         NMat0=    1 NMatS0=      1 NMatT0=    0 NMatD0=    1 NMtDS0=    0 NMtDT0=    0
 Petite list used in FoFCou.
 Requested convergence on RMS density matrix=1.00D-08 within 128 cycles.
 Requested convergence on MAX density matrix=1.00D-06.
 Requested convergence on             energy=1.00D-06.
 No special actions if energy rises.
 Integral accuracy reduced to 1.0D-05 until final iterations.
 Initial convergence to 1.0D-05 achieved.  Increase integral accuracy.
 SCF Done:  E(RwB97XD) =  -13048.5546431     A.U. after   15 cycles
            NFock= 15  Conv=0.27D-08     -V/T= 2.0080
 Hyperfine terms turned off by default for NAtoms > 100.

 **********************************************************************

            Population analysis using the SCF Density.

 **********************************************************************

 Orbital symmetries:
       Occupied  (A) (A) (A) (A) (A) (A) (A) (A) (A) (A) (A) (A)
                 (A) (A) (A) (A) (A) (A) (A) (A) (A) (A) (A) (A)
                 (A) (A) (A) (A) (A) (A) (A) (A) (A) (A) (A) (A)
                 (A) (A) (A) (A) (A) (A) (A) (A) (A) (A) (A) (A)
                 (A) (A) (A) (A) (A) (A) (A) (A) (A) (A) (A) (A)
                 (A) (A) (A) (A) (A) (A) (A) (A) (A) (A) (A) (A)
                 (A) (A) (A) (A) (A) (A) (A) (A) (A) (A) (A) (A)
                 (A) (A) (A) (A) (A) (A) (A) (A) (A) (A) (A) (A)
                 (A) (A) (A) (A) (A) (A) (A) (A) (A) (A) (A) (A)
                 (A) (A) (A) (A) (A) (A) (A) (A) (A) (A) (A) (A)
                 (A) (A) (A) (A) (A) (A) (A) (A) (A) (A) (A) (A)
[...]
  541 Atom       -1.341187     -0.093250      1.434436
  542 Atom       -0.477244      0.216018      0.261226
  543 Atom       -0.309775      0.122830      0.186945
  544 Atom       -1.214221     -0.045892      1.260113
  545 Atom       -0.433436      0.193948      0.239488
  546 Atom       -0.331669      0.140914      0.190755
  547 Atom       -1.298007     -0.122620      1.420627
  548 Atom       -0.427484      0.187227      0.240257
  549 Atom       -0.389589      0.167142      0.222447
  550 Atom       -1.301485      0.050623      1.250862
  551 Atom       -0.453795      0.212881      0.240913
  552 Atom       -0.327663      0.143503      0.184160
  553 Atom       -1.132584     -0.098946      1.231530
  554 Atom       -0.384249      0.168352      0.215897
  555 Atom       -0.357198      0.155874      0.201324
  556 Atom       -1.312882     -0.180524      1.493406
  557 Atom       -0.347899      0.140347      0.207551
  558 Atom       -0.420312      0.183323      0.236989
  559 Atom       -1.328763     -0.106983      1.435745
  560 Atom       -0.346227      0.148201      0.198026
  561 Atom       -0.464629      0.208180      0.256450
  562 Atom       -1.295075     -0.096613      1.391688
  563 Atom       -0.419782      0.187637      0.232145
  564 Atom       -0.380408      0.166626      0.213782
  565 Atom       -1.226651     -0.047469      1.274119
  566 Atom       -0.366552      0.162808      0.203744
  567 Atom       -0.383863      0.168364      0.215499
  568 Atom       -1.258028     -0.105073      1.363101
  569 Atom       -0.378167      0.164579      0.213588
  570 Atom       -0.393421      0.169815      0.223606
  571 Atom       -1.308268     -0.065461      1.373729
  572 Atom       -0.330522      0.140667      0.189854
  573 Atom       -0.463124      0.207869      0.255255
  574 Atom       -1.311458     -0.076802      1.388260
  575 Atom       -0.412617      0.182792      0.229824
  576 Atom       -0.380276      0.164128      0.216148
  577 Atom       -1.329502     -0.007992      1.337494
  578 Atom       -0.285316      0.120369      0.164948
  579 Atom       -0.489147      0.225702      0.263445
  580 Atom       -1.246201     -0.071987      1.318188
  581 Atom       -0.334745      0.142250      0.192495
  582 Atom       -0.403527      0.177728      0.225799
  583 Atom       -1.158549     -0.084768      1.243317
  584 Atom       -0.384163      0.169913      0.214250
  585 Atom       -0.304657      0.126218      0.178439
 -----------------------------------------------------
 Unable to Open any file for archive entry.
 1\1\GINC-EXP-14-07\SP\RwB97XD\6-31G(d)\C182H341N18O39S5(1-)\HKLEM\11-J
 ul-2024\0\\# wb97xd/6-31G(d) prop=efg\\19nt_mm_min_distance_cutoff6_xt
 b_conf_1\\-1,1\H,0,46.9997,33.7602,30.901\C,0,46.354,34.588,30.601\H,0
 ,45.8613,34.3393,29.661\C,0,45.2951,34.8545,31.6824\H,0,44.6692,33.965
 4,31.7865\H,0,45.7857,35.039,32.6413\C,0,44.4521,36.0428,31.3125\C,0,4
 3.2906,35.9093,30.5642\H,0,42.9546,34.9247,30.2708\C,0,42.5494,37.0164
 ,30.1961\H,0,41.6446,36.9089,29.6179\C,0,42.9704,38.2869,30.5718\O,0,4
 2.246,39.3708,30.1825\H,0,42.565,40.1705,30.687\C,0,44.128,38.4316,31.
 3262\H,0,44.4488,39.4169,31.6305\C,0,44.8563,37.3167,31.6861\H,0,45.75
 69,37.4363,32.2674\C,0,47.2073,35.8418,30.3328\O,0,47.0653,36.5148,29.
 3301\N,0,48.1255,36.1474,31.2778\H,0,48.2302,35.5389,32.0747\C,0,49.06
 ,37.273,31.205\H,0,48.5762,38.0673,30.6371\C,0,49.4677,37.7317,32.6057
 \H,0,49.7938,36.8429,33.163\C,0,50.6586,38.6826,32.5182\H,0,50.9317,39
 .0324,33.5104\H,0,50.4145,39.5417,31.9039\H,0,51.5193,38.1809,32.0802\
 C,0,48.3032,38.3536,33.3871\H,0,47.5462,37.5865,33.5627\H,0,48.6692,38
 .6557,34.3696\C,0,47.6493,39.5562,32.7204\H,0,46.8652,39.9409,33.3668\
 H,0,47.2051,39.2917,31.7649\H,0,48.3667,40.3565,32.5647\H,0,49.9526,36
 .955,30.6499\H,0,47.9848,38.2102,26.9234\C,0,48.062,39.251,26.619\H,0,
 47.2104,39.4838,25.9845\C,0,48.0682,40.154,27.8509\H,0,48.9337,39.8883
 ,28.4683\C,0,48.1839,41.6202,27.442\H,0,49.1056,41.8021,26.8916\H,0,47
 .3486,41.8896,26.8043\H,0,48.1656,42.2696,28.3148\C,0,46.8055,39.9328,
 28.6783\H,0,46.8132,40.566,29.5639\H,0,46.7315,38.8934,28.9874\H,0,45.
 9237,40.1723,28.0878\H,0,48.9729,39.3818,26.0377\H,0,43.422,34.4516,24
 .6764\C,0,42.527,34.831,25.165\H,0,42.2341,34.124,25.9391\C,0,42.7846,
 36.2071,25.7759\H,0,43.1017,36.8878,24.9771\C,0,41.4985,36.7532,26.390
 8\H,0,41.1468,36.0905,27.1793\H,0,40.7178,36.8347,25.6363\H,0,41.6609,
 37.7416,26.8104\C,0,43.9129,36.1142,26.8086\H,0,43.5543,35.5707,27.685
 \H,0,44.7347,35.5378,26.3765\C,0,44.457,37.4654,27.2497\H,0,45.2931,37
 .3159,27.9269\H,0,44.8016,38.0367,26.3901\H,0,43.6983,38.0429,27.7695\
 H,0,41.7287,34.8801,24.4267\H,0,37.8561,33.1024,28.1122\C,0,36.813,32.
 932,28.368\H,0,36.7358,32.858,29.4507\C,0,35.9453,34.0811,27.8536\H,0,
 36.0269,34.1326,26.7651\H,0,34.9008,33.8889,28.1076\C,0,36.3894,35.382
 3,28.4596\C,0,37.5123,36.0352,27.9697\H,0,38.0442,35.6225,27.1237\C,0,
 37.9612,37.2087,28.5415\H,0,38.8372,37.7003,28.1462\C,0,37.285,37.7637
 ,29.624\O,0,37.6787,38.9218,30.2048\H,0,38.4488,39.2807,29.7261\C,0,36
 .1626,37.1112,30.1266\H,0,35.6425,37.5431,30.9675\C,0,35.7284,35.9346,
 29.5486\H,0,34.8546,35.4394,29.9488\H,0,36.4982,31.986,27.9317\H,0,36.
 125,46.38,32.5384\C,0,37.164,46.712,32.465\H,0,37.6195,46.6791,33.4522
 \C,0,37.9313,45.7935,31.5149\H,0,37.45,45.7679,30.5364\H,0,37.9673,44.
 7776,31.9171\C,0,39.3684,46.3032,31.3304\O,0,39.8704,46.9899,32.2344\O
 ,0,39.9588,46.0111,30.2604\C,0,37.1655,48.1218,31.8963\O,0,36.8304,48.
 3418,30.7428\N,0,37.5295,49.1348,32.7092\C,0,37.5137,50.5007,32.2107\H
 ,0,38.4117,50.6925,31.6135\H,0,36.6433,50.6441,31.5675\C,0,37.5033,51.
 3532,33.4724\H,0,37.9159,52.3455,33.304\H,0,36.4849,51.4531,33.8519\C,
 0,38.3491,50.52,34.4331\H,0,38.165,50.7605,35.4789\H,0,39.4066,50.676,
 34.2222\C,0,37.95,49.082,34.098\H,0,38.7856,48.3899,34.2229\H,0,37.116
 1,48.7504,34.7307\H,0,36.8252,43.949,22.2309\C,0,37.317,44.529,23.018\
 H,0,37.1523,45.583,22.7919\C,0,36.7058,44.1722,24.3722\H,0,36.8305,43.
 1073,24.586\H,0,35.6298,44.3604,24.3045\C,0,37.2627,44.9935,25.5048\C,
 0,37.142,46.3805,25.4883\H,0,36.6744,46.8691,24.6461\C,0,37.5958,47.14
 05,26.5515\H,0,37.4929,48.2135,26.5357\C,0,38.1682,46.5225,27.6506\H,0
 ,38.4892,47.1108,28.4937\C,0,38.3051,45.1447,27.6711\H,0,38.7491,44.66
 49,28.5297\C,0,37.8622,44.3846,26.6005\H,0,37.9629,43.307,26.631\C,0,3
 8.8217,44.2785,22.8374\O,0,39.4739,44.9763,22.0762\N,0,39.3802,43.2292
 ,23.471\H,0,38.8781,42.7506,24.2021\C,0,40.763,42.802,23.272\H,0,41.40
 97,43.2986,24.0047\C,0,40.8677,41.2822,23.4244\H,0,40.143,40.8065,22.7
 609\H,0,41.8686,40.9749,23.1173\C,0,40.6247,40.8668,24.8496\C,0,39.350
 6,40.5465,25.3033\H,0,38.5194,40.532,24.6108\C,0,39.1247,40.2103,26.62
 46\H,0,38.1321,39.9647,26.9701\C,0,40.1879,40.169,27.5219\O,0,39.9432,
 39.805,28.8072\H,0,40.7838,39.6722,29.2961\C,0,41.4677,40.4802,27.0766
 \H,0,42.2953,40.4319,27.7692\C,0,41.6747,40.8348,25.7583\H,0,42.6722,4
 1.0784,25.426\H,0,41.0531,43.1242,22.2696\H,0,40.3967,46.3272,20.4579\
 C,0,40.928,47.267,20.313\H,0,41.2494,47.356,19.2755\C,0,40.0067,48.434
 1,20.6806\H,0,39.1902,48.4757,19.9567\H,0,40.5546,49.3766,20.6181\C,0,
 39.4047,48.2758,22.072\H,0,39.0895,47.2372,22.2021\H,0,40.1313,48.5192
 ,22.8423\C,0,38.1693,49.1349,22.2891\O,0,37.4025,49.4609,21.4027\N,0,3
 7.9741,49.4356,23.5864\H,0,38.6987,49.2389,24.2714\H,0,37.2152,50.0458
 ,23.8395\C,0,42.2062,47.2527,21.1788\O,0,43.2957,47.5846,20.7278\N,0,4
 2.086,46.8175,22.4591\H,0,41.1788,46.4796,22.7488\C,0,43.019,47.115,23
 .555\H,0,42.6173,46.6393,24.4503\H,0,43.0651,48.1966,23.7216\C,0,44.46
 15,46.6492,23.3772\O,0,45.3787,47.2625,23.9209\N,0,44.6804,45.5359,22.
 6676\H,0,43.8859,45.0914,22.2313\C,0,45.983,44.912,22.455\H,0,46.7249,
 45.478,23.0187\C,0,45.9452,43.4463,22.8926\H,0,45.3255,42.89,22.1837\H
 ,0,46.96,43.0556,22.8131\C,0,45.4056,43.2231,24.3078\H,0,44.3606,43.55
 21,24.3468\C,0,45.4517,41.7291,24.6233\H,0,45.065,41.5335,25.6216\H,0,
 44.8587,41.1645,23.9062\H,0,46.476,41.3666,24.5719\C,0,46.1959,44.0196
 ,25.3408\H,0,47.2601,43.8178,25.249\H,0,46.0301,45.0855,25.2187\H,0,45
 .8768,43.7478,26.3439\C,0,46.3846,44.9389,20.9468\O,0,47.2818,44.2159,
 20.5545\N,0,45.6554,45.721,20.1309\H,0,44.9851,46.3887,20.5\C,0,45.882
 ,45.789,18.692\H,0,46.5958,45.0106,18.4302\H,0,44.939,45.6296,18.1704\
 H,0,46.2875,46.7635,18.4196\H,0,51.3182,46.2497,23.646\C,0,51.26,46.16
 9,24.731\H,0,51.5852,47.0974,25.1973\C,0,49.8065,45.8703,25.1407\H,0,4
 9.5466,44.8711,24.7713\C,0,49.6274,45.9126,26.6555\H,0,50.203,45.1377,
 27.1538\H,0,49.9397,46.8784,27.0462\H,0,48.5801,45.7689,26.9093\C,0,48
 .8843,46.8925,24.4819\H,0,49.1374,47.8944,24.8172\H,0,48.9673,46.8582,
 23.3986\H,0,47.8529,46.6921,24.7586\C,0,52.2108,45.0575,25.1581\O,0,52
 .5132,44.1494,24.3608\N,0,52.718,45.1084,26.3911\H,0,52.4928,45.9193,2
 6.97\C,0,53.485,44.06,27.077\H,0,53.3989,43.1427,26.4864\C,0,54.9516,4
 4.4554,27.3181\H,0,55.573,43.5604,27.2461\H,0,55.0941,44.8567,28.33\C,
 0,55.49,45.5505,26.4009\H,0,56.462,45.8308,26.8086\H,0,54.8477,46.4281
 ,26.4643\C,0,55.6146,45.1695,24.9243\H,0,54.6404,45.0676,24.4541\H,0,5
 6.1636,45.9521,24.3946\N,0,56.3503,43.9306,24.7471\H,0,57.3036,43.9693
 ,25.0798\C,0,55.8259,42.727,24.5462\N,0,54.5478,42.5251,24.2998\H,0,53
 .7654,43.2529,24.3453\H,0,54.247,41.5935,24.0687\N,0,56.6682,41.6666,2
 4.5821\H,0,57.659,41.8026,24.674\H,0,56.35,40.7578,24.2972\C,0,52.7698
 ,43.8762,28.4348\O,0,52.1467,44.7931,28.9278\N,0,52.8631,42.6662,29.01
 52\H,0,53.3789,41.9284,28.5647\C,0,52.152,42.334,30.246\H,0,51.8802,43
 .2824,30.7113\C,0,50.9027,41.5176,29.9494\H,0,50.2976,41.4289,30.8467\
 H,0,51.1607,40.522,29.5943\H,0,50.3096,42.0168,29.1891\H,0,52.8301,41.
 793,30.9094\H,0,45.537,38.045,40.5201\C,0,46.435,38.561,40.187\H,0,47.
 2432,38.3254,40.8751\C,0,46.8015,38.135,38.7699\H,0,46.9973,37.0611,38
 .7437\H,0,47.7141,38.6445,38.4532\C,0,45.6866,38.4595,37.7906\H,0,45.4
 997,39.5343,37.758\H,0,44.7656,37.9386,38.0601\S,0,46.1372,37.9348,36.
 1001\C,0,44.6295,38.4788,35.2587\H,0,43.7768,37.9717,35.701\H,0,44.537
 9,39.5574,35.3438\H,0,44.7186,38.2001,34.2152\H,0,46.2491,39.6323,40.2
 279\H,0,49.4436,42.6552,37.9301\C,0,50.213,42.685,37.162\H,0,51.1748,4
 2.4724,37.624\C,0,49.9074,41.6687,36.0597\H,0,50.6959,41.7077,35.3049\
 H,0,49.8968,40.6638,36.4903\C,0,48.576,41.9593,35.4259\C,0,48.4871,42.
 6219,34.2098\H,0,49.3941,42.9175,33.6986\C,0,47.2534,42.9038,33.6472\H
 ,0,47.1961,43.4122,32.6957\C,0,46.0926,42.5396,34.3038\H,0,45.1252,42.
 7545,33.8789\C,0,46.1723,41.9028,35.5306\H,0,45.2615,41.6606,36.0572\C
 ,0,47.4035,41.6062,36.0825\H,0,47.4645,41.098,37.0349\H,0,50.2414,43.6
 904,36.748\H,0,50.6562,46.4247,32.4281\C,0,50.84,46.417,31.354\H,0,51.
 4598,45.5633,31.0888\C,0,49.5122,46.3646,30.5865\H,0,49.695,46.6929,29
 .5585\C,0,48.9725,44.9384,30.5433\H,0,48.8532,44.5464,31.5513\H,0,49.6
 591,44.2989,29.9961\H,0,48.0068,44.9146,30.042\C,0,48.5099,47.3127,31.
 2298\H,0,48.2583,46.9795,32.236\H,0,47.5983,47.3638,30.6419\H,0,48.937
 4,48.3094,31.2868\C,0,51.5914,47.7075,30.9797\O,0,51.441,48.7531,31.59
 38\N,0,52.396,47.6024,29.9034\H,0,52.4434,46.7109,29.4266\C,0,53.236,4
 8.657,29.347\H,0,53.1211,49.5416,29.9759\C,0,54.7033,48.1853,29.2649\H
 ,0,55.3099,48.9984,28.8576\H,0,54.7397,47.3501,28.5592\C,0,55.3076,47.
 6885,30.5654\H,0,54.588,47.0685,31.1053\H,0,55.624,48.5052,31.2135\C,0
 ,56.5616,46.7645,30.2475\O,0,56.3734,45.8993,29.3702\O,0,57.5815,46.98
 79,30.8952\C,0,52.818,48.9069,27.8924\O,0,52.5885,47.9688,27.1372\N,0,
 52.7936,50.1882,27.4766\H,0,53.113,50.9327,28.0825\C,0,52.401,50.618,2
 6.143\H,0,53.0938,50.1875,25.4037\C,0,50.9759,50.1496,25.8064\H,0,50.9
 733,49.0609,25.8679\H,0,50.7293,50.4158,24.7765\C,0,49.8989,50.6801,26
 .7494\H,0,50.0819,51.7105,27.0474\H,0,48.9235,50.6232,26.269\S,0,49.77
 41,49.6689,28.282\C,0,50.185,50.8964,29.5485\H,0,51.0093,51.5061,29.19
 3\H,0,49.3128,51.5127,29.7528\H,0,50.4802,50.3482,30.4398\C,0,52.59,52
 .1657,26.0715\O,0,53.3488,52.7144,26.8518\N,0,51.9396,52.8278,25.0916\
 H,0,51.2175,52.3641,24.5601\C,0,52.113,54.245,24.763\H,0,52.9506,54.60
 55,25.3679\C,0,52.4128,54.4034,23.2635\H,0,51.5499,54.0147,22.7125\C,0
 ,52.5975,55.8777,22.9126\H,0,53.4183,56.3064,23.4846\H,0,52.8269,55.98
 11,21.8548\H,0,51.6934,56.443,23.1224\C,0,53.6567,53.6052,22.8811\H,0,
 54.5215,53.964,23.4354\H,0,53.524,52.5488,23.0993\H,0,53.8581,53.7133,
 21.8182\C,0,50.8106,55.0255,25.1029\O,0,49.7349,54.6185,24.7179\N,0,50
 .9726,56.1987,25.7609\H,0,51.8542,56.3735,26.2164\C,0,49.863,57.09,26.
 119\H,0,49.1224,56.9972,25.3225\C,0,49.2159,56.6987,27.4559\H,0,49.184
 ,55.6075,27.5018\H,0,49.8225,57.0555,28.2892\C,0,47.8259,57.2282,27.55
 51\C,0,47.3451,58.1948,28.3865\H,0,47.8586,58.7592,29.1414\N,0,46.0082
 ,58.3934,28.1565\H,0,45.4208,59.04,28.6535\C,0,45.5994,57.5524,27.1611
 \C,0,44.3511,57.3839,26.574\H,0,43.4995,57.9648,26.897\C,0,44.243,56.4
 512,25.5646\H,0,43.2888,56.2941,25.0847\C,0,45.3465,55.6977,25.1488\H,
 0,45.2205,54.9829,24.3499\C,0,46.5851,55.8513,25.7334\H,0,47.4263,55.2
 583,25.4084\C,0,46.7232,56.7961,26.7518\H,0,50.2438,58.1113,26.1449\H,
 0,53.8943,55.4868,29.6398\C,0,53.834,54.416,29.825\H,0,54.6589,54.1246
 ,30.4714\C,0,52.5141,54.0661,30.4823\H,0,52.4568,53.0037,30.7193\H,0,5
 2.3528,54.6501,31.3888\S,0,51.1391,54.4538,29.3284\H,0,50.1594,54.1529
 ,30.1791\H,0,53.9297,53.894,28.8743\H,0,50.5474,50.6743,33.4482\C,0,49
 .755,50.767,34.187\H,0,49.8041,51.7614,34.627\C,0,48.4062,50.5018,33.5
 338\H,0,48.4969,49.5997,32.9295\H,0,48.1506,51.3221,32.8586\C,0,47.258
 8,50.2942,34.5256\H,0,47.5301,49.4725,35.1986\C,0,46.9932,51.5404,35.3
 657\H,0,47.8603,51.8006,35.9682\H,0,46.7456,52.3826,34.7218\H,0,46.154
 8,51.3694,36.0377\C,0,45.9992,49.9022,33.7595\H,0,46.2011,49.062,33.10
 07\H,0,45.6553,50.7392,33.1553\H,0,45.1968,49.6226,34.4347\H,0,49.9442
 ,50.0362,34.9705\H,0,47.2512,46.7507,36.9531\C,0,46.253,46.438,37.253\
 H,0,45.6256,47.3241,37.3214\C,0,45.6753,45.4508,36.2435\H,0,46.3409,44
 .5821,36.1908\C,0,44.2945,44.9728,36.6839\H,0,43.9197,44.2119,36.0049\
 H,0,44.3392,44.546,37.6846\H,0,43.5921,45.8044,36.6981\C,0,45.601,46.0
 882,34.8595\H,0,45.2262,45.37,34.1351\H,0,46.5866,46.4183,34.5381\H,0,
 44.9376,46.9508,34.8736\H,0,46.3194,45.9859,38.2409\H,0,43.3121,40.772
 8,37.621\C,0,42.317,41.201,37.522\H,0,42.413,42.2832,37.4829\C,0,41.64
 03,40.697,36.254\H,0,41.6514,39.6072,36.203\H,0,40.5974,41.0263,36.220
 5\C,0,42.2833,41.2452,34.9983\O,0,42.9605,42.2409,34.9556\O,0,42.008,4
 0.509,33.9333\H,0,42.3766,40.9305,33.1063\H,0,41.7359,40.9276,38.3993\
 H,0,38.2627,37.1151,38.0626\C,0,38.331,36.071,37.764\H,0,37.5785,35.88
 26,37.001\C,0,39.7237,35.757,37.2302\H,0,39.7857,34.7035,36.9502\H,0,4
 0.4692,35.9373,38.0073\C,0,40.05,36.6123,36.0176\H,0,40.0402,37.672,36
 .2792\H,0,39.337,36.4323,35.2118\S,0,41.7116,36.2053,35.3689\C,0,41.62
 49,37.0658,33.7745\H,0,41.5842,38.1405,33.9281\H,0,42.5259,36.8053,33.
 2297\H,0,40.752,36.7182,33.229\H,0,38.1073,35.4511,38.6286\H,0,35.4836
 ,38.6858,34.8314\C,0,36.5,39.053,34.953\H,0,36.9631,38.523,35.7835\C,0
 ,37.305,38.8503,33.6749\H,0,37.3853,37.7825,33.4508\H,0,36.7972,39.323
 9,32.8331\C,0,38.7074,39.4257,33.798\H,0,39.1734,39.101,34.7268\H,0,39
 .3355,39.1304,32.9596\S,0,38.7293,41.2505,33.8452\C,0,38.99,41.5834,32
 .0825\H,0,38.2004,41.1127,31.505\H,0,39.9645,41.2004,31.7914\H,0,38.96
 44,42.6603,31.9502\H,0,36.4612,40.1117,35.1997\H,0,38.8784,44.6762,35.
 9081\C,0,39.963,44.652,35.992\H,0,40.2367,43.7998,36.6102\C,0,40.6034,
 44.5382,34.6187\H,0,41.6843,44.4767,34.7187\H,0,40.3527,45.3929,33.994
 7\H,0,40.254,43.6359,34.1219\H,0,40.2875,45.5596,36.4988\H,0,41.5498,4
 9.6283,37.8763\C,0,42.518,50.112,37.763\H,0,43.0224,50.1097,38.728\C,0
 ,43.353,49.3817,36.713\H,0,44.3321,49.8628,36.6379\H,0,43.5057,48.3473
 ,37.0291\C,0,42.6714,49.3939,35.3847\C,0,41.9766,48.3672,34.8103\H,0,4
 1.8245,47.3689,35.1736\N,0,41.4466,48.751,33.6148\H,0,40.8809,48.1486,
 33.0185\C,0,41.7833,50.0485,33.3879\C,0,41.4834,50.8899,32.3214\H,0,40
 .8686,50.5535,31.4996\C,0,41.9774,52.1748,32.353\H,0,41.7646,52.8475,3
 1.5354\C,0,42.7548,52.6248,33.4245\H,0,43.1261,53.6401,33.4093\C,0,43.
 0488,51.806,34.4907\H,0,43.6489,52.1664,35.3136\C,0,42.5637,50.4982,34
 .4868\H,0,42.349,51.1431,37.4608\H,0,49.1336,55.6542,36.1618\C,0,49.23
 ,55.22,35.169\H,0,48.6904,54.2775,35.159\C,0,48.6773,56.1785,34.1193\H
 ,0,49.1613,57.1513,34.242\H,0,47.6072,56.3201,34.2893\C,0,48.8926,55.7
 08,32.676\H,0,49.9663,55.5412,32.5267\C,0,48.1521,54.4033,32.3931\H,0,
 47.1048,54.4921,32.6745\H,0,48.1936,54.1641,31.3312\H,0,48.5937,53.578
 6,32.9449\C,0,48.4337,56.7904,31.6997\H,0,47.3682,56.9766,31.8188\H,0,
 48.9678,57.7217,31.8784\H,0,48.6116,56.4827,30.6715\H,0,50.2834,55.017
 2,34.985\C,0,43.2693,42.5498,31.1054\O,0,42.942,41.4574,31.6111\C,0,43
 .1853,43.7796,31.8087\C,0,43.432,44.9863,31.2353\C,0,43.9757,45.0911,2
 9.8442\C,0,44.6609,43.7788,29.454\C,0,43.7109,42.6108,29.67\C,0,43.054
 1,46.2239,31.9562\C,0,43.9514,47.4208,31.6612\C,0,44.1657,47.572,30.15
 93\C,0,44.8939,46.3176,29.6549\C,0,44.9852,48.811,29.8339\C,0,45.286,4
 8.9635,28.3345\C,0,46.0999,47.7473,27.8976\C,0,45.3408,46.45,28.1933\C
 ,0,44.4239,50.1797,30.212\C,0,45.3265,51.1477,29.4282\C,0,46.0719,50.2
 977,28.3749\C,0,44.0434,49.118,27.4537\O,0,46.2242,50.9511,27.1343\H,0
 ,42.8158,43.7293,32.8234\H,0,43.1093,45.2322,29.1802\H,0,45.5584,43.63
 88,30.063\H,0,44.9597,43.8034,28.4071\H,0,42.8141,42.7544,29.0562\H,0,
 44.1716,41.6621,29.3829\H,0,43.0022,46.0365,33.0292\H,0,42.0294,46.454
 8,31.636\H,0,44.9158,47.2784,32.1541\H,0,43.5026,48.3224,32.0744\H,0,4
 3.1932,47.6468,29.6736\H,0,45.7872,46.1734,30.2737\H,0,45.9521,48.7118
 ,30.3414\H,0,47.0576,47.7442,28.4221\H,0,46.3159,47.783,26.8288\H,0,44
 .4666,46.3837,27.5443\H,0,46.0031,45.62,27.9427\H,0,44.4609,50.3676,31
 .2822\H,0,43.3872,50.2674,29.892\H,0,46.0355,51.6467,30.088\H,0,44.738
 7,51.9203,28.9315\H,0,47.093,50.0826,28.709\H,0,43.5108,50.0387,27.665
 6\H,0,44.3325,49.1271,26.4054\H,0,43.3571,48.2921,27.5971\H,0,45.4599,
 51.5459,26.9921\O,0,41.0935,48.3013,29.5728\H,0,41.2167,48.8272,30.365
 3\H,0,40.6352,47.4757,29.875\O,0,46.5436,49.6898,24.8183\H,0,46.3981,4
 8.7366,24.8183\H,0,46.4697,50.014,25.744\O,0,41.4792,46.0032,27.9589\H
 ,0,41.589,46.95,28.1181\H,0,40.85,45.7413,28.653\O,0,45.4794,52.4139,2
 4.0382\H,0,46.2159,51.9659,24.4679\H,0,44.873,51.6921,23.7533\O,0,44.2
 299,50.1364,23.3759\H,0,44.9729,49.7572,23.8791\H,0,44.4679,49.9967,22
 .4383\O,0,41.962,51.7278,26.8915\H,0,41.8028,51.535,25.9447\H,0,42.766
 4,52.2606,26.8967\O,0,44.4657,52.9921,26.4873\H,0,44.6841,52.877,25.53
 73\H,0,44.7333,53.8869,26.708\O,0,47.1762,48.1422,21.8468\H,0,46.6807,
 47.8132,22.6084\H,0,46.544,48.7069,21.3702\O,0,48.5174,50.244,22.9922\
 H,0,48.2896,49.4667,22.4459\H,0,47.9289,50.1411,23.7597\O,0,40.036,49.
 8172,27.5406\H,0,40.365,49.2716,28.276\H,0,40.6577,50.556,27.4496\O,0,
 40.6568,45.9709,25.408\H,0,40.9698,45.9176,26.3406\H,0,39.7352,45.7032
 ,25.436\O,0,41.6764,50.9398,24.2981\H,0,42.5331,50.6456,23.9614\H,0,41
 .1684,50.1373,24.5064\O,0,45.3881,50.0251,20.9461\H,0,45.9608,50.8278,
 21.0882\H,0,44.8978,50.1376,20.1331\O,0,46.954,52.0157,21.6428\H,0,47.
 6526,51.476,22.0757\H,0,46.4742,52.4434,22.3691\O,0,40.2582,48.7258,25
 .1498\H,0,40.4334,47.7759,25.2482\H,0,40.125,49.0901,26.0611\\Version=
 ES64L-G16RevC.01\State=1-A\HF=-13048.5546431\RMSD=2.708e-09\Dipole=4.9
 71843,-6.3118736,-1.7408877\Quadrupole=-88.8329802,101.5384544,-12.705
 4743,-66.4443534,-142.466563,66.7361432\PG=C01 [X(C182H341N18O39S5)]\\
 @
 The archive entry for this job was punched.


 DIATOMIC MOLECULES ARE PECULIAR BECAUSE THEY ONLY HAVE TWO ENDS,
 AND THESE ENDS ARE VERY CLOSE TOGETHER.
 KLAUS RUEDENBERG, REV.MOD.PHYS. PG 176, 32, (1960)
 Job cpu time:       0 days 15 hours 22 minutes 40.1 seconds.
 Elapsed time:       0 days  0 hours 29 minutes 37.6 seconds.
 File lengths (MBytes):  RWF=  10192 Int=      0 D2E=      0 Chk=   1092 Scr=      1
 Normal termination of Gaussian 16 at Thu Jul 11 12:21:01 2024.
