 Entering Gaussian System, Link 0=g16
 Initial command:
 /cm/shared/apps/spack/cpu/opt/spack/linux-centos8-zen/gcc-8.3.1/gaussian-16.C.01-po5bqktfeugvmjyga3v7eigbecnokxng/g16/l1.exe "/scratch/hklem/job_32333403/Gau-962477.inp" -scrdir="/scratch/hklem/job_32333403/"
 Entering Link 1 = /cm/shared/apps/spack/cpu/opt/spack/linux-centos8-zen/gcc-8.3.1/gaussian-16.C.01-po5bqktfeugvmjyga3v7eigbecnokxng/g16/l1.exe PID=    962479.
  
 Copyright (c) 1988-2019, Gaussian, Inc.  All Rights Reserved.
  
 This is part of the Gaussian(R) 16 program.  It is based on
 the Gaussian(R) 09 system (copyright 2009, Gaussian, Inc.),
 the Gaussian(R) 03 system (copyright 2003, Gaussian, Inc.),
 the Gaussian(R) 98 system (copyright 1998, Gaussian, Inc.),
 the Gaussian(R) 94 system (copyright 1995, Gaussian, Inc.),
 the Gaussian 92(TM) system (copyright 1992, Gaussian, Inc.),
 the Gaussian 90(TM) system (copyright 1990, Gaussian, Inc.),
 the Gaussian 88(TM) system (copyright 1988, Gaussian, Inc.),
 the Gaussian 86(TM) system (copyright 1986, Carnegie Mellon
 University), and the Gaussian 82(TM) system (copyright 1983,
 Carnegie Mellon University). Gaussian is a federally registered
 trademark of Gaussian, Inc.
  
 This software contains proprietary and confidential information,
 including trade secrets, belonging to Gaussian, Inc.
  
 This software is provided under written license and may be
 used, copied, transmitted, or stored only in accord with that
 written license.
  
 The following legend is applicable only to US Government
 contracts under FAR:
  
                    RESTRICTED RIGHTS LEGEND
  
 Use, reproduction and disclosure by the US Government is
 subject to restrictions as set forth in subparagraphs (a)
 and (c) of the Commercial Computer Software - Restricted
 Rights clause in FAR 52.227-19.
  
 Gaussian, Inc.
 340 Quinnipiac St., Bldg. 40, Wallingford CT 06492
  
  
 ---------------------------------------------------------------
 Warning -- This program may not be used in any manner that
 competes with the business of Gaussian, Inc. or will provide
 assistance to any competitor of Gaussian, Inc.  The licensee
 of this program is prohibited from giving any competitor of
 Gaussian, Inc. access to this program.  By using this program,
 the user acknowledges that Gaussian, Inc. is engaged in the
 business of creating and licensing software in the field of
 computational chemistry and represents and warrants to the
 licensee that it is not a competitor of Gaussian, Inc. and that
 it will not use this program in any manner prohibited above.
 ---------------------------------------------------------------
  

 Cite this work as:
 Gaussian 16, Revision C.01,
 M. J. Frisch, G. W. Trucks, H. B. Schlegel, G. E. Scuseria, 
 M. A. Robb, J. R. Cheeseman, G. Scalmani, V. Barone, 
 G. A. Petersson, H. Nakatsuji, X. Li, M. Caricato, A. V. Marenich, 
 J. Bloino, B. G. Janesko, R. Gomperts, B. Mennucci, H. P. Hratchian, 
 J. V. Ortiz, A. F. Izmaylov, J. L. Sonnenberg, D. Williams-Young, 
 F. Ding, F. Lipparini, F. Egidi, J. Goings, B. Peng, A. Petrone, 
 T. Henderson, D. Ranasinghe, V. G. Zakrzewski, J. Gao, N. Rega, 
 G. Zheng, W. Liang, M. Hada, M. Ehara, K. Toyota, R. Fukuda, 
 J. Hasegawa, M. Ishida, T. Nakajima, Y. Honda, O. Kitao, H. Nakai, 
 T. Vreven, K. Throssell, J. A. Montgomery, Jr., J. E. Peralta, 
 F. Ogliaro, M. J. Bearpark, J. J. Heyd, E. N. Brothers, K. N. Kudin, 
 V. N. Staroverov, T. A. Keith, R. Kobayashi, J. Normand, 
 K. Raghavachari, A. P. Rendell, J. C. Burant, S. S. Iyengar, 
 J. Tomasi, M. Cossi, J. M. Millam, M. Klene, C. Adamo, R. Cammi, 
 J. W. Ochterski, R. L. Martin, K. Morokuma, O. Farkas, 
 J. B. Foresman, and D. J. Fox, Gaussian, Inc., Wallingford CT, 2019.
 
 ******************************************
 Gaussian 16:  ES64L-G16RevC.01  3-Jul-2019
                16-Jul-2024 
 ******************************************
 %nprocshared=32
 Will use up to   32 processors via shared memory.
 %mem=64GB
 --------------------------
 # 6-31G(d) wb97xd prop=efg
 --------------------------
 1/38=1,172=1/1;
 2/12=2,17=6,18=5,40=1/2;
 3/5=1,6=6,7=1,11=2,25=1,30=1,74=-58/1,2,3;
 4//1;
 5/5=2,38=5/2;
 6/7=2,8=2,9=2,10=2,14=1,28=1/1,2;
 99/5=1,9=1/99;
 ----------------------------------
 19nt_mm_min_distance_cutoff3_nowat
 ----------------------------------
 Symbolic Z-matrix:
 Charge = -1 Multiplicity = 1
 H                    0    -8.21869   6.7859   -4.34077 
 C                    -1   -7.63977   6.32158  -3.534 
 H                    0    -6.86215   7.02569  -3.21823 
 C                    0    -8.53292   5.94055  -2.35026 
 H                    0    -9.04448   6.83594  -1.97622 
 H                    0    -9.31843   5.2569   -2.69713 
 C                    0    -7.75348   5.29609  -1.22905 
 C                    0    -7.39865   6.00743  -0.08176 
 H                    0    -7.70974   7.04545   0.01977 
 C                    0    -6.66564   5.4177    0.94045 
 H                    0    -6.40233   5.971     1.83645 
 C                    0    -6.26455   4.08409   0.83421 
 O                    0    -5.57827   3.54321   1.86278 
 H                    0    -5.35093   2.61208   1.64391 
 C                    0    -6.59265   3.36093  -0.31883 
 H                    0    -6.28211   2.32451  -0.41153 
 C                    0    -7.3295    3.96941  -1.32707 
 H                    0    -7.58745   3.38982  -2.2115 
 H                    0    -7.13646   5.43767  -3.94033 
 H                    0    -2.05943   8.08077  -2.46421 
 C                    -1   -1.55254   7.26723  -1.93272 
 H                    0    -1.36969   7.60154  -0.9034 
 C                    0    -2.40084   5.9889   -1.9374 
 H                    0    -2.56769   5.70063  -2.98484 
 C                    0    -1.66919   4.8334   -1.24751 
 H                    0    -0.69605   4.63276  -1.71152 
 H                    0    -1.49266   5.06364  -0.18855 
 H                    0    -2.26284   3.913    -1.29165 
 C                    0    -3.76801   6.22527  -1.2888 
 H                    0    -4.39871   5.33031  -1.33115 
 H                    0    -4.31083   7.03861  -1.78439 
 H                    0    -3.65476   6.49614  -0.23124 
 H                    0    -0.57938   7.10169  -2.40943 
 H                    0    -3.7267   -3.99815   7.85402 
 C                    -1   -3.27166  -4.06383   6.85771 
 H                    0    -4.01334  -4.44564   6.15188 
 C                    0    -2.75682  -2.70349   6.38362 
 H                    0    -1.99739  -2.30393   7.06363 
 H                    0    -3.58663  -1.98277   6.37284 
 C                    0    -2.16201  -2.74658   4.96091 
 O                    0    -2.76053  -3.50025   4.13959 
 O                    0    -1.15313  -2.04179   4.72902 
 H                    0    -2.45569  -4.79389   6.90434 
 H                    0     3.17763   4.84678   6.69377 
 C                    -1    3.48125   4.14234   5.9142 
 H                    0     2.72656   3.35729   5.82227 
 H                    0     4.41978   3.66419   6.20593 
 C                    0     3.67664   4.78589   4.53986 
 O                    0     3.99473   4.11679   3.56547 
 N                    0     3.49376   6.13749   4.47887 
 H                    0     3.18081   6.61121   5.31224 
 C                    -1    3.61032   6.93175   3.25878 
 H                    0     4.08956   6.2887    2.51724 
 C                    0     2.26462   7.45552   2.75307 
 H                    0     1.82804   8.10946   3.52227 
 H                    0     2.45875   8.09672   1.88106 
 C                    0     1.23922   6.38082   2.36621 
 H                    0     1.07229   5.74078   3.24371 
 C                    0    -0.09333   7.03975   2.00027 
 H                    0    -0.85785   6.28695   1.77991 
 H                    0    -0.46882   7.67099   2.81412 
 H                    0     0.01865   7.67041   1.10909 
 C                    0     1.73913   5.49453   1.22286 
 H                    0     2.04282   6.10335   0.36061 
 H                    0     2.58766   4.87628   1.53295 
 H                    0     0.94469   4.82106   0.88324 
 H                    0     4.28665   7.77236   3.4537 
 H                    0     6.95931   6.18097  -1.45236 
 C                    -1    6.12533   5.62505  -1.89621 
 H                    0     6.53675   4.75531  -2.41621 
 C                    0     5.10789   5.19432  -0.83059 
 H                    0     4.65235   6.10451  -0.413 
 C                    0     3.99431   4.35152  -1.45688 
 H                    0     3.48615   4.89284  -2.26346 
 H                    0     4.40992   3.42878  -1.88341 
 H                    0     3.24186   4.06082  -0.71677 
 C                    0     5.77339   4.44001   0.32511 
 H                    0     6.12002   3.45319  -0.01097 
 H                    0     6.64381   4.98455   0.70983 
 H                    0     5.08167   4.2864    1.16135 
 H                    0     5.65282   6.26639  -2.64934 
 H                    0    -3.28066  -2.33566  -7.69215 
 C                    -1   -2.23114  -2.5542   -7.46688 
 H                    0    -1.72112  -2.76326  -8.41254 
 C                    0    -1.55627  -1.3844   -6.74909 
 H                    0    -0.49506  -1.62617  -6.60164 
 H                    0    -1.56934  -0.50603  -7.4087 
 C                    0    -2.1392   -0.98866  -5.40327 
 C                    0    -1.51922   0.03159  -4.67173 
 H                    0    -0.64433   0.52636  -5.09102 
 C                    0    -1.9872    0.40841  -3.41765 
 H                    0    -1.47396   1.19157  -2.86484 
 C                    0    -3.0977   -0.22981  -2.86581 
 H                    0    -3.47052   0.03438  -1.88116 
 C                    0    -3.73199  -1.23579  -3.58628 
 H                    0    -4.58522  -1.74032  -3.14443 
 C                    0    -3.25678  -1.60754  -4.8441 
 H                    0    -3.76059  -2.40664  -5.3805 
 H                    0    -2.19897  -3.46425  -6.85779 
 H                    0     2.65513   0.16228  -5.21993 
 C                    -1    3.37872   0.1194   -4.39527 
 H                    0     4.10448   0.92875  -4.53424 
 C                    0     2.65778   0.23056  -3.05 
 H                    0     3.41702   0.22973  -2.25257 
 C                    0     1.87666   1.54235  -2.94373 
 H                    0     1.08267   1.57898  -3.70065 
 H                    0     2.52708   2.41111  -3.0959 
 H                    0     1.40317   1.64384  -1.95981 
 C                    0     1.7401   -0.97037  -2.83781 
 H                    0     0.98092  -1.02188  -3.62681 
 H                    0     1.20804  -0.91105  -1.88319 
 H                    0     2.30205  -1.91213  -2.8499 
 H                    0     3.91997  -0.83013  -4.47699 
 H                    0     9.82545   1.59221  -3.06635 
 C                    -1    9.54559   2.26894  -2.25309 
 H                    0     10.08075   3.21354  -2.39641 
 C                    0     8.03837   2.50878  -2.21267 
 H                    0     7.71257   2.96492  -3.15637 
 H                    0     7.82081   3.23737  -1.4242 
 C                    0     7.1851    1.27027  -1.93614 
 H                    0     7.4716    0.79913  -0.98866 
 H                    0     6.13094   1.56373  -1.84988 
 S                    0     7.33101   0.05391  -3.28877 
 C                    0     6.31557  -1.27942  -2.60232 
 H                    0     6.73424  -1.64875  -1.66203 
 H                    0     5.28566  -0.95151  -2.43624 
 H                    0     6.3065   -2.0922   -3.33201 
 H                    0     9.89261   1.82095  -1.31497 
 H                    0     6.09585  -4.39627  -3.44779 
 C                    -1    5.08828  -4.82215  -3.50949 
 H                    0     5.20182  -5.902    -3.65048 
 C                    0     4.27577  -4.49642  -2.25649 
 H                    0     4.25694  -3.40647  -2.11176 
 H                    0     4.7831   -4.90913  -1.3725 
 C                    0     2.8265   -5.00866  -2.27008 
 H                    0     2.31489  -4.56165  -3.13695 
 C                    0     2.75002  -6.53116  -2.40894 
 H                    0     3.20228  -6.8888   -3.34033 
 H                    0     3.26542  -7.01904  -1.57088 
 H                    0     1.70772  -6.86708  -2.39839 
 C                    0     2.10983  -4.55282  -1.00097 
 H                    0     2.09185  -3.46011  -0.93121 
 H                    0     2.61295  -4.9376   -0.10679 
 H                    0     1.07447  -4.90586  -0.95454 
 H                    0     4.60517  -4.41689  -4.40713 
 H                    0    -0.764    -5.70943  -4.08805 
 C                    -1   -1.20132  -5.63779  -3.08447 
 H                    0    -0.41143  -5.86617  -2.35857 
 C                    0    -1.77835  -4.24549  -2.82528 
 H                    0    -2.57815  -4.06307  -3.5564 
 C                    0    -2.38457  -4.14618  -1.42475 
 H                    0    -2.85023  -3.16703  -1.26407 
 H                    0    -3.15403  -4.91193  -1.26545 
 H                    0    -1.61337  -4.29151  -0.65696 
 C                    0    -0.70915  -3.17466  -3.02474 
 H                    0    -1.11293  -2.17521  -2.84217 
 H                    0    -0.3071   -3.19448  -4.04556 
 H                    0     0.12491  -3.33284  -2.33193 
 H                    0    -1.96946  -6.41527  -2.99135 
 H                    0    -7.345    -3.29588  -2.26277 
 C                    -1   -7.24431  -3.81803  -1.30659 
 H                    0    -6.25581  -4.28585  -1.29059 
 C                    0    -7.40674  -2.85543  -0.13902 
 H                    0    -8.40292  -2.39682  -0.13132 
 H                    0    -7.30872  -3.37811   0.81956 
 C                    0    -6.38608  -1.73788  -0.13448 
 O                    0    -5.51524  -1.59458  -0.9703 
 O                    0    -6.54788  -0.93113   0.90717 
 H                    0    -5.82584  -0.24941   0.90889 
 H                    0    -8.00086  -4.60758  -1.26 
 H                    0    -4.68555  -4.98714   3.37436 
 C                    -1   -5.02464  -5.07412   2.33836 
 H                    0    -6.12015  -5.13823   2.32673 
 C                    0    -4.52253  -3.86997   1.54715 
 H                    0    -4.7683   -3.93853   0.48201 
 H                    0    -3.43893  -3.77056   1.643 
 H                    0    -4.94998  -2.94422   1.94556 
 H                    0    -4.63644  -6.01528   1.93021 
 H                    0    -1.27143  -9.02571   1.40177 
 C                    -1   -0.30091  -8.95897   0.89898 
 H                    0    -0.2403   -9.76155   0.1534 
 C                    0    -0.12735  -7.57621   0.25664 
 H                    0     0.82837  -7.54466  -0.28376 
 H                    0    -0.91027  -7.42635  -0.49793 
 C                    0    -0.17745  -6.46731   1.26257 
 C                    0    -1.29313  -5.77758   1.67045 
 H                    0    -2.31102  -5.86317   1.31264 
 N                    0    -0.98802  -4.88629   2.65852 
 H                    0    -1.67251  -4.28813   3.17807 
 C                    0     0.34976  -4.982     2.92638 
 C                    0     1.13085  -4.25583   3.83502 
 H                    0     0.67332  -3.47978   4.44462 
 C                    0     2.48104  -4.55554   3.8886 
 H                    0     3.11989  -4.0126    4.58092 
 C                    0     3.05061  -5.54544   3.0589 
 H                    0     4.11616  -5.74945   3.12946 
 C                    0     2.27426  -6.25372   2.15809 
 H                    0     2.72159  -7.01227   1.51822 
 C                    0     0.89975  -5.97368   2.07346 
 H                    0     0.47412  -9.13069   1.65391 
 C                    0    -3.48256   0.94035   1.19525 
 O                    0    -4.72179   1.0465    1.1079 
 C                    0    -2.80745  -0.32229   1.05855 
 C                    0    -1.48647  -0.4667    1.3397 
 C                    0    -0.58531   0.72364   1.59758 
 C                    0    -1.22077   2.02588   1.10523 
 C                    0    -2.66771   2.1574    1.55049 
 C                    0    -0.8956   -1.82227   1.53015 
 C                    0     0.5349   -1.97423   1.01141 
 C                    0     1.4259   -0.82722   1.49053 
 C                    0     0.82203   0.50651   0.99653 
 C                    0     2.86648  -0.94517   1.00311 
 C                    0     3.75456   0.25016   1.40763 
 C                    0     3.17425   1.52205   0.79539 
 C                    0     1.72139   1.73306   1.23151 
 C                    0     3.70684  -2.16234   1.41043 
 C                    0     5.16392  -1.71684   1.11653 
 C                    0     5.0907   -0.20929   0.79529 
 C                    0     3.90604   0.41176   2.93044 
 O                    0     6.25187   0.45378   1.26838 
 H                    0    -3.42442  -1.19307   0.85417 
 H                    0    -0.46699   0.77299   2.69408 
 H                    0    -1.17077   2.05051   0.00728 
 H                    0    -0.65593   2.88989   1.46743 
 H                    0    -2.72041   2.25926   2.64439 
 H                    0    -3.14944   3.04644   1.13337 
 H                    0    -1.55149  -2.58441   1.1013 
 H                    0    -0.90948  -1.98519   2.62846 
 H                    0     0.53087  -1.99708  -0.08772 
 H                    0     0.93009  -2.93697   1.34902 
 H                    0     1.41432  -0.84012   2.59052 
 H                    0     0.69568   0.40467  -0.09509 
 H                    0     2.82565  -0.93484  -0.10111 
 H                    0     3.21564   1.44492  -0.30094 
 H                    0     3.76255   2.40464   1.07831 
 H                    0     1.69502   2.01804   2.2922 
 H                    0     1.32101   2.58787   0.67636 
 H                    0     3.42913  -3.06832   0.87071 
 H                    0     3.56223  -2.38461   2.47231 
 H                    0     5.60005  -2.27765   0.28352 
 H                    0     5.82105  -1.86171   1.97959 
 H                    0     5.01868  -0.07087  -0.29737 
 H                    0     4.46338  -0.41628   3.37698 
 H                    0     4.43875   1.33943   3.16387 
 H                    0     2.93575   0.46313   3.4315 
 H                    0     6.07811   1.40287   1.21881 
 
 Stoichiometry    C84H151N2O8S(1-)
 Framework group  C1[X(C84H151N2O8S)]
 Deg. of freedom   732
 Full point group                 C1      NOp   1
 Largest Abelian subgroup         C1      NOp   1
 Largest concise Abelian subgroup C1      NOp   1
                         Standard orientation:                         
 ---------------------------------------------------------------------
 Center     Atomic      Atomic             Coordinates (Angstroms)
 Number     Number       Type             X           Y           Z
 ---------------------------------------------------------------------
      1          1           0        8.218695    6.785895    4.340771
      2          6           0        7.639767    6.321574    3.534004
      3          1           0        6.862154    7.025694    3.218229
      4          6           0        8.532923    5.940548    2.350258
      5          1           0        9.044478    6.835940    1.976220
      6          1           0        9.318431    5.256898    2.697129
      7          6           0        7.753483    5.296087    1.229053
      8          6           0        7.398652    6.007427    0.081758
      9          1           0        7.709739    7.045453   -0.019774
     10          6           0        6.665638    5.417695   -0.940449
     11          1           0        6.402326    5.971001   -1.836450
     12          6           0        6.264545    4.084092   -0.834206
     13          8           0        5.578274    3.543213   -1.862778
     14          1           0        5.350932    2.612076   -1.643911
     15          6           0        6.592649    3.360929    0.318825
     16          1           0        6.282112    2.324508    0.411528
     17          6           0        7.329495    3.969411    1.327066
     18          1           0        7.587447    3.389816    2.211497
     19          1           0        7.136464    5.437665    3.940326
     20          1           0        2.059433    8.080774    2.464207
     21          6           0        1.552541    7.267226    1.932723
     22          1           0        1.369689    7.601544    0.903400
     23          6           0        2.400839    5.988900    1.937396
     24          1           0        2.567694    5.700634    2.984841
     25          6           0        1.669189    4.833399    1.247506
     26          1           0        0.696054    4.632759    1.711515
     27          1           0        1.492656    5.063644    0.188554
     28          1           0        2.262845    3.913001    1.291652
     29          6           0        3.768006    6.225270    1.288804
     30          1           0        4.398709    5.330310    1.331148
     31          1           0        4.310835    7.038608    1.784390
     32          1           0        3.654758    6.496140    0.231244
     33          1           0        0.579378    7.101687    2.409428
     34          1           0        3.726700   -3.998149   -7.854022
     35          6           0        3.271662   -4.063826   -6.857710
     36          1           0        4.013342   -4.445640   -6.151880
     37          6           0        2.756817   -2.703494   -6.383621
     38          1           0        1.997388   -2.303928   -7.063630
     39          1           0        3.586628   -1.982770   -6.372845
     40          6           0        2.162008   -2.746579   -4.960906
     41          8           0        2.760529   -3.500245   -4.139586
     42          8           0        1.153126   -2.041789   -4.729015
     43          1           0        2.455691   -4.793889   -6.904341
     44          1           0       -3.177633    4.846779   -6.693769
     45          6           0       -3.481250    4.142335   -5.914198
     46          1           0       -2.726555    3.357288   -5.822268
     47          1           0       -4.419783    3.664188   -6.205932
     48          6           0       -3.676640    4.785894   -4.539857
     49          8           0       -3.994726    4.116789   -3.565469
     50          7           0       -3.493764    6.137488   -4.478867
     51          1           0       -3.180805    6.611214   -5.312242
     52          6           0       -3.610316    6.931752   -3.258784
     53          1           0       -4.089563    6.288704   -2.517237
     54          6           0       -2.264618    7.455520   -2.753074
     55          1           0       -1.828040    8.109461   -3.522269
     56          1           0       -2.458749    8.096725   -1.881064
     57          6           0       -1.239218    6.380821   -2.366214
     58          1           0       -1.072295    5.740784   -3.243707
     59          6           0        0.093334    7.039752   -2.000268
     60          1           0        0.857852    6.286947   -1.779911
     61          1           0        0.468821    7.670990   -2.814123
     62          1           0       -0.018649    7.670408   -1.109088
     63          6           0       -1.739131    5.494535   -1.222855
     64          1           0       -2.042820    6.103346   -0.360611
     65          1           0       -2.587656    4.876278   -1.532946
     66          1           0       -0.944686    4.821055   -0.883244
     67          1           0       -4.286650    7.772364   -3.453700
     68          1           0       -6.959307    6.180973    1.452355
     69          6           0       -6.125330    5.625049    1.896214
     70          1           0       -6.536751    4.755309    2.416207
     71          6           0       -5.107892    5.194320    0.830587
     72          1           0       -4.652354    6.104511    0.412998
     73          6           0       -3.994309    4.351515    1.456877
     74          1           0       -3.486148    4.892842    2.263458
     75          1           0       -4.409916    3.428784    1.883414
     76          1           0       -3.241855    4.060818    0.716768
     77          6           0       -5.773386    4.440008   -0.325111
     78          1           0       -6.120016    3.453192    0.010971
     79          1           0       -6.643807    4.984555   -0.709829
     80          1           0       -5.081669    4.286402   -1.161353
     81          1           0       -5.652822    6.266388    2.649343
     82          1           0        3.280659   -2.335658    7.692153
     83          6           0        2.231143   -2.554197    7.466882
     84          1           0        1.721117   -2.763264    8.412545
     85          6           0        1.556274   -1.384401    6.749091
     86          1           0        0.495059   -1.626165    6.601641
     87          1           0        1.569340   -0.506031    7.408701
     88          6           0        2.139202   -0.988657    5.403265
     89          6           0        1.519224    0.031588    4.671734
     90          1           0        0.644334    0.526364    5.091020
     91          6           0        1.987201    0.408414    3.417647
     92          1           0        1.473957    1.191574    2.864839
     93          6           0        3.097697   -0.229807    2.865811
     94          1           0        3.470521    0.034377    1.881159
     95          6           0        3.731991   -1.235787    3.586275
     96          1           0        4.585222   -1.740318    3.144426
     97          6           0        3.256776   -1.607543    4.844103
     98          1           0        3.760590   -2.406640    5.380499
     99          1           0        2.198966   -3.464253    6.857786
    100          1           0       -2.655130    0.162280    5.219933
    101          6           0       -3.378718    0.119398    4.395270
    102          1           0       -4.104476    0.928745    4.534242
    103          6           0       -2.657783    0.230562    3.050001
    104          1           0       -3.417021    0.229725    2.252569
    105          6           0       -1.876655    1.542345    2.943726
    106          1           0       -1.082674    1.578981    3.700652
    107          1           0       -2.527076    2.411105    3.095897
    108          1           0       -1.403166    1.643844    1.959805
    109          6           0       -1.740096   -0.970374    2.837809
    110          1           0       -0.980916   -1.021884    3.626812
    111          1           0       -1.208044   -0.911049    1.883186
    112          1           0       -2.302053   -1.912128    2.849903
    113          1           0       -3.919967   -0.830127    4.476992
    114          1           0       -9.825453    1.592206    3.066350
    115          6           0       -9.545588    2.268938    2.253094
    116          1           0      -10.080752    3.213542    2.396411
    117          6           0       -8.038367    2.508782    2.212666
    118          1           0       -7.712571    2.964919    3.156366
    119          1           0       -7.820807    3.237369    1.424199
    120          6           0       -7.185100    1.270268    1.936135
    121          1           0       -7.471598    0.799132    0.988655
    122          1           0       -6.130939    1.563725    1.849877
    123         16           0       -7.331011    0.053915    3.288770
    124          6           0       -6.315572   -1.279421    2.602319
    125          1           0       -6.734242   -1.648749    1.662030
    126          1           0       -5.285657   -0.951512    2.436235
    127          1           0       -6.306498   -2.092194    3.332006
    128          1           0       -9.892607    1.820947    1.314965
    129          1           0       -6.095854   -4.396273    3.447786
    130          6           0       -5.088276   -4.822146    3.509490
    131          1           0       -5.201822   -5.901995    3.650477
    132          6           0       -4.275774   -4.496415    2.256490
    133          1           0       -4.256936   -3.406470    2.111761
    134          1           0       -4.783100   -4.909132    1.372495
    135          6           0       -2.826501   -5.008661    2.270081
    136          1           0       -2.314895   -4.561651    3.136953
    137          6           0       -2.750024   -6.531160    2.408937
    138          1           0       -3.202285   -6.888796    3.340327
    139          1           0       -3.265423   -7.019043    1.570883
    140          1           0       -1.707716   -6.867076    2.398389
    141          6           0       -2.109835   -4.552821    1.000969
    142          1           0       -2.091854   -3.460105    0.931211
    143          1           0       -2.612952   -4.937598    0.106788
    144          1           0       -1.074471   -4.905861    0.954540
    145          1           0       -4.605167   -4.416887    4.407132
    146          1           0        0.764003   -5.709426    4.088052
    147          6           0        1.201322   -5.637792    3.084473
    148          1           0        0.411428   -5.866171    2.358569
    149          6           0        1.778354   -4.245494    2.825282
    150          1           0        2.578154   -4.063070    3.556404
    151          6           0        2.384574   -4.146177    1.424752
    152          1           0        2.850227   -3.167027    1.264069
    153          1           0        3.154034   -4.911927    1.265445
    154          1           0        1.613366   -4.291507    0.656959
    155          6           0        0.709152   -3.174656    3.024740
    156          1           0        1.112931   -2.175206    2.842172
    157          1           0        0.307098   -3.194481    4.045559
    158          1           0       -0.124913   -3.332835    2.331929
    159          1           0        1.969455   -6.415273    2.991352
    160          1           0        7.344997   -3.295879    2.262771
    161          6           0        7.244312   -3.818033    1.306590
    162          1           0        6.255805   -4.285854    1.290591
    163          6           0        7.406740   -2.855429    0.139016
    164          1           0        8.402925   -2.396817    0.131318
    165          1           0        7.308724   -3.378109   -0.819564
    166          6           0        6.386079   -1.737876    0.134475
    167          8           0        5.515239   -1.594582    0.970299
    168          8           0        6.547875   -0.931133   -0.907168
    169          1           0        5.825844   -0.249411   -0.908890
    170          1           0        8.000856   -4.607582    1.260001
    171          1           0        4.685549   -4.987144   -3.374361
    172          6           0        5.024638   -5.074119   -2.338361
    173          1           0        6.120150   -5.138225   -2.326728
    174          6           0        4.522529   -3.869974   -1.547151
    175          1           0        4.768300   -3.938533   -0.482012
    176          1           0        3.438925   -3.770558   -1.643003
    177          1           0        4.949981   -2.944217   -1.945561
    178          1           0        4.636439   -6.015281   -1.930205
    179          1           0        1.271432   -9.025715   -1.401771
    180          6           0        0.300905   -8.958971   -0.898980
    181          1           0        0.240301   -9.761554   -0.153395
    182          6           0        0.127349   -7.576207   -0.256636
    183          1           0       -0.828370   -7.544662    0.283755
    184          1           0        0.910265   -7.426351    0.497929
    185          6           0        0.177445   -6.467314   -1.262568
    186          6           0        1.293132   -5.777582   -1.670448
    187          1           0        2.311016   -5.863170   -1.312635
    188          7           0        0.988017   -4.886289   -2.658517
    189          1           0        1.672511   -4.288128   -3.178066
    190          6           0       -0.349764   -4.982002   -2.926382
    191          6           0       -1.130848   -4.255833   -3.835018
    192          1           0       -0.673322   -3.479777   -4.444619
    193          6           0       -2.481043   -4.555541   -3.888598
    194          1           0       -3.119888   -4.012595   -4.580915
    195          6           0       -3.050610   -5.545436   -3.058896
    196          1           0       -4.116157   -5.749454   -3.129459
    197          6           0       -2.274260   -6.253721   -2.158094
    198          1           0       -2.721588   -7.012270   -1.518224
    199          6           0       -0.899751   -5.973675   -2.073459
    200          1           0       -0.474117   -9.130691   -1.653912
    201          6           0        3.482562    0.940347   -1.195245
    202          8           0        4.721789    1.046499   -1.107898
    203          6           0        2.807454   -0.322286   -1.058547
    204          6           0        1.486466   -0.466700   -1.339701
    205          6           0        0.585306    0.723643   -1.597577
    206          6           0        1.220772    2.025877   -1.105229
    207          6           0        2.667711    2.157396   -1.550491
    208          6           0        0.895602   -1.822270   -1.530145
    209          6           0       -0.534899   -1.974232   -1.011414
    210          6           0       -1.425902   -0.827224   -1.490530
    211          6           0       -0.822029    0.506506   -0.996530
    212          6           0       -2.866477   -0.945173   -1.003111
    213          6           0       -3.754564    0.250162   -1.407634
    214          6           0       -3.174246    1.522051   -0.795385
    215          6           0       -1.721390    1.733058   -1.231509
    216          6           0       -3.706842   -2.162336   -1.410434
    217          6           0       -5.163919   -1.716841   -1.116527
    218          6           0       -5.090697   -0.209287   -0.795292
    219          6           0       -3.906037    0.411764   -2.930435
    220          8           0       -6.251866    0.453777   -1.268378
    221          1           0        3.424423   -1.193067   -0.854174
    222          1           0        0.466994    0.772991   -2.694081
    223          1           0        1.170765    2.050506   -0.007275
    224          1           0        0.655925    2.889886   -1.467431
    225          1           0        2.720411    2.259255   -2.644392
    226          1           0        3.149437    3.046439   -1.133372
    227          1           0        1.551490   -2.584406   -1.101300
    228          1           0        0.909484   -1.985186   -2.628462
    229          1           0       -0.530866   -1.997083    0.087719
    230          1           0       -0.930090   -2.936973   -1.349019
    231          1           0       -1.414323   -0.840116   -2.590522
    232          1           0       -0.695684    0.404671    0.095091
    233          1           0       -2.825651   -0.934842    0.101114
    234          1           0       -3.215644    1.444919    0.300935
    235          1           0       -3.762549    2.404636   -1.078314
    236          1           0       -1.695020    2.018044   -2.292200
    237          1           0       -1.321013    2.587869   -0.676363
    238          1           0       -3.429128   -3.068324   -0.870714
    239          1           0       -3.562231   -2.384609   -2.472312
    240          1           0       -5.600052   -2.277652   -0.283517
    241          1           0       -5.821051   -1.861706   -1.979593
    242          1           0       -5.018681   -0.070869    0.297369
    243          1           0       -4.463382   -0.416279   -3.376980
    244          1           0       -4.438752    1.339427   -3.163866
    245          1           0       -2.935753    0.463128   -3.431498
    246          1           0       -6.078108    1.402866   -1.218810
 ---------------------------------------------------------------------
 Rotational constants (GHZ):           0.0149677           0.0140580           0.0107102
 Standard basis: 6-31G(d) (6D, 7F)
 There are  1731 symmetry adapted cartesian basis functions of A   symmetry.
 There are  1731 symmetry adapted basis functions of A   symmetry.
  1731 basis functions,  3288 primitive gaussians,  1731 cartesian basis functions
   375 alpha electrons      375 beta electrons
       nuclear repulsion energy     21393.8675410502 Hartrees.
 NAtoms=  246 NActive=  246 NUniq=  246 SFac= 1.00D+00 NAtFMM=   60 NAOKFM=T Big=T
 Integral buffers will be    131072 words long.
 Raffenetti 2 integral format.
 Two-electron integral symmetry is turned on.
 Nuclear repulsion after empirical dispersion term =    21393.5690477347 Hartrees.
 One-electron integrals computed using PRISM.
 NBasis=  1731 RedAO= T EigKep=  3.48D-04  NBF=  1731
 NBsUse=  1731 1.00D-06 EigRej= -1.00D+00 NBFU=  1731
 ExpMin= 1.17D-01 ExpMax= 2.19D+04 ExpMxC= 3.30D+03 IAcc=3 IRadAn=         5 AccDes= 0.00D+00
 Harris functional with IExCor= 4639 and IRadAn=       5 diagonalized for initial guess.
 HarFok:  IExCor= 4639 AccDes= 0.00D+00 IRadAn=         5 IDoV= 1 UseB2=F ITyADJ=14
 ICtDFT=  3500011 ScaDFX=  1.000000  1.000000  1.000000  1.000000
 FoFCou: FMM=F IPFlag=           0 FMFlag=      100000 FMFlg1=        2001
         NFxFlg=           0 DoJE=T BraDBF=F KetDBF=T FulRan=T
         wScrn=  0.000000 ICntrl=       500 IOpCl=  0 I1Cent=   200000004 NGrid=           0
         NMat0=    1 NMatS0=      1 NMatT0=    0 NMatD0=    1 NMtDS0=    0 NMtDT0=    0
 Petite list used in FoFCou.
 Requested convergence on RMS density matrix=1.00D-08 within 128 cycles.
 Requested convergence on MAX density matrix=1.00D-06.
 Requested convergence on             energy=1.00D-06.
 No special actions if energy rises.
 Integral accuracy reduced to 1.0D-05 until final iterations.
 Initial convergence to 1.0D-05 achieved.  Increase integral accuracy.
 SCF Done:  E(RwB97XD) =  -4400.53113534     A.U. after   15 cycles
            NFock= 15  Conv=0.41D-08     -V/T= 2.0090
 Hyperfine terms turned off by default for NAtoms > 100.

 **********************************************************************

            Population analysis using the SCF Density.

 **********************************************************************

 Orbital symmetries:
       Occupied  (A) (A) (A) (A) (A) (A) (A) (A) (A) (A) (A) (A)
                 (A) (A) (A) (A) (A) (A) (A) (A) (A) (A) (A) (A)
                 (A) (A) (A) (A) (A) (A) (A) (A) (A) (A) (A) (A)
                 (A) (A) (A) (A) (A) (A) (A) (A) (A) (A) (A) (A)
                 (A) (A) (A) (A) (A) (A) (A) (A) (A) (A) (A) (A)
                 (A) (A) (A) (A) (A) (A) (A) (A) (A) (A) (A) (A)
                 (A) (A) (A) (A) (A) (A) (A) (A) (A) (A) (A) (A)
                 (A) (A) (A) (A) (A) (A) (A) (A) (A) (A) (A) (A)
                 (A) (A) (A) (A) (A) (A) (A) (A) (A) (A) (A) (A)
                 (A) (A) (A) (A) (A) (A) (A) (A) (A) (A) (A) (A)
                 (A) (A) (A) (A) (A) (A) (A) (A) (A) (A) (A) (A)
                 (A) (A) (A) (A) (A) (A) (A) (A) (A) (A) (A) (A)
                 (A) (A) (A) (A) (A) (A) (A) (A) (A) (A) (A) (A)
                 (A) (A) (A) (A) (A) (A) (A) (A) (A) (A) (A) (A)
                 (A) (A) (A) (A) (A) (A) (A) (A) (A) (A) (A) (A)
                 (A) (A) (A) (A) (A) (A) (A) (A) (A) (A) (A) (A)
                 (A) (A) (A) (A) (A) (A) (A) (A) (A) (A) (A) (A)
                 (A) (A) (A) (A) (A) (A) (A) (A) (A) (A) (A) (A)
                 (A) (A) (A) (A) (A) (A) (A) (A) (A) (A) (A) (A)
                 (A) (A) (A) (A) (A) (A) (A) (A) (A) (A) (A) (A)
                 (A) (A) (A) (A) (A) (A) (A) (A) (A) (A) (A) (A)
                 (A) (A) (A) (A) (A) (A) (A) (A) (A) (A) (A) (A)
                 (A) (A) (A) (A) (A) (A) (A) (A) (A) (A) (A) (A)
                 (A) (A) (A) (A) (A) (A) (A) (A) (A) (A) (A) (A)
                 (A) (A) (A) (A) (A) (A) (A) (A) (A) (A) (A) (A)
                 (A) (A) (A) (A) (A) (A) (A) (A) (A) (A) (A) (A)
                 (A) (A) (A) (A) (A) (A) (A) (A) (A) (A) (A) (A)
                 (A) (A) (A) (A) (A) (A) (A) (A) (A) (A) (A) (A)
                 (A) (A) (A) (A) (A) (A) (A) (A) (A) (A) (A) (A)
                 (A) (A) (A) (A) (A) (A) (A) (A) (A) (A) (A) (A)
                 (A) (A) (A) (A) (A) (A) (A) (A) (A) (A) (A) (A)
                 (A) (A) (A)
       Virtual   (A) (A) (A) (A) (A) (A) (A) (A) (A) (A) (A) (A)
                 (A) (A) (A) (A) (A) (A) (A) (A) (A) (A) (A) (A)
                 (A) (A) (A) (A) (A) (A) (A) (A) (A) (A) (A) (A)
                 (A) (A) (A) (A) (A) (A) (A) (A) (A) (A) (A) (A)
                 (A) (A) (A) (A) (A) (A) (A) (A) (A) (A) (A) (A)
                 (A) (A) (A) (A) (A) (A) (A) (A) (A) (A) (A) (A)
                 (A) (A) (A) (A) (A) (A) (A) (A) (A) (A) (A) (A)
                 (A) (A) (A) (A) (A) (A) (A) (A) (A) (A) (A) (A)
                 (A) (A) (A) (A) (A) (A) (A) (A) (A) (A) (A) (A)
                 (A) (A) (A) (A) (A) (A) (A) (A) (A) (A) (A) (A)
                 (A) (A) (A) (A) (A) (A) (A) (A) (A) (A) (A) (A)
                 (A) (A) (A) (A) (A) (A) (A) (A) (A) (A) (A) (A)
                 (A) (A) (A) (A) (A) (A) (A) (A) (A) (A) (A) (A)
                 (A) (A) (A) (A) (A) (A) (A) (A) (A) (A) (A) (A)
                 (A) (A) (A) (A) (A) (A) (A) (A) (A) (A) (A) (A)
                 (A) (A) (A) (A) (A) (A) (A) (A) (A) (A) (A) (A)
                 (A) (A) (A) (A) (A) (A) (A) (A) (A) (A) (A) (A)
                 (A) (A) (A) (A) (A) (A) (A) (A) (A) (A) (A) (A)
                 (A) (A) (A) (A) (A) (A) (A) (A) (A) (A) (A) (A)
                 (A) (A) (A) (A) (A) (A) (A) (A) (A) (A) (A) (A)
                 (A) (A) (A) (A) (A) (A) (A) (A) (A) (A) (A) (A)
                 (A) (A) (A) (A) (A) (A) (A) (A) (A) (A) (A) (A)
                 (A) (A) (A) (A) (A) (A) (A) (A) (A) (A) (A) (A)
                 (A) (A) (A) (A) (A) (A) (A) (A) (A) (A) (A) (A)
                 (A) (A) (A) (A) (A) (A) (A) (A) (A) (A) (A) (A)
                 (A) (A) (A) (A) (A) (A) (A) (A) (A) (A) (A) (A)
                 (A) (A) (A) (A) (A) (A) (A) (A) (A) (A) (A) (A)
                 (A) (A) (A) (A) (A) (A) (A) (A) (A) (A) (A) (A)
                 (A) (A) (A) (A) (A) (A) (A) (A) (A) (A) (A) (A)
                 (A) (A) (A) (A) (A) (A) (A) (A) (A) (A) (A) (A)
                 (A) (A) (A) (A) (A) (A) (A) (A) (A) (A) (A) (A)
                 (A) (A) (A) (A) (A) (A) (A) (A) (A) (A) (A) (A)
                 (A) (A) (A) (A) (A) (A) (A) (A) (A) (A) (A) (A)
                 (A) (A) (A) (A) (A) (A) (A) (A) (A) (A) (A) (A)
                 (A) (A) (A) (A) (A) (A) (A) (A) (A) (A) (A) (A)
                 (A) (A) (A) (A) (A) (A) (A) (A) (A) (A) (A) (A)
                 (A) (A) (A) (A) (A) (A) (A) (A) (A) (A) (A) (A)
                 (A) (A) (A) (A) (A) (A) (A) (A) (A) (A) (A) (A)
                 (A) (A) (A) (A) (A) (A) (A) (A) (A) (A) (A) (A)
                 (A) (A) (A) (A) (A) (A) (A) (A) (A) (A) (A) (A)
                 (A) (A) (A) (A) (A) (A) (A) (A) (A) (A) (A) (A)
                 (A) (A) (A) (A) (A) (A) (A) (A) (A) (A) (A) (A)
                 (A) (A) (A) (A) (A) (A) (A) (A) (A) (A) (A) (A)
                 (A) (A) (A) (A) (A) (A) (A) (A) (A) (A) (A) (A)
                 (A) (A) (A) (A) (A) (A) (A) (A) (A) (A) (A) (A)
                 (A) (A) (A) (A) (A) (A) (A) (A) (A) (A) (A) (A)
                 (A) (A) (A) (A) (A) (A) (A) (A) (A) (A) (A) (A)
                 (A) (A) (A) (A) (A) (A) (A) (A) (A) (A) (A) (A)
                 (A) (A) (A) (A) (A) (A) (A) (A) (A) (A) (A) (A)
                 (A) (A) (A) (A) (A) (A) (A) (A) (A) (A) (A) (A)
                 (A) (A) (A) (A) (A) (A) (A) (A) (A) (A) (A) (A)
                 (A) (A) (A) (A) (A) (A) (A) (A) (A) (A) (A) (A)
                 (A) (A) (A) (A) (A) (A) (A) (A) (A) (A) (A) (A)
                 (A) (A) (A) (A) (A) (A) (A) (A) (A) (A) (A) (A)
                 (A) (A) (A) (A) (A) (A) (A) (A) (A) (A) (A) (A)
                 (A) (A) (A) (A) (A) (A) (A) (A) (A) (A) (A) (A)
                 (A) (A) (A) (A) (A) (A) (A) (A) (A) (A) (A) (A)
                 (A) (A) (A) (A) (A) (A) (A) (A) (A) (A) (A) (A)
                 (A) (A) (A) (A) (A) (A) (A) (A) (A) (A) (A) (A)
                 (A) (A) (A) (A) (A) (A) (A) (A) (A) (A) (A) (A)
                 (A) (A) (A) (A) (A) (A) (A) (A) (A) (A) (A) (A)
                 (A) (A) (A) (A) (A) (A) (A) (A) (A) (A) (A) (A)
                 (A) (A) (A) (A) (A) (A) (A) (A) (A) (A) (A) (A)
                 (A) (A) (A) (A) (A) (A) (A) (A) (A) (A) (A) (A)
                 (A) (A) (A) (A) (A) (A) (A) (A) (A) (A) (A) (A)
                 (A) (A) (A) (A) (A) (A) (A) (A) (A) (A) (A) (A)
                 (A) (A) (A) (A) (A) (A) (A) (A) (A) (A) (A) (A)
                 (A) (A) (A) (A) (A) (A) (A) (A) (A) (A) (A) (A)
                 (A) (A) (A) (A) (A) (A) (A) (A) (A) (A) (A) (A)
                 (A) (A) (A) (A) (A) (A) (A) (A) (A) (A) (A) (A)
                 (A) (A) (A) (A) (A) (A) (A) (A) (A) (A) (A) (A)
                 (A) (A) (A) (A) (A) (A) (A) (A) (A) (A) (A) (A)
                 (A) (A) (A) (A) (A) (A) (A) (A) (A) (A) (A) (A)
                 (A) (A) (A) (A) (A) (A) (A) (A) (A) (A) (A) (A)
                 (A) (A) (A) (A) (A) (A) (A) (A) (A) (A) (A) (A)
                 (A) (A) (A) (A) (A) (A) (A) (A) (A) (A) (A) (A)
                 (A) (A) (A) (A) (A) (A) (A) (A) (A) (A) (A) (A)
                 (A) (A) (A) (A) (A) (A) (A) (A) (A) (A) (A) (A)
                 (A) (A) (A) (A) (A) (A) (A) (A) (A) (A) (A) (A)
                 (A) (A) (A) (A) (A) (A) (A) (A) (A) (A) (A) (A)
                 (A) (A) (A) (A) (A) (A) (A) (A) (A) (A) (A) (A)
                 (A) (A) (A) (A) (A) (A) (A) (A) (A) (A) (A) (A)
                 (A) (A) (A) (A) (A) (A) (A) (A) (A) (A) (A) (A)
                 (A) (A) (A) (A) (A) (A) (A) (A) (A) (A) (A) (A)
                 (A) (A) (A) (A) (A) (A) (A) (A) (A) (A) (A) (A)
                 (A) (A) (A) (A) (A) (A) (A) (A) (A) (A) (A) (A)
                 (A) (A) (A) (A) (A) (A) (A) (A) (A) (A) (A) (A)
                 (A) (A) (A) (A) (A) (A) (A) (A) (A) (A) (A) (A)
                 (A) (A) (A) (A) (A) (A) (A) (A) (A) (A) (A) (A)
                 (A) (A) (A) (A) (A) (A) (A) (A) (A) (A) (A) (A)
                 (A) (A) (A) (A) (A) (A) (A) (A) (A) (A) (A) (A)
                 (A) (A) (A) (A) (A) (A) (A) (A) (A) (A) (A) (A)
                 (A) (A) (A) (A) (A) (A) (A) (A) (A) (A) (A) (A)
                 (A) (A) (A) (A) (A) (A) (A) (A) (A) (A) (A) (A)
                 (A) (A) (A) (A) (A) (A) (A) (A) (A) (A) (A) (A)
                 (A) (A) (A) (A) (A) (A) (A) (A) (A) (A) (A) (A)
                 (A) (A) (A) (A) (A) (A) (A) (A) (A) (A) (A) (A)
                 (A) (A) (A) (A) (A) (A) (A) (A) (A) (A) (A) (A)
                 (A) (A) (A) (A) (A) (A) (A) (A) (A) (A) (A) (A)
                 (A) (A) (A) (A) (A) (A) (A) (A) (A) (A) (A) (A)
                 (A) (A) (A) (A) (A) (A) (A) (A) (A) (A) (A) (A)
                 (A) (A) (A) (A) (A) (A) (A) (A) (A) (A) (A) (A)
                 (A) (A) (A) (A) (A) (A) (A) (A) (A) (A) (A) (A)
                 (A) (A) (A) (A) (A) (A) (A) (A) (A) (A) (A) (A)
                 (A) (A) (A) (A) (A) (A) (A) (A) (A) (A) (A) (A)
                 (A) (A) (A) (A) (A) (A) (A) (A) (A) (A) (A) (A)
                 (A) (A) (A) (A) (A) (A) (A) (A) (A) (A) (A) (A)
                 (A) (A) (A) (A) (A) (A) (A) (A) (A) (A) (A) (A)
                 (A) (A) (A) (A) (A) (A) (A) (A) (A) (A) (A) (A)
                 (A) (A) (A) (A) (A) (A) (A) (A) (A) (A) (A) (A)
                 (A) (A) (A) (A) (A) (A) (A) (A) (A) (A) (A) (A)
                 (A) (A) (A) (A) (A) (A) (A) (A) (A) (A) (A) (A)
                 (A) (A) (A) (A) (A) (A) (A) (A) (A) (A) (A) (A)
 The electronic state is 1-A.
 Alpha  occ. eigenvalues --  -88.97014 -19.21732 -19.20764 -19.20625 -19.20072
 Alpha  occ. eigenvalues --  -19.19010 -19.17479 -19.08500 -19.08183 -14.43818
 Alpha  occ. eigenvalues --  -14.36202 -10.36147 -10.34733 -10.32702 -10.29110
 Alpha  occ. eigenvalues --  -10.28372 -10.26724 -10.26217 -10.26033 -10.26017
 Alpha  occ. eigenvalues --  -10.25699 -10.25625 -10.25524 -10.25361 -10.25030
 Alpha  occ. eigenvalues --  -10.24690 -10.24031 -10.24010 -10.23872 -10.23842
 Alpha  occ. eigenvalues --  -10.23796 -10.23729 -10.23650 -10.23573 -10.23464
 Alpha  occ. eigenvalues --  -10.23345 -10.23332 -10.23327 -10.23235 -10.23214
 Alpha  occ. eigenvalues --  -10.23067 -10.23063 -10.23049 -10.22972 -10.22904
 Alpha  occ. eigenvalues --  -10.22889 -10.22826 -10.22813 -10.22806 -10.22699
 Alpha  occ. eigenvalues --  -10.22462 -10.22414 -10.22399 -10.22314 -10.22292
 Alpha  occ. eigenvalues --  -10.22247 -10.22243 -10.22211 -10.22104 -10.22102
 Alpha  occ. eigenvalues --  -10.21996 -10.21948 -10.21948 -10.21883 -10.21842
 Alpha  occ. eigenvalues --  -10.21812 -10.21662 -10.21597 -10.21582 -10.21342
 Alpha  occ. eigenvalues --  -10.21316 -10.21261 -10.21193 -10.21181 -10.21024
 Alpha  occ. eigenvalues --  -10.21000 -10.20356 -10.20334 -10.20326 -10.20301
 Alpha  occ. eigenvalues --  -10.19969 -10.19865 -10.19597 -10.19466 -10.19455
 Alpha  occ. eigenvalues --  -10.19404 -10.19092 -10.18948 -10.18926 -10.18900
 Alpha  occ. eigenvalues --  -10.18648 -10.18452 -10.18177 -10.17827 -10.17433
 Alpha  occ. eigenvalues --   -7.98921  -5.93971  -5.93588  -5.92890  -1.11734
 Alpha  occ. eigenvalues --   -1.08981  -1.08238  -1.06964  -1.05264  -1.02403
 Alpha  occ. eigenvalues --   -0.99714  -0.97974  -0.96375  -0.90490  -0.89857
 Alpha  occ. eigenvalues --   -0.88452  -0.88382  -0.87785  -0.86597  -0.85622
 Alpha  occ. eigenvalues --   -0.85017  -0.84078  -0.83877  -0.83792  -0.83496
 Alpha  occ. eigenvalues --   -0.82956  -0.81914  -0.81744  -0.81651  -0.81556
 Alpha  occ. eigenvalues --   -0.81035  -0.80816  -0.80346  -0.80329  -0.79219
 Alpha  occ. eigenvalues --   -0.77350  -0.77146  -0.76769  -0.76766  -0.76232
 Alpha  occ. eigenvalues --   -0.75207  -0.75189  -0.75023  -0.74627  -0.74533
 Alpha  occ. eigenvalues --   -0.74473  -0.73278  -0.73135  -0.72971  -0.72819
 Alpha  occ. eigenvalues --   -0.72512  -0.72477  -0.72112  -0.71575  -0.71394
 Alpha  occ. eigenvalues --   -0.71142  -0.70516  -0.70329  -0.69986  -0.69448
 Alpha  occ. eigenvalues --   -0.69206  -0.69008  -0.68995  -0.68695  -0.66736
 Alpha  occ. eigenvalues --   -0.66306  -0.66042  -0.65816  -0.65023  -0.64196
 Alpha  occ. eigenvalues --   -0.64035  -0.63486  -0.63437  -0.61987  -0.61781
 Alpha  occ. eigenvalues --   -0.61407  -0.61087  -0.60989  -0.60716  -0.60595
 Alpha  occ. eigenvalues --   -0.60220  -0.60117  -0.59665  -0.59482  -0.59470
 Alpha  occ. eigenvalues --   -0.59143  -0.58818  -0.57740  -0.57554  -0.57369
 Alpha  occ. eigenvalues --   -0.56722  -0.56483  -0.55590  -0.55005  -0.54337
 Alpha  occ. eigenvalues --   -0.54157  -0.53461  -0.53002  -0.52460  -0.52237
 Alpha  occ. eigenvalues --   -0.51525  -0.51157  -0.51031  -0.50673  -0.50342
 Alpha  occ. eigenvalues --   -0.50157  -0.49925  -0.49636  -0.49542  -0.49175
 Alpha  occ. eigenvalues --   -0.49119  -0.49048  -0.48980  -0.48802  -0.48646
 Alpha  occ. eigenvalues --   -0.48332  -0.48164  -0.47997  -0.47988  -0.47762
 Alpha  occ. eigenvalues --   -0.47269  -0.47125  -0.47053  -0.46814  -0.46703
 Alpha  occ. eigenvalues --   -0.46655  -0.46571  -0.46420  -0.46203  -0.46110
 Alpha  occ. eigenvalues --   -0.45926  -0.45915  -0.45800  -0.45779  -0.45577
 Alpha  occ. eigenvalues --   -0.45504  -0.45398  -0.45135  -0.44996  -0.44876
 Alpha  occ. eigenvalues --   -0.44749  -0.44609  -0.44520  -0.44360  -0.44300
 Alpha  occ. eigenvalues --   -0.44268  -0.44085  -0.43797  -0.43319  -0.43299
 Alpha  occ. eigenvalues --   -0.43105  -0.43064  -0.43007  -0.42958  -0.42759
 Alpha  occ. eigenvalues --   -0.42671  -0.42553  -0.42523  -0.42355  -0.42278
 Alpha  occ. eigenvalues --   -0.42180  -0.42110  -0.42007  -0.41960  -0.41883
 Alpha  occ. eigenvalues --   -0.41815  -0.41603  -0.41399  -0.41270  -0.41028
 Alpha  occ. eigenvalues --   -0.40909  -0.40867  -0.40806  -0.40605  -0.40535
 Alpha  occ. eigenvalues --   -0.40460  -0.40249  -0.40129  -0.40055  -0.40013
 Alpha  occ. eigenvalues --   -0.39920  -0.39738  -0.39685  -0.39472  -0.39416
 Alpha  occ. eigenvalues --   -0.39365  -0.39343  -0.39204  -0.39055  -0.39046
 Alpha  occ. eigenvalues --   -0.38941  -0.38778  -0.38418  -0.38396  -0.38327
 Alpha  occ. eigenvalues --   -0.38213  -0.38173  -0.38034  -0.37884  -0.37749
 Alpha  occ. eigenvalues --   -0.37516  -0.37361  -0.37146  -0.36936  -0.36797
 Alpha  occ. eigenvalues --   -0.36644  -0.36600  -0.36382  -0.36318  -0.36278
 Alpha  occ. eigenvalues --   -0.36086  -0.36047  -0.35980  -0.35939  -0.35807
 Alpha  occ. eigenvalues --   -0.35705  -0.35616  -0.35527  -0.35365  -0.35306
 Alpha  occ. eigenvalues --   -0.35285  -0.35161  -0.35115  -0.34885  -0.34778
 Alpha  occ. eigenvalues --   -0.34746  -0.34690  -0.34659  -0.34566  -0.34451
 Alpha  occ. eigenvalues --   -0.34430  -0.34283  -0.34222  -0.34204  -0.34068
 Alpha  occ. eigenvalues --   -0.34029  -0.33882  -0.33817  -0.33733  -0.33338
 Alpha  occ. eigenvalues --   -0.33259  -0.33198  -0.32881  -0.32772  -0.32747
 Alpha  occ. eigenvalues --   -0.32496  -0.32417  -0.32222  -0.32105  -0.32011
 Alpha  occ. eigenvalues --   -0.31803  -0.31612  -0.31593  -0.31472  -0.31224
 Alpha  occ. eigenvalues --   -0.30871  -0.30805  -0.30709  -0.30572  -0.30100
 Alpha  occ. eigenvalues --   -0.29540  -0.29306  -0.29065  -0.28843  -0.28366
 Alpha  occ. eigenvalues --   -0.27614  -0.26786  -0.26640  -0.25625  -0.25396
 Alpha  occ. eigenvalues --   -0.25004  -0.24602  -0.24042  -0.23518  -0.21170
 Alpha  occ. eigenvalues --   -0.20358  -0.19233  -0.18764  -0.18177  -0.16428
 Alpha virt. eigenvalues --    0.08353   0.14000   0.14054   0.14607   0.14763
 Alpha virt. eigenvalues --    0.15726   0.15872   0.16007   0.16396   0.17537
 Alpha virt. eigenvalues --    0.17660   0.18870   0.19393   0.19749   0.19925
 Alpha virt. eigenvalues --    0.20219   0.20296   0.20637   0.21424   0.21685
 Alpha virt. eigenvalues --    0.21876   0.22078   0.22370   0.22618   0.22867
 Alpha virt. eigenvalues --    0.23073   0.23207   0.23379   0.23487   0.23826
 Alpha virt. eigenvalues --    0.23997   0.24100   0.24225   0.24428   0.24778
 Alpha virt. eigenvalues --    0.24956   0.25205   0.25436   0.25503   0.25573
 Alpha virt. eigenvalues --    0.25681   0.25880   0.26030   0.26108   0.26262
 Alpha virt. eigenvalues --    0.26417   0.26542   0.26638   0.26775   0.26868
 Alpha virt. eigenvalues --    0.26978   0.27101   0.27138   0.27410   0.27465
 Alpha virt. eigenvalues --    0.27487   0.27714   0.27769   0.27894   0.28016
 Alpha virt. eigenvalues --    0.28181   0.28268   0.28519   0.28695   0.28724
 Alpha virt. eigenvalues --    0.28873   0.28947   0.29054   0.29258   0.29395
 Alpha virt. eigenvalues --    0.29545   0.29608   0.29687   0.29775   0.29932
 Alpha virt. eigenvalues --    0.29977   0.30094   0.30165   0.30293   0.30355
 Alpha virt. eigenvalues --    0.30390   0.30525   0.30637   0.30699   0.30736
 Alpha virt. eigenvalues --    0.30856   0.31089   0.31215   0.31300   0.31393
 Alpha virt. eigenvalues --    0.31470   0.31561   0.31679   0.31715   0.31818
 Alpha virt. eigenvalues --    0.31978   0.32053   0.32109   0.32222   0.32319
 Alpha virt. eigenvalues --    0.32407   0.32479   0.32569   0.32650   0.32781
 Alpha virt. eigenvalues --    0.32826   0.32912   0.33013   0.33161   0.33251
 Alpha virt. eigenvalues --    0.33413   0.33449   0.33569   0.33646   0.33770
 Alpha virt. eigenvalues --    0.33881   0.33951   0.34060   0.34178   0.34297
 Alpha virt. eigenvalues --    0.34360   0.34521   0.34688   0.34723   0.34985
 Alpha virt. eigenvalues --    0.34992   0.35101   0.35206   0.35305   0.35377
 Alpha virt. eigenvalues --    0.35484   0.35553   0.35709   0.35713   0.35849
 Alpha virt. eigenvalues --    0.35903   0.36102   0.36301   0.36310   0.36386
 Alpha virt. eigenvalues --    0.36585   0.36717   0.36786   0.36807   0.37003
 Alpha virt. eigenvalues --    0.37140   0.37239   0.37344   0.37415   0.37557
 Alpha virt. eigenvalues --    0.37696   0.37807   0.37963   0.37984   0.38047
 Alpha virt. eigenvalues --    0.38207   0.38258   0.38332   0.38400   0.38439
 Alpha virt. eigenvalues --    0.38531   0.38617   0.38760   0.38820   0.38939
 Alpha virt. eigenvalues --    0.39128   0.39252   0.39393   0.39580   0.39638
 Alpha virt. eigenvalues --    0.39793   0.39986   0.40052   0.40188   0.40295
 Alpha virt. eigenvalues --    0.40666   0.40778   0.40810   0.41043   0.41159
 Alpha virt. eigenvalues --    0.41351   0.41389   0.41689   0.41763   0.41941
 Alpha virt. eigenvalues --    0.41955   0.42134   0.42277   0.42366   0.42409
 Alpha virt. eigenvalues --    0.42596   0.42725   0.42835   0.43062   0.43230
 Alpha virt. eigenvalues --    0.43330   0.43505   0.43589   0.43818   0.43985
 Alpha virt. eigenvalues --    0.44020   0.44446   0.44530   0.44759   0.44813
 Alpha virt. eigenvalues --    0.45109   0.45298   0.45394   0.45466   0.45557
 Alpha virt. eigenvalues --    0.45658   0.46032   0.46246   0.46532   0.46776
 Alpha virt. eigenvalues --    0.46854   0.46934   0.47077   0.47448   0.47620
 Alpha virt. eigenvalues --    0.47898   0.48412   0.48525   0.48834   0.49077
 Alpha virt. eigenvalues --    0.49442   0.49560   0.49852   0.50069   0.50396
 Alpha virt. eigenvalues --    0.50788   0.50997   0.51369   0.51699   0.52091
 Alpha virt. eigenvalues --    0.52378   0.52887   0.53199   0.53521   0.54266
 Alpha virt. eigenvalues --    0.54344   0.54813   0.54983   0.55320   0.55895
 Alpha virt. eigenvalues --    0.56697   0.57713   0.58498   0.58806   0.59627
 Alpha virt. eigenvalues --    0.60497   0.60820   0.61265   0.61854   0.62050
 Alpha virt. eigenvalues --    0.62938   0.63000   0.63131   0.63618   0.63833
 Alpha virt. eigenvalues --    0.63967   0.64084   0.64315   0.64725   0.64766
 Alpha virt. eigenvalues --    0.64870   0.64993   0.65106   0.65165   0.65391
 Alpha virt. eigenvalues --    0.65469   0.65734   0.66075   0.66118   0.66387
 Alpha virt. eigenvalues --    0.66530   0.66568   0.66814   0.67119   0.67381
 Alpha virt. eigenvalues --    0.67518   0.67623   0.67871   0.68104   0.68300
 Alpha virt. eigenvalues --    0.68362   0.68399   0.68680   0.68727   0.68785
 Alpha virt. eigenvalues --    0.69071   0.69241   0.69293   0.69426   0.69521
 Alpha virt. eigenvalues --    0.69982   0.70036   0.70168   0.70393   0.70519
 Alpha virt. eigenvalues --    0.70589   0.70810   0.71033   0.71129   0.71277
 Alpha virt. eigenvalues --    0.71462   0.71722   0.71986   0.72061   0.72113
 Alpha virt. eigenvalues --    0.72236   0.72441   0.72740   0.72804   0.72904
 Alpha virt. eigenvalues --    0.73139   0.73218   0.73415   0.73580   0.73695
 Alpha virt. eigenvalues --    0.73756   0.73968   0.74050   0.74355   0.74366
 Alpha virt. eigenvalues --    0.74544   0.74714   0.74891   0.75112   0.75209
 Alpha virt. eigenvalues --    0.75338   0.75375   0.75471   0.75843   0.75938
 Alpha virt. eigenvalues --    0.76181   0.76379   0.76497   0.76634   0.76731
 Alpha virt. eigenvalues --    0.76921   0.76969   0.77217   0.77344   0.77458
 Alpha virt. eigenvalues --    0.77594   0.77883   0.77978   0.78109   0.78178
 Alpha virt. eigenvalues --    0.78357   0.78533   0.78715   0.78847   0.79048
 Alpha virt. eigenvalues --    0.79354   0.79368   0.79514   0.79685   0.79893
 Alpha virt. eigenvalues --    0.80049   0.80116   0.80527   0.80568   0.80947
 Alpha virt. eigenvalues --    0.81104   0.81305   0.81478   0.81619   0.81844
 Alpha virt. eigenvalues --    0.81911   0.82150   0.82209   0.82318   0.82497
 Alpha virt. eigenvalues --    0.82575   0.82781   0.82862   0.82990   0.83153
 Alpha virt. eigenvalues --    0.83222   0.83357   0.83499   0.83528   0.83851
 Alpha virt. eigenvalues --    0.83933   0.83970   0.84207   0.84362   0.84515
 Alpha virt. eigenvalues --    0.84660   0.84814   0.84908   0.84985   0.85234
 Alpha virt. eigenvalues --    0.85392   0.85422   0.85460   0.85590   0.85859
 Alpha virt. eigenvalues --    0.86253   0.86301   0.86490   0.86690   0.86881
 Alpha virt. eigenvalues --    0.87000   0.87107   0.87346   0.87591   0.87712
 Alpha virt. eigenvalues --    0.87907   0.87958   0.88362   0.88618   0.88721
 Alpha virt. eigenvalues --    0.88793   0.88852   0.89074   0.89283   0.89633
 Alpha virt. eigenvalues --    0.89671   0.89782   0.89988   0.90137   0.90377
 Alpha virt. eigenvalues --    0.90697   0.90781   0.90899   0.91221   0.91435
 Alpha virt. eigenvalues --    0.91610   0.91825   0.91973   0.92263   0.92472
 Alpha virt. eigenvalues --    0.92512   0.92895   0.93074   0.93294   0.93375
 Alpha virt. eigenvalues --    0.93453   0.93785   0.94051   0.94283   0.94358
 Alpha virt. eigenvalues --    0.94451   0.94831   0.94982   0.95365   0.95459
 Alpha virt. eigenvalues --    0.95696   0.95818   0.96099   0.96275   0.96529
 Alpha virt. eigenvalues --    0.96614   0.96812   0.97013   0.97078   0.97233
 Alpha virt. eigenvalues --    0.97440   0.97565   0.97935   0.98418   0.98586
 Alpha virt. eigenvalues --    0.98631   0.98801   0.99024   0.99078   0.99351
 Alpha virt. eigenvalues --    0.99524   0.99677   0.99829   1.00056   1.00338
 Alpha virt. eigenvalues --    1.00411   1.00502   1.00678   1.00896   1.00935
 Alpha virt. eigenvalues --    1.01234   1.01313   1.01435   1.01575   1.01740
 Alpha virt. eigenvalues --    1.01823   1.01871   1.02058   1.02086   1.02312
 Alpha virt. eigenvalues --    1.02478   1.02656   1.02782   1.02810   1.02931
 Alpha virt. eigenvalues --    1.03118   1.03179   1.03267   1.03380   1.03454
 Alpha virt. eigenvalues --    1.03583   1.03641   1.03745   1.03905   1.04030
 Alpha virt. eigenvalues --    1.04174   1.04358   1.04521   1.04556   1.04687
 Alpha virt. eigenvalues --    1.04717   1.04833   1.05020   1.05156   1.05209
 Alpha virt. eigenvalues --    1.05331   1.05429   1.05611   1.05808   1.05853
 Alpha virt. eigenvalues --    1.06064   1.06182   1.06236   1.06302   1.06434
 Alpha virt. eigenvalues --    1.06542   1.06616   1.06806   1.06934   1.07166
 Alpha virt. eigenvalues --    1.07333   1.07408   1.07529   1.07595   1.07698
 Alpha virt. eigenvalues --    1.07890   1.08069   1.08223   1.08297   1.08406
 Alpha virt. eigenvalues --    1.08547   1.08625   1.08760   1.08860   1.08975
 Alpha virt. eigenvalues --    1.09108   1.09186   1.09289   1.09358   1.09450
 Alpha virt. eigenvalues --    1.09661   1.09866   1.09929   1.10040   1.10143
 Alpha virt. eigenvalues --    1.10282   1.10375   1.10493   1.10499   1.10701
 Alpha virt. eigenvalues --    1.10797   1.10953   1.11081   1.11175   1.11357
 Alpha virt. eigenvalues --    1.11512   1.11610   1.11721   1.11933   1.12038
 Alpha virt. eigenvalues --    1.12340   1.12362   1.12481   1.12637   1.12725
 Alpha virt. eigenvalues --    1.12798   1.13014   1.13253   1.13365   1.13643
 Alpha virt. eigenvalues --    1.13685   1.13777   1.13912   1.14091   1.14376
 Alpha virt. eigenvalues --    1.14592   1.14660   1.14808   1.15143   1.15259
 Alpha virt. eigenvalues --    1.15342   1.15541   1.15631   1.15732   1.15982
 Alpha virt. eigenvalues --    1.16094   1.16337   1.16455   1.16612   1.16658
 Alpha virt. eigenvalues --    1.16671   1.17070   1.17161   1.17611   1.17803
 Alpha virt. eigenvalues --    1.17957   1.18054   1.18248   1.18431   1.18671
 Alpha virt. eigenvalues --    1.18951   1.19179   1.19241   1.19375   1.19645
 Alpha virt. eigenvalues --    1.19730   1.19873   1.20175   1.20524   1.20620
 Alpha virt. eigenvalues --    1.20850   1.20942   1.21357   1.21596   1.21891
 Alpha virt. eigenvalues --    1.21993   1.22145   1.22393   1.22516   1.22793
 Alpha virt. eigenvalues --    1.23477   1.23745   1.23881   1.24166   1.24196
 Alpha virt. eigenvalues --    1.24609   1.24641   1.24879   1.25267   1.25584
 Alpha virt. eigenvalues --    1.25687   1.26140   1.26455   1.26744   1.26934
 Alpha virt. eigenvalues --    1.27038   1.27323   1.27508   1.27518   1.27849
 Alpha virt. eigenvalues --    1.28114   1.28266   1.28900   1.29071   1.29269
 Alpha virt. eigenvalues --    1.29391   1.29872   1.30132   1.30259   1.30657
 Alpha virt. eigenvalues --    1.30765   1.31084   1.31322   1.31934   1.31985
 Alpha virt. eigenvalues --    1.32273   1.32578   1.32809   1.32944   1.33167
 Alpha virt. eigenvalues --    1.33371   1.33823   1.33852   1.34003   1.34581
 Alpha virt. eigenvalues --    1.34740   1.34867   1.35076   1.35344   1.35775
 Alpha virt. eigenvalues --    1.36211   1.36755   1.36858   1.37148   1.37646
 Alpha virt. eigenvalues --    1.38023   1.38400   1.38674   1.38792   1.39499
 Alpha virt. eigenvalues --    1.39795   1.40302   1.40605   1.40767   1.41310
 Alpha virt. eigenvalues --    1.41539   1.41758   1.42079   1.42405   1.42553
 Alpha virt. eigenvalues --    1.42602   1.43241   1.43687   1.43879   1.43973
 Alpha virt. eigenvalues --    1.44605   1.44666   1.45051   1.45301   1.45799
 Alpha virt. eigenvalues --    1.46524   1.46833   1.47253   1.47482   1.47667
 Alpha virt. eigenvalues --    1.47962   1.48282   1.48805   1.49332   1.49455
 Alpha virt. eigenvalues --    1.49884   1.50115   1.50849   1.51038   1.51525
 Alpha virt. eigenvalues --    1.52238   1.52669   1.52959   1.53158   1.53322
 Alpha virt. eigenvalues --    1.53570   1.53831   1.54116   1.54324   1.54724
 Alpha virt. eigenvalues --    1.55295   1.55510   1.56237   1.56818   1.57098
 Alpha virt. eigenvalues --    1.57190   1.57548   1.57594   1.57723   1.57810
 Alpha virt. eigenvalues --    1.58117   1.58293   1.58572   1.58785   1.59007
 Alpha virt. eigenvalues --    1.59186   1.59410   1.59541   1.59717   1.59976
 Alpha virt. eigenvalues --    1.60055   1.60312   1.60587   1.60683   1.60952
 Alpha virt. eigenvalues --    1.61176   1.61384   1.61596   1.61747   1.61895
 Alpha virt. eigenvalues --    1.61976   1.62017   1.62219   1.62286   1.62559
 Alpha virt. eigenvalues --    1.62664   1.62829   1.63009   1.63276   1.63555
 Alpha virt. eigenvalues --    1.63707   1.64094   1.65005   1.65476   1.65614
 Alpha virt. eigenvalues --    1.65674   1.65932   1.66321   1.66850   1.67182
 Alpha virt. eigenvalues --    1.67252   1.67441   1.67609   1.68070   1.68565
 Alpha virt. eigenvalues --    1.68957   1.69052   1.69151   1.69538   1.69907
 Alpha virt. eigenvalues --    1.70300   1.70776   1.71027   1.71517   1.72021
 Alpha virt. eigenvalues --    1.72493   1.72870   1.73426   1.74678   1.75034
 Alpha virt. eigenvalues --    1.75354   1.75966   1.76437   1.76728   1.77029
 Alpha virt. eigenvalues --    1.77959   1.78085   1.78231   1.78585   1.79319
 Alpha virt. eigenvalues --    1.79613   1.80337   1.80560   1.81072   1.81161
 Alpha virt. eigenvalues --    1.81553   1.81994   1.82852   1.83294   1.83688
 Alpha virt. eigenvalues --    1.83937   1.84292   1.84883   1.85056   1.85293
 Alpha virt. eigenvalues --    1.85582   1.85736   1.86332   1.86483   1.86769
 Alpha virt. eigenvalues --    1.86893   1.87196   1.87470   1.87634   1.88331
 Alpha virt. eigenvalues --    1.88484   1.88590   1.88753   1.89114   1.89487
 Alpha virt. eigenvalues --    1.89661   1.90025   1.90407   1.90615   1.90689
 Alpha virt. eigenvalues --    1.90878   1.91087   1.92107   1.92272   1.92369
 Alpha virt. eigenvalues --    1.92700   1.93395   1.93494   1.93806   1.93920
 Alpha virt. eigenvalues --    1.94087   1.94272   1.94352   1.94561   1.94677
 Alpha virt. eigenvalues --    1.94746   1.95193   1.96006   1.96069   1.96403
 Alpha virt. eigenvalues --    1.96722   1.96988   1.97360   1.97621   1.97812
 Alpha virt. eigenvalues --    1.98023   1.98115   1.98343   1.99072   1.99157
 Alpha virt. eigenvalues --    1.99228   1.99468   1.99785   2.00107   2.00256
 Alpha virt. eigenvalues --    2.00653   2.00728   2.00995   2.01307   2.01522
 Alpha virt. eigenvalues --    2.01650   2.02085   2.02217   2.03384   2.03477
 Alpha virt. eigenvalues --    2.03899   2.04091   2.04170   2.04654   2.04916
 Alpha virt. eigenvalues --    2.05237   2.05515   2.05757   2.05789   2.06008
 Alpha virt. eigenvalues --    2.06051   2.06335   2.06451   2.07344   2.07880
 Alpha virt. eigenvalues --    2.08166   2.08312   2.08436   2.08865   2.08936
 Alpha virt. eigenvalues --    2.09041   2.09115   2.09308   2.09445   2.09535
 Alpha virt. eigenvalues --    2.09573   2.09826   2.10025   2.10405   2.10478
 Alpha virt. eigenvalues --    2.10574   2.10623   2.10845   2.10944   2.11232
 Alpha virt. eigenvalues --    2.11282   2.11523   2.11690   2.12242   2.12470
 Alpha virt. eigenvalues --    2.12727   2.12833   2.13043   2.13245   2.13328
 Alpha virt. eigenvalues --    2.13590   2.13876   2.13983   2.14142   2.14200
 Alpha virt. eigenvalues --    2.14394   2.14555   2.14909   2.15051   2.15221
 Alpha virt. eigenvalues --    2.15299   2.15479   2.15767   2.16037   2.16358
 Alpha virt. eigenvalues --    2.16657   2.16742   2.16772   2.17182   2.17198
 Alpha virt. eigenvalues --    2.17333   2.17551   2.17691   2.17926   2.18100
 Alpha virt. eigenvalues --    2.18353   2.18754   2.18825   2.19115   2.19307
 Alpha virt. eigenvalues --    2.19468   2.19633   2.19843   2.20126   2.20171
 Alpha virt. eigenvalues --    2.20404   2.20826   2.21022   2.21184   2.21476
 Alpha virt. eigenvalues --    2.22041   2.22378   2.22499   2.22712   2.23011
 Alpha virt. eigenvalues --    2.23335   2.23507   2.23514   2.23920   2.24001
 Alpha virt. eigenvalues --    2.24445   2.24651   2.24818   2.24954   2.25531
 Alpha virt. eigenvalues --    2.25812   2.26089   2.26483   2.26942   2.27106
 Alpha virt. eigenvalues --    2.27373   2.27880   2.27978   2.28100   2.28377
 Alpha virt. eigenvalues --    2.28622   2.28719   2.28978   2.29153   2.29278
 Alpha virt. eigenvalues --    2.29303   2.29695   2.29737   2.30006   2.30276
 Alpha virt. eigenvalues --    2.30485   2.30713   2.30901   2.31236   2.32094
 Alpha virt. eigenvalues --    2.32205   2.32429   2.32947   2.33135   2.33807
 Alpha virt. eigenvalues --    2.34114   2.34449   2.34876   2.35074   2.35424
 Alpha virt. eigenvalues --    2.35458   2.35539   2.36258   2.36559   2.36858
 Alpha virt. eigenvalues --    2.37471   2.37897   2.38020   2.38500   2.38656
 Alpha virt. eigenvalues --    2.38928   2.39008   2.39186   2.39273   2.39799
 Alpha virt. eigenvalues --    2.39916   2.40085   2.40438   2.40508   2.40908
 Alpha virt. eigenvalues --    2.41026   2.41170   2.41256   2.41522   2.41528
 Alpha virt. eigenvalues --    2.42108   2.42258   2.42336   2.42542   2.42815
 Alpha virt. eigenvalues --    2.42940   2.43193   2.43341   2.43510   2.43638
 Alpha virt. eigenvalues --    2.43876   2.44014   2.44289   2.44605   2.44702
 Alpha virt. eigenvalues --    2.44886   2.44919   2.45011   2.45315   2.45756
 Alpha virt. eigenvalues --    2.45929   2.46059   2.46128   2.46435   2.46578
 Alpha virt. eigenvalues --    2.46676   2.46791   2.46871   2.47169   2.47449
 Alpha virt. eigenvalues --    2.47719   2.47772   2.48078   2.48201   2.48366
 Alpha virt. eigenvalues --    2.48389   2.48614   2.48775   2.48924   2.49100
 Alpha virt. eigenvalues --    2.49625   2.50095   2.50579   2.50824   2.50999
 Alpha virt. eigenvalues --    2.51315   2.51364   2.51551   2.51680   2.51985
 Alpha virt. eigenvalues --    2.52188   2.52292   2.52935   2.53160   2.53806
 Alpha virt. eigenvalues --    2.53876   2.54130   2.54502   2.55220   2.55478
 Alpha virt. eigenvalues --    2.55911   2.56185   2.57028   2.57463   2.57928
 Alpha virt. eigenvalues --    2.58221   2.58603   2.59167   2.59249   2.59510
 Alpha virt. eigenvalues --    2.59585   2.60260   2.61239   2.62300   2.62654
 Alpha virt. eigenvalues --    2.62961   2.63021   2.63894   2.64078   2.64874
 Alpha virt. eigenvalues --    2.65256   2.65504   2.65680   2.65975   2.66107
 Alpha virt. eigenvalues --    2.66217   2.66669   2.66726   2.66879   2.67098
 Alpha virt. eigenvalues --    2.67591   2.67894   2.68454   2.68564   2.68746
 Alpha virt. eigenvalues --    2.69151   2.69490   2.69822   2.70073   2.70334
 Alpha virt. eigenvalues --    2.70497   2.70805   2.71010   2.71546   2.72072
 Alpha virt. eigenvalues --    2.72350   2.72798   2.73046   2.74047   2.74147
 Alpha virt. eigenvalues --    2.74775   2.75753   2.76282   2.76541   2.76621
 Alpha virt. eigenvalues --    2.76707   2.76880   2.78004   2.78211   2.78584
 Alpha virt. eigenvalues --    2.78764   2.79040   2.79068   2.79937   2.81031
 Alpha virt. eigenvalues --    2.81670   2.82223   2.82337   2.82443   2.82586
 Alpha virt. eigenvalues --    2.82933   2.83111   2.83174   2.83789   2.84071
 Alpha virt. eigenvalues --    2.84552   2.84637   2.85032   2.85383   2.85548
 Alpha virt. eigenvalues --    2.86379   2.86834   2.87150   2.87410   2.87829
 Alpha virt. eigenvalues --    2.88282   2.89003   2.89486   2.90072   2.90280
 Alpha virt. eigenvalues --    2.90454   2.90736   2.91137   2.91309   2.91646
 Alpha virt. eigenvalues --    2.91788   2.92345   2.92461   2.93382   2.94575
 Alpha virt. eigenvalues --    2.94701   2.94813   2.95632   2.95907   2.96507
 Alpha virt. eigenvalues --    2.96929   2.97786   2.97998   2.98356   3.00774
 Alpha virt. eigenvalues --    3.01962   3.02654   3.03576   3.05082   3.05186
 Alpha virt. eigenvalues --    3.05890   3.06532   3.07046   3.07762   3.07956
 Alpha virt. eigenvalues --    3.08759   3.09429   3.10799   3.11153   3.14717
 Alpha virt. eigenvalues --    3.15852   3.17629   3.18221   3.19707   3.20279
 Alpha virt. eigenvalues --    3.21415   3.22257   3.24029   3.24654   3.24949
 Alpha virt. eigenvalues --    3.27631   3.28214   3.30242   3.30447   3.35166
 Alpha virt. eigenvalues --    3.35793   3.38197   3.46349   3.58687   3.59855
 Alpha virt. eigenvalues --    3.64983   4.09826   4.09889   4.14206   4.19339
 Alpha virt. eigenvalues --    4.23069   4.24720   4.25397   4.28535   4.29515
 Alpha virt. eigenvalues --    4.29978   4.30483   4.30844   4.31469   4.32270
 Alpha virt. eigenvalues --    4.32693   4.33149   4.33604   4.33686   4.34570
 Alpha virt. eigenvalues --    4.35010   4.35096   4.35224   4.35534   4.35738
 Alpha virt. eigenvalues --    4.36443   4.37487   4.38149   4.38306   4.39219
 Alpha virt. eigenvalues --    4.39347   4.40966   4.40990   4.41689   4.41900
 Alpha virt. eigenvalues --    4.43254   4.44493   4.44538   4.45382   4.45667
 Alpha virt. eigenvalues --    4.45824   4.47167   4.47529   4.48294   4.48813
 Alpha virt. eigenvalues --    4.49304   4.49336   4.49903   4.50166   4.50881
 Alpha virt. eigenvalues --    4.51244   4.51458   4.51955   4.52220   4.52533
 Alpha virt. eigenvalues --    4.52874   4.53891   4.54646   4.55171   4.57379
 Alpha virt. eigenvalues --    4.58048   4.58335   4.59097   4.59668   4.60672
 Alpha virt. eigenvalues --    4.61472   4.62308   4.63665   4.63914   4.64590
 Alpha virt. eigenvalues --    4.64891   4.66131   4.66362   4.67103   4.67406
 Alpha virt. eigenvalues --    4.67787   4.70386   4.72264   4.72363   4.73572
 Alpha virt. eigenvalues --    4.74418   4.76455   4.76523   4.78041   4.78632
 Alpha virt. eigenvalues --    4.79358   4.81518   4.83391   4.88705   4.89248
 Alpha virt. eigenvalues --    4.90658   4.93342   4.94419   4.98399   5.01931
 Alpha virt. eigenvalues --    5.02703
          Condensed to atoms (all electrons):
 Mulliken charges:
               1
     1  H    0.148634
     2  C   -0.483886
     3  H    0.164642
     4  C   -0.373430
     5  H    0.151596
     6  H    0.159016
     7  C    0.140809
     8  C   -0.217122
     9  H    0.140220
    10  C   -0.204305
    11  H    0.158246
    12  C    0.345993
    13  O   -0.707383
    14  H    0.469400
    15  C   -0.244177
    16  H    0.187407
    17  C   -0.215589
    18  H    0.152512
    19  H    0.167694
    20  H    0.152137
    21  C   -0.487344
    22  H    0.152930
    23  C   -0.109540
    24  H    0.146554
    25  C   -0.491764
    26  H    0.156514
    27  H    0.153090
    28  H    0.168807
    29  C   -0.481920
    30  H    0.180609
    31  H    0.147666
    32  H    0.151238
    33  H    0.152770
    34  H    0.121211
    35  C   -0.486172
    36  H    0.176166
    37  C   -0.373348
    38  H    0.143306
    39  H    0.146741
    40  C    0.601166
    41  O   -0.620948
    42  O   -0.604272
    43  H    0.153374
    44  H    0.158358
    45  C   -0.593933
    46  H    0.221082
    47  H    0.210368
    48  C    0.599423
    49  O   -0.511831
    50  N   -0.617573
    51  H    0.340039
    52  C   -0.182627
    53  H    0.212496
    54  C   -0.295286
    55  H    0.138497
    56  H    0.152074
    57  C   -0.105425
    58  H    0.150701
    59  C   -0.497653
    60  H    0.175011
    61  H    0.153356
    62  H    0.157545
    63  C   -0.515953
    64  H    0.149270
    65  H    0.195057
    66  H    0.170354
    67  H    0.164574
    68  H    0.150366
    69  C   -0.490085
    70  H    0.162435
    71  C   -0.108691
    72  H    0.138610
    73  C   -0.495474
    74  H    0.154140
    75  H    0.157681
    76  H    0.182090
    77  C   -0.517649
    78  H    0.143352
    79  H    0.151931
    80  H    0.205967
    81  H    0.154321
    82  H    0.163913
    83  C   -0.506304
    84  H    0.158635
    85  C   -0.365266
    86  H    0.170034
    87  H    0.163615
    88  C    0.147740
    89  C   -0.211144
    90  H    0.142717
    91  C   -0.169429
    92  H    0.155058
    93  C   -0.175065
    94  H    0.180519
    95  C   -0.167315
    96  H    0.196670
    97  C   -0.211740
    98  H    0.145253
    99  H    0.173826
   100  H    0.146852
   101  C   -0.481408
   102  H    0.165627
   103  C   -0.124985
   104  H    0.145343
   105  C   -0.495783
   106  H    0.154950
   107  H    0.158375
   108  H    0.165528
   109  C   -0.491231
   110  H    0.164415
   111  H    0.174348
   112  H    0.158611
   113  H    0.156818
   114  H    0.182240
   115  C   -0.492645
   116  H    0.155131
   117  C   -0.316981
   118  H    0.167021
   119  H    0.167984
   120  C   -0.454167
   121  H    0.207443
   122  H    0.181298
   123  S    0.069925
   124  C   -0.651796
   125  H    0.205245
   126  H    0.200070
   127  H    0.200456
   128  H    0.164708
   129  H    0.154775
   130  C   -0.500765
   131  H    0.158969
   132  C   -0.287216
   133  H    0.147707
   134  H    0.148864
   135  C   -0.103148
   136  H    0.138105
   137  C   -0.497854
   138  H    0.147554
   139  H    0.152353
   140  H    0.170950
   141  C   -0.505656
   142  H    0.155706
   143  H    0.177928
   144  H    0.179979
   145  H    0.155259
   146  H    0.141674
   147  C   -0.492185
   148  H    0.167492
   149  C   -0.100568
   150  H    0.132834
   151  C   -0.500815
   152  H    0.178078
   153  H    0.141310
   154  H    0.174227
   155  C   -0.482981
   156  H    0.174853
   157  H    0.132492
   158  H    0.161727
   159  H    0.146985
   160  H    0.168856
   161  C   -0.494896
   162  H    0.188892
   163  C   -0.397942
   164  H    0.183692
   165  H    0.206352
   166  C    0.600311
   167  O   -0.492065
   168  O   -0.625231
   169  H    0.473764
   170  H    0.152521
   171  H    0.210043
   172  C   -0.504696
   173  H    0.130349
   174  C   -0.495128
   175  H    0.140615
   176  H    0.184375
   177  H    0.167012
   178  H    0.139617
   179  H    0.160182
   180  C   -0.478114
   181  H    0.136626
   182  C   -0.367023
   183  H    0.148050
   184  H    0.153091
   185  C    0.021217
   186  C   -0.013267
   187  H    0.166863
   188  N   -0.729584
   189  H    0.439171
   190  C    0.258062
   191  C   -0.200313
   192  H    0.213815
   193  C   -0.203303
   194  H    0.135287
[...]
   48 Atom       -0.373296      0.095988      0.277308
   49 Atom       -0.895513     -0.568319      1.463832
   50 Atom       -0.462325     -0.444883      0.907208
   51 Atom       -0.394404      0.160927      0.233477
   52 Atom       -0.290755      0.098519      0.192236
   53 Atom       -0.281376      0.134752      0.146624
   54 Atom       -0.034474      0.016372      0.018102
   55 Atom       -0.280993      0.135894      0.145099
   56 Atom       -0.281019      0.136806      0.144213
   57 Atom       -0.037755     -0.007704      0.045459
   58 Atom       -0.279663      0.138925      0.140738
   59 Atom       -0.025463      0.006985      0.018478
   60 Atom       -0.290798      0.142351      0.148447
   61 Atom       -0.291153      0.142324      0.148828
   62 Atom       -0.288420      0.140655      0.147766
   63 Atom       -0.049314      0.001946      0.047367
   64 Atom       -0.288010      0.139883      0.148126
   65 Atom       -0.282113      0.138150      0.143963
   66 Atom       -0.290623      0.140711      0.149913
   67 Atom       -0.283329      0.133946      0.149384
   68 Atom       -0.291918      0.143219      0.148699
   69 Atom       -0.022494      0.001972      0.020522
   70 Atom       -0.292329      0.143333      0.148996
   71 Atom       -0.022075     -0.008949      0.031024
   72 Atom       -0.279708      0.139001      0.140707
   73 Atom       -0.031691      0.003565      0.028126
   74 Atom       -0.291367      0.142574      0.148793
   75 Atom       -0.287346      0.139716      0.147630
   76 Atom       -0.290040      0.141668      0.148372
   77 Atom       -0.037904     -0.006164      0.044068
   78 Atom       -0.288123      0.140335      0.147788
   79 Atom       -0.291447      0.142667      0.148781
   80 Atom       -0.278432      0.136543      0.141889
   81 Atom       -0.291467      0.142963      0.148504
   82 Atom       -0.291426      0.143847      0.147579
   83 Atom       -0.036447      0.013997      0.022450
   84 Atom       -0.294181      0.144250      0.149930
   85 Atom       -0.036614     -0.002443      0.039057
   86 Atom       -0.282941      0.136372      0.146569
   87 Atom       -0.284017      0.137269      0.146748
   88 Atom       -0.264309      0.085360      0.178949
   89 Atom       -0.220299      0.071258      0.149042
   90 Atom       -0.299624      0.139274      0.160350
   91 Atom       -0.265712      0.103330      0.162382
   92 Atom       -0.301846      0.141999      0.159847
   93 Atom       -0.281336      0.133885      0.147452
   94 Atom       -0.300022      0.143326      0.156696
   95 Atom       -0.309865      0.143098      0.166767
   96 Atom       -0.294360      0.141484      0.152877
   97 Atom       -0.240637      0.091431      0.149207
   98 Atom       -0.303045      0.141539      0.161506
   99 Atom       -0.289881      0.143192      0.146690
  100 Atom       -0.289033      0.141301      0.147733
  101 Atom       -0.024595      0.007545      0.017050
  102 Atom       -0.290469      0.141478      0.148991
  103 Atom       -0.024636     -0.001112      0.025748
  104 Atom       -0.277629      0.136906      0.140723
  105 Atom       -0.020078      0.007788      0.012290
  106 Atom       -0.289645      0.141620      0.148026
  107 Atom       -0.291047      0.142564      0.148483
  108 Atom       -0.289275      0.141818      0.147457
  109 Atom       -0.032136      0.009424      0.022712
  110 Atom       -0.287161      0.139858      0.147304
  111 Atom       -0.291983      0.142263      0.149720
  112 Atom       -0.289396      0.141466      0.147930
  113 Atom       -0.291192      0.141990      0.149202
  114 Atom       -0.290748      0.141270      0.149478
  115 Atom       -0.043928      0.010515      0.033413
  116 Atom       -0.293545      0.143476      0.150070
  117 Atom       -0.059057      0.011003      0.048053
  118 Atom       -0.283116      0.138714      0.144402
  119 Atom       -0.284856      0.138453      0.146403
  120 Atom       -0.216964      0.074752      0.142211
  121 Atom       -0.274997      0.131048      0.143949
  122 Atom       -0.282469      0.135609      0.146860
  123 Atom       -2.298575     -0.556580      2.855155
  124 Atom       -0.212367      0.098343      0.114025
  125 Atom       -0.290996      0.140835      0.150162
  126 Atom       -0.290504      0.140688      0.149816
  127 Atom       -0.294364      0.140744      0.153620
  128 Atom       -0.290650      0.141487      0.149163
  129 Atom       -0.292960      0.145072      0.147887
  130 Atom       -0.014294      0.002170      0.012124
  131 Atom       -0.293159      0.144685      0.148474
  132 Atom       -0.037884      0.006650      0.031234
  133 Atom       -0.281473      0.136939      0.144535
  134 Atom       -0.281482      0.137614      0.143868
  135 Atom       -0.033200     -0.000020      0.033220
  136 Atom       -0.276193      0.136800      0.139393
  137 Atom       -0.017577      0.002474      0.015103
  138 Atom       -0.293488      0.144569      0.148920
  139 Atom       -0.288349      0.141317      0.147032
  140 Atom       -0.290642      0.142506      0.148136
  141 Atom       -0.043698      0.010735      0.032963
  142 Atom       -0.290504      0.142392      0.148112
  143 Atom       -0.284022      0.138761      0.145260
  144 Atom       -0.289700      0.140970      0.148730
  145 Atom       -0.290218      0.143062      0.147156
  146 Atom       -0.291711      0.143458      0.148252
  147 Atom       -0.007081     -0.001290      0.008371
  148 Atom       -0.288479      0.141226      0.147253
  149 Atom       -0.033600     -0.002448      0.036048
  150 Atom       -0.281482      0.139865      0.141617
  151 Atom       -0.035058      0.000126      0.034932
  152 Atom       -0.286585      0.140581      0.146004
  153 Atom       -0.291876      0.142810      0.149067
  154 Atom       -0.281333      0.136853      0.144480
  155 Atom       -0.034183     -0.008673      0.042856
  156 Atom       -0.289086      0.141660      0.147426
  157 Atom       -0.292601      0.142203      0.150398
  158 Atom       -0.288870      0.140894      0.147976
  159 Atom       -0.291602      0.143581      0.148021
  160 Atom       -0.294039      0.141683      0.152356
  161 Atom       -0.061936      0.020768      0.041168
  162 Atom       -0.292233      0.140719      0.151514
  163 Atom       -0.058556      0.015312      0.043244
  164 Atom       -0.286979      0.138979      0.148001
  165 Atom       -0.284073      0.137300      0.146773
  166 Atom       -0.403709      0.046783      0.356926
  167 Atom       -0.769684     -0.712438      1.482122
  168 Atom       -1.283407      0.406768      0.876639
  169 Atom       -0.309115      0.139001      0.170115
  170 Atom       -0.294470      0.143641      0.150829
  171 Atom       -0.286189      0.141250      0.144939
  172 Atom       -0.046104     -0.022586      0.068690
  173 Atom       -0.293075      0.142663      0.150411
  174 Atom       -0.054212      0.013007      0.041205
  175 Atom       -0.292134      0.144317      0.147818
  176 Atom       -0.295196      0.138996      0.156199
  177 Atom       -0.290719      0.140303      0.150416
  178 Atom       -0.292815      0.142091      0.150724
  179 Atom       -0.292694      0.143188      0.149506
  180 Atom       -0.032138      0.006791      0.025346
  181 Atom       -0.291749      0.143574      0.148175
  182 Atom       -0.041556      0.002908      0.038648
  183 Atom       -0.283889      0.140909      0.142980
  184 Atom       -0.285326      0.141414      0.143912
  185 Atom       -0.058879      0.000308      0.058571
  186 Atom       -0.126697     -0.074687      0.201384
  187 Atom       -0.309632      0.142636      0.166996
  188 Atom       -0.431129     -0.063433      0.494563
  189 Atom       -0.231654      0.091148      0.140506
  190 Atom       -0.148802     -0.076877      0.225678
  191 Atom       -0.253674      0.086331      0.167343
  192 Atom       -0.282179      0.133475      0.148705
  193 Atom       -0.203961      0.069505      0.134457
  194 Atom       -0.305475      0.142873      0.162602
  195 Atom       -0.190830      0.061967      0.128862
  196 Atom       -0.306306      0.142105      0.164201
  197 Atom       -0.209274      0.064375      0.144899
  198 Atom       -0.303961      0.143409      0.160553
  199 Atom       -0.190516      0.084077      0.106439
  200 Atom       -0.291631      0.142692      0.148939
  201 Atom       -0.558424      0.172431      0.385993
  202 Atom       -0.859415     -0.542878      1.402294
  203 Atom       -0.124879      0.011922      0.112956
  204 Atom       -0.552457      0.226308      0.326149
  205 Atom       -0.040824      0.016296      0.024528
  206 Atom       -0.039501      0.000455      0.039046
  207 Atom       -0.042625     -0.006533      0.049158
  208 Atom       -0.121478      0.005044      0.116434
  209 Atom       -0.047084     -0.027029      0.074113
  210 Atom       -0.039237      0.008496      0.030741
  211 Atom       -0.049554      0.013678      0.035876
  212 Atom       -0.022967      0.006039      0.016928
  213 Atom       -0.026468      0.000490      0.025978
  214 Atom       -0.028175      0.001690      0.026484
  215 Atom       -0.023365     -0.002303      0.025668
  216 Atom       -0.086165      0.015354      0.070811
  217 Atom       -0.047022      0.002273      0.044750
  218 Atom       -0.324187      0.156141      0.168046
  219 Atom       -0.043506      0.018178      0.025328
  220 Atom       -1.607734     -0.158062      1.765796
  221 Atom       -0.295527      0.132324      0.163204
  222 Atom       -0.268558      0.132949      0.135608
  223 Atom       -0.280279      0.136317      0.143963
  224 Atom       -0.289200      0.141403      0.147798
  225 Atom       -0.280240      0.135461      0.144779
  226 Atom       -0.284134      0.136312      0.147823
  227 Atom       -0.289351      0.135676      0.153675
  228 Atom       -0.224746      0.107954      0.116792
  229 Atom       -0.281236      0.137708      0.143528
  230 Atom       -0.281453      0.137954      0.143499
  231 Atom       -0.273369      0.135292      0.138077
  232 Atom       -0.269894      0.134614      0.135280
  233 Atom       -0.266675      0.130277      0.136398
  234 Atom       -0.279736      0.137203      0.142533
  235 Atom       -0.282528      0.136471      0.146057
  236 Atom       -0.282113      0.139275      0.142838
  237 Atom       -0.288335      0.141039      0.147296
  238 Atom       -0.293589      0.143869      0.149720
  239 Atom       -0.286874      0.140329      0.146545
  240 Atom       -0.292062      0.143888      0.148174
  241 Atom       -0.291049      0.144712      0.146337
  242 Atom       -0.268010      0.127618      0.140392
  243 Atom       -0.294743      0.141366      0.153377
  244 Atom       -0.287741      0.136828      0.150913
  245 Atom       -0.294528      0.143142      0.151386
  246 Atom       -0.449316      0.196817      0.252500
 -----------------------------------------------------
 Unable to Open any file for archive entry.
 1\1\GINC-EXP-3-41\SP\RwB97XD\6-31G(d)\C84H151N2O8S1(1-)\HKLEM\16-Jul-2
 024\0\\# 6-31G(d) wb97xd prop=efg\\19nt_mm_min_distance_cutoff3_nowat\
 \-1,1\H,0,-8.218694,6.785896,-4.340771\C,-1,-7.639767,6.321575,-3.5340
 04\H,0,-6.862153,7.025695,-3.218229\C,0,-8.532923,5.940549,-2.350258\H
 ,0,-9.044477,6.835941,-1.97622\H,0,-9.318431,5.256899,-2.697129\C,0,-7
 .753483,5.296088,-1.229053\C,0,-7.398652,6.007428,-0.081758\H,0,-7.709
 738,7.045454,0.019774\C,0,-6.665638,5.417696,0.940449\H,0,-6.402326,5.
 971002,1.83645\C,0,-6.264545,4.084093,0.834206\O,0,-5.578274,3.543213,
 1.862778\H,0,-5.350932,2.612076,1.643911\C,0,-6.592649,3.36093,-0.3188
 25\H,0,-6.282112,2.324509,-0.411528\C,0,-7.329495,3.969412,-1.327066\H
 ,0,-7.587447,3.389817,-2.211497\H,0,-7.136464,5.437666,-3.940326\H,0,-
 2.059432,8.080774,-2.464207\C,-1,-1.55254,7.267226,-1.932723\H,0,-1.36
 9688,7.601544,-0.9034\C,0,-2.400839,5.9889,-1.937396\H,0,-2.567694,5.7
 00634,-2.984841\C,0,-1.669189,4.833399,-1.247506\H,0,-0.696054,4.63275
 9,-1.711515\H,0,-1.492656,5.063644,-0.188554\H,0,-2.262845,3.913001,-1
 .291652\C,0,-3.768006,6.22527,-1.288804\H,0,-4.398709,5.33031,-1.33114
 8\H,0,-4.310834,7.038608,-1.78439\H,0,-3.654758,6.49614,-0.231244\H,0,
 -0.579377,7.101687,-2.409428\H,0,-3.7267,-3.998149,7.854022\C,-1,-3.27
 1662,-4.063826,6.85771\H,0,-4.013342,-4.44564,6.15188\C,0,-2.756817,-2
 .703494,6.383621\H,0,-1.997388,-2.303928,7.06363\H,0,-3.586628,-1.9827
 7,6.372845\C,0,-2.162008,-2.746579,4.960906\O,0,-2.760529,-3.500245,4.
 139586\O,0,-1.153126,-2.041789,4.729015\H,0,-2.455691,-4.793889,6.9043
 41\H,0,3.177633,4.846779,6.693769\C,-1,3.48125,4.142335,5.914198\H,0,2
 .726555,3.357288,5.822268\H,0,4.419783,3.664188,6.205932\C,0,3.67664,4
 .785894,4.539857\O,0,3.994726,4.116789,3.565469\N,0,3.493764,6.137488,
 4.478867\H,0,3.180806,6.611214,5.312242\C,-1,3.610317,6.931752,3.25878
 4\H,0,4.089563,6.288704,2.517237\C,0,2.264619,7.45552,2.753074\H,0,1.8
 28041,8.109461,3.522269\H,0,2.45875,8.096725,1.881064\C,0,1.239218,6.3
 80821,2.366214\H,0,1.072295,5.740784,3.243707\C,0,-0.093333,7.039752,2
 .000268\H,0,-0.857852,6.286947,1.779911\H,0,-0.46882,7.67099,2.814123\
 H,0,0.01865,7.670408,1.109088\C,0,1.739131,5.494535,1.222855\H,0,2.042
 82,6.103346,0.360611\H,0,2.587656,4.876278,1.532946\H,0,0.944686,4.821
 055,0.883244\H,0,4.286651,7.772364,3.4537\H,0,6.959307,6.180972,-1.452
 355\C,-1,6.12533,5.625049,-1.896214\H,0,6.536751,4.755308,-2.416207\C,
 0,5.107892,5.19432,-0.830587\H,0,4.652354,6.104511,-0.412998\C,0,3.994
 309,4.351515,-1.456877\H,0,3.486148,4.892842,-2.263458\H,0,4.409916,3.
 428784,-1.883414\H,0,3.241855,4.060818,-0.716768\C,0,5.773386,4.440008
 ,0.325111\H,0,6.120016,3.453192,-0.010971\H,0,6.643807,4.984554,0.7098
 29\H,0,5.081669,4.286402,1.161353\H,0,5.652822,6.266388,-2.649343\H,0,
 -3.280659,-2.335658,-7.692153\C,-1,-2.231143,-2.554197,-7.466882\H,0,-
 1.721117,-2.763264,-8.412545\C,0,-1.556274,-1.384401,-6.749091\H,0,-0.
 495059,-1.626165,-6.601641\H,0,-1.56934,-0.506031,-7.408701\C,0,-2.139
 202,-0.988657,-5.403265\C,0,-1.519224,0.031588,-4.671734\H,0,-0.644334
 ,0.526364,-5.09102\C,0,-1.987201,0.408414,-3.417647\H,0,-1.473957,1.19
 1574,-2.864839\C,0,-3.097697,-0.229807,-2.865811\H,0,-3.470521,0.03437
 7,-1.881159\C,0,-3.731991,-1.235787,-3.586275\H,0,-4.585222,-1.740318,
 -3.144426\C,0,-3.256776,-1.607543,-4.844103\H,0,-3.76059,-2.40664,-5.3
 80499\H,0,-2.198966,-3.464253,-6.857786\H,0,2.65513,0.16228,-5.219933\
 C,-1,3.378718,0.119398,-4.39527\H,0,4.104476,0.928745,-4.534242\C,0,2.
 657783,0.230562,-3.050001\H,0,3.417021,0.229725,-2.252569\C,0,1.876655
 ,1.542345,-2.943726\H,0,1.082674,1.578981,-3.700652\H,0,2.527076,2.411
 105,-3.095897\H,0,1.403166,1.643844,-1.959805\C,0,1.740096,-0.970374,-
 2.837809\H,0,0.980916,-1.021884,-3.626812\H,0,1.208044,-0.911049,-1.88
 3186\H,0,2.302053,-1.912128,-2.849903\H,0,3.919967,-0.830127,-4.476992
 \H,0,9.825453,1.592205,-3.06635\C,-1,9.545588,2.268937,-2.253094\H,0,1
 0.080752,3.213541,-2.396411\C,0,8.038367,2.508781,-2.212666\H,0,7.7125
 71,2.964918,-3.156366\H,0,7.820807,3.237368,-1.424199\C,0,7.1851,1.270
 267,-1.936135\H,0,7.471598,0.799131,-0.988655\H,0,6.130939,1.563725,-1
 .849877\S,0,7.331011,0.053914,-3.28877\C,0,6.315572,-1.279422,-2.60231
 9\H,0,6.734242,-1.64875,-1.66203\H,0,5.285657,-0.951512,-2.436235\H,0,
 6.306498,-2.092195,-3.332006\H,0,9.892607,1.820946,-1.314965\H,0,6.095
 854,-4.396273,-3.447786\C,-1,5.088276,-4.822146,-3.50949\H,0,5.201821,
 -5.901995,-3.650477\C,0,4.275774,-4.496415,-2.25649\H,0,4.256936,-3.40
 647,-2.111761\H,0,4.7831,-4.909132,-1.372495\C,0,2.826501,-5.008661,-2
 .270081\H,0,2.314895,-4.561651,-3.136953\C,0,2.750023,-6.53116,-2.4089
 37\H,0,3.202284,-6.888796,-3.340327\H,0,3.265422,-7.019043,-1.570883\H
 ,0,1.707715,-6.867076,-2.398389\C,0,2.109835,-4.552821,-1.000969\H,0,2
 .091854,-3.460105,-0.931211\H,0,2.612952,-4.937598,-0.106788\H,0,1.074
 471,-4.905861,-0.95454\H,0,4.605167,-4.416887,-4.407132\H,0,-0.764003,
 -5.709426,-4.088052\C,-1,-1.201322,-5.637792,-3.084473\H,0,-0.411429,-
 5.866171,-2.358569\C,0,-1.778354,-4.245494,-2.825282\H,0,-2.578154,-4.
 06307,-3.556404\C,0,-2.384574,-4.146177,-1.424752\H,0,-2.850227,-3.167
 027,-1.264069\H,0,-3.154034,-4.911927,-1.265445\H,0,-1.613366,-4.29150
 7,-0.656959\C,0,-0.709152,-3.174656,-3.02474\H,0,-1.112931,-2.175206,-
 2.842172\H,0,-0.307098,-3.194481,-4.045559\H,0,0.124913,-3.332835,-2.3
 31929\H,0,-1.969456,-6.415273,-2.991352\H,0,-7.344997,-3.295878,-2.262
 771\C,-1,-7.244312,-3.818032,-1.30659\H,0,-6.255805,-4.285853,-1.29059
 1\C,0,-7.40674,-2.855428,-0.139016\H,0,-8.402925,-2.396816,-0.131318\H
 ,0,-7.308724,-3.378108,0.819564\C,0,-6.386079,-1.737875,-0.134475\O,0,
 -5.515239,-1.594582,-0.970299\O,0,-6.547875,-0.931132,0.907168\H,0,-5.
 825844,-0.249411,0.90889\H,0,-8.000856,-4.607581,-1.260001\H,0,-4.6855
 49,-4.987144,3.374361\C,-1,-5.024638,-5.074119,2.338361\H,0,-6.12015,-
 5.138225,2.326728\C,0,-4.522529,-3.869974,1.547151\H,0,-4.7683,-3.9385
 33,0.482012\H,0,-3.438925,-3.770558,1.643003\H,0,-4.949981,-2.944217,1
 .945561\H,0,-4.63644,-6.015281,1.930205\H,0,-1.271433,-9.025715,1.4017
 71\C,-1,-0.300906,-8.958971,0.89898\H,0,-0.240302,-9.761554,0.153395\C
 ,0,-0.12735,-7.576207,0.256636\H,0,0.828369,-7.544662,-0.283755\H,0,-0
 .910266,-7.426351,-0.497929\C,0,-0.177446,-6.467314,1.262568\C,0,-1.29
 3132,-5.777582,1.670448\H,0,-2.311017,-5.86317,1.312635\N,0,-0.988017,
 -4.886289,2.658517\H,0,-1.672511,-4.288128,3.178066\C,0,0.349764,-4.98
 2002,2.926382\C,0,1.130848,-4.255833,3.835018\H,0,0.673322,-3.479777,4
 .444619\C,0,2.481043,-4.555541,3.888598\H,0,3.119888,-4.012595,4.58091
 5\C,0,3.05061,-5.545436,3.058896\H,0,4.116157,-5.749454,3.129459\C,0,2
 .274259,-6.253721,2.158094\H,0,2.721587,-7.01227,1.518224\C,0,0.89975,
 -5.973675,2.073459\H,0,0.474116,-9.130691,1.653912\C,0,-3.482562,0.940
 347,1.195245\O,0,-4.721789,1.046499,1.107898\C,0,-2.807454,-0.322286,1
 .058547\C,0,-1.486466,-0.4667,1.339701\C,0,-0.585306,0.723643,1.597577
 \C,0,-1.220772,2.025877,1.105229\C,0,-2.667711,2.157396,1.550491\C,0,-
 0.895602,-1.82227,1.530145\C,0,0.534899,-1.974232,1.011414\C,0,1.42590
 2,-0.827224,1.49053\C,0,0.822029,0.506506,0.99653\C,0,2.866477,-0.9451
 73,1.003111\C,0,3.754564,0.250162,1.407634\C,0,3.174246,1.522051,0.795
 385\C,0,1.72139,1.733058,1.231509\C,0,3.706842,-2.162336,1.410434\C,0,
 5.163919,-1.716841,1.116527\C,0,5.090697,-0.209287,0.795292\C,0,3.9060
 37,0.411764,2.930435\O,0,6.251866,0.453776,1.268378\H,0,-3.424423,-1.1
 93067,0.854174\H,0,-0.466994,0.772991,2.694081\H,0,-1.170765,2.050506,
 0.007275\H,0,-0.655925,2.889886,1.467431\H,0,-2.720411,2.259255,2.6443
 92\H,0,-3.149437,3.046439,1.133372\H,0,-1.55149,-2.584406,1.1013\H,0,-
 0.909484,-1.985186,2.628462\H,0,0.530866,-1.997083,-0.087719\H,0,0.930
 09,-2.936973,1.349019\H,0,1.414323,-0.840116,2.590522\H,0,0.695684,0.4
 04671,-0.095091\H,0,2.825651,-0.934842,-0.101114\H,0,3.215644,1.444919
 ,-0.300935\H,0,3.762549,2.404636,1.078314\H,0,1.69502,2.018044,2.2922\
 H,0,1.321013,2.587869,0.676363\H,0,3.429128,-3.068324,0.870714\H,0,3.5
 62231,-2.384609,2.472312\H,0,5.600052,-2.277652,0.283517\H,0,5.821051,
 -1.861706,1.979593\H,0,5.018681,-0.070869,-0.297369\H,0,4.463382,-0.41
 6279,3.37698\H,0,4.438752,1.339427,3.163866\H,0,2.935753,0.463128,3.43
 1498\H,0,6.078108,1.402866,1.21881\\Version=ES64L-G16RevC.01\State=1-A
 \HF=-4400.5311353\RMSD=4.102e-09\Dipole=2.5583197,5.6010329,-2.5835574
 \Quadrupole=-30.1890829,15.221718,14.9673649,18.1903736,31.9993337,51.
 2888735\PG=C01 [X(C84H151N2O8S1)]\\@
 The archive entry for this job was punched.


 THE WORLD IS NOT A HAMBURGER - YOU CAN'T HAVE IT YOUR WAY.
 Job cpu time:       0 days  2 hours 56 minutes 56.2 seconds.
 Elapsed time:       0 days  0 hours  5 minutes 49.6 seconds.
 File lengths (MBytes):  RWF=   1612 Int=      0 D2E=      0 Chk=    173 Scr=      1
 Normal termination of Gaussian 16 at Tue Jul 16 07:23:59 2024.
