 Entering Gaussian System, Link 0=g16
 Initial command:
 /cm/shared/apps/spack/cpu/opt/spack/linux-centos8-zen/gcc-8.3.1/gaussian-16.C.01-po5bqktfeugvmjyga3v7eigbecnokxng/g16/l1.exe "/scratch/hklem/job_32090252/Gau-2463407.inp" -scrdir="/scratch/hklem/job_32090252/"
 Entering Link 1 = /cm/shared/apps/spack/cpu/opt/spack/linux-centos8-zen/gcc-8.3.1/gaussian-16.C.01-po5bqktfeugvmjyga3v7eigbecnokxng/g16/l1.exe PID=   2463419.
  
 Copyright (c) 1988-2019, Gaussian, Inc.  All Rights Reserved.
  
 This is part of the Gaussian(R) 16 program.  It is based on
 the Gaussian(R) 09 system (copyright 2009, Gaussian, Inc.),
 the Gaussian(R) 03 system (copyright 2003, Gaussian, Inc.),
 the Gaussian(R) 98 system (copyright 1998, Gaussian, Inc.),
 the Gaussian(R) 94 system (copyright 1995, Gaussian, Inc.),
 the Gaussian 92(TM) system (copyright 1992, Gaussian, Inc.),
 the Gaussian 90(TM) system (copyright 1990, Gaussian, Inc.),
 the Gaussian 88(TM) system (copyright 1988, Gaussian, Inc.),
 the Gaussian 86(TM) system (copyright 1986, Carnegie Mellon
 University), and the Gaussian 82(TM) system (copyright 1983,
 Carnegie Mellon University). Gaussian is a federally registered
 trademark of Gaussian, Inc.
  
 This software contains proprietary and confidential information,
 including trade secrets, belonging to Gaussian, Inc.
  
 This software is provided under written license and may be
 used, copied, transmitted, or stored only in accord with that
 written license.
  
 The following legend is applicable only to US Government
 contracts under FAR:
  
                    RESTRICTED RIGHTS LEGEND
  
 Use, reproduction and disclosure by the US Government is
 subject to restrictions as set forth in subparagraphs (a)
 and (c) of the Commercial Computer Software - Restricted
 Rights clause in FAR 52.227-19.
  
 Gaussian, Inc.
 340 Quinnipiac St., Bldg. 40, Wallingford CT 06492
  
  
 ---------------------------------------------------------------
 Warning -- This program may not be used in any manner that
 competes with the business of Gaussian, Inc. or will provide
 assistance to any competitor of Gaussian, Inc.  The licensee
 of this program is prohibited from giving any competitor of
 Gaussian, Inc. access to this program.  By using this program,
 the user acknowledges that Gaussian, Inc. is engaged in the
 business of creating and licensing software in the field of
 computational chemistry and represents and warrants to the
 licensee that it is not a competitor of Gaussian, Inc. and that
 it will not use this program in any manner prohibited above.
 ---------------------------------------------------------------
  

 Cite this work as:
 Gaussian 16, Revision C.01,
 M. J. Frisch, G. W. Trucks, H. B. Schlegel, G. E. Scuseria, 
 M. A. Robb, J. R. Cheeseman, G. Scalmani, V. Barone, 
 G. A. Petersson, H. Nakatsuji, X. Li, M. Caricato, A. V. Marenich, 
 J. Bloino, B. G. Janesko, R. Gomperts, B. Mennucci, H. P. Hratchian, 
 J. V. Ortiz, A. F. Izmaylov, J. L. Sonnenberg, D. Williams-Young, 
 F. Ding, F. Lipparini, F. Egidi, J. Goings, B. Peng, A. Petrone, 
 T. Henderson, D. Ranasinghe, V. G. Zakrzewski, J. Gao, N. Rega, 
 G. Zheng, W. Liang, M. Hada, M. Ehara, K. Toyota, R. Fukuda, 
 J. Hasegawa, M. Ishida, T. Nakajima, Y. Honda, O. Kitao, H. Nakai, 
 T. Vreven, K. Throssell, J. A. Montgomery, Jr., J. E. Peralta, 
 F. Ogliaro, M. J. Bearpark, J. J. Heyd, E. N. Brothers, K. N. Kudin, 
 V. N. Staroverov, T. A. Keith, R. Kobayashi, J. Normand, 
 K. Raghavachari, A. P. Rendell, J. C. Burant, S. S. Iyengar, 
 J. Tomasi, M. Cossi, J. M. Millam, M. Klene, C. Adamo, R. Cammi, 
 J. W. Ochterski, R. L. Martin, K. Morokuma, O. Farkas, 
 J. B. Foresman, and D. J. Fox, Gaussian, Inc., Wallingford CT, 2019.
 
 ******************************************
 Gaussian 16:  ES64L-G16RevC.01  3-Jul-2019
                11-Jul-2024 
 ******************************************
 %nprocshared=32
 Will use up to   32 processors via shared memory.
 %mem=64GB
 --------------------------
 # wb97xd/6-31G(d) prop=efg
 --------------------------
 1/38=1,172=1/1;
 2/12=2,17=6,18=5,40=1/2;
 3/5=1,6=6,7=1,11=2,25=1,30=1,74=-58/1,2,3;
 4//1;
 5/5=2,38=5/2;
 6/7=2,8=2,9=2,10=2,14=1,28=1/1,2;
 99/5=1,9=1/99;
 ---------------------------------------------
 19nt_mm_min_distance_cutoff4_nowat_xtb_conf_1
 ---------------------------------------------
 Symbolic Z-matrix:
 Charge = -1 Multiplicity = 1
 H                     46.9995   33.7396   30.8221 
 C                     46.354    34.588    30.601 
 H                     46.3036   34.7132   29.5219 
 C                     44.9555   34.3687   31.1772 
 H                     44.5208   33.4687   30.7352 
 H                     45.0271   34.2176   32.2563 
 C                     44.0831   35.5562   30.8844 
 C                     43.492    35.7029   29.636 
 H                     43.6326   34.9365   28.8866 
 C                     42.7238   36.8087   29.3351 
 H                     42.2655   36.9091   28.3634 
 C                     42.5288   37.8001   30.2942 
 O                     41.7583   38.8696   29.9748 
 H                     41.7339   39.5208   30.7291 
 C                     43.1228   37.6674   31.5434 
 H                     42.9733   38.4348   32.2879 
 C                     43.8925   36.5557   31.8275 
 H                     44.3485   36.4645   32.8034 
 H                     46.8003   35.4837   31.0276 
 H                     48.9566   38.6316   26.5814 
 C                     48.063    39.251    26.62 
 H                     47.4722   39.06     25.7262 
 C                     47.2428   38.9346   27.8714 
 H                     47.866    39.1306   28.7515 
 C                     46.0035   39.822    27.9516 
 H                     46.2812   40.8739   27.9326 
 H                     45.3389   39.6185   27.1139 
 H                     45.4576   39.6276   28.8722 
 C                     46.8291   37.4653   27.8882 
 H                     46.2335   37.2496   28.7726 
 H                     47.7023   36.8158   27.8912 
 H                     46.2289   37.2332   27.0103 
 H                     48.3667   40.2954   26.6167 
 H                     36.0936   46.5078   32.4858 
 C                     37.164    46.712    32.465 
 H                     37.601    46.4067   33.4139 
 C                     37.837    45.9587   31.3254 
 H                     37.4706   46.3037   30.356 
 H                     37.6107   44.8896   31.4055 
 C                     39.3923   46.0562   31.3016 
 O                     39.9864   46.1794   32.3916 
 O                     39.9186   45.9508   30.1829 
 H                     37.3132   47.7848   32.3531 
 H                     39.7373   42.4599   23.1576 
 C                     40.763    42.802    23.272 
 H                     40.8216   43.3956   24.1816 
 C                     41.7151   41.6089   23.3594 
 H                     41.6621   41.0368   22.4291 
 H                     42.7373   41.9723   23.4796 
 C                     41.3469   40.7289   24.5216 
 C                     40.2867   39.8366   24.4162 
 H                     39.76     39.7446   23.4761 
 C                     39.8913   39.0687   25.4912 
 H                     39.0628   38.3817   25.4126 
 C                     40.5592   39.1729   26.7101 
 O                     40.1316   38.4135   27.7426 
 H                     40.6744   38.5898   28.5369 
 C                     41.6369   40.0465   26.8163 
 H                     42.1756   40.1174   27.7498 
 C                     42.0132   40.8205   25.7348 
 H                     42.8403   41.5079   25.8404 
 H                     41.0118   43.4368   22.4225 
 H                     42.4888   46.4882   24.2695 
 C                     43.019    47.115    23.555 
 H                     43.0177   48.139    23.9145 
 H                     42.518    47.0576   22.5924 
 C                     44.4708   46.6378   23.4471 
 O                     45.3838   47.2152   24.0114 
 N                     44.6789   45.532    22.6953 
 H                     43.8854   45.0744   22.2734 
 C                     45.983    44.912    22.455 
 H                     46.7013   45.4547   23.0691 
 C                     45.9822   43.4229   22.7834 
 H                     45.2763   42.9146   22.1192 
 H                     46.9789   43.0337   22.564 
 C                     45.6227   43.0854   24.2352 
 H                     44.6153   43.4641   24.4438 
 C                     45.6283   41.5682   24.4114 
 H                     45.3342   41.3015   25.4222 
 H                     44.9424   41.0857   23.7176 
 H                     46.6271   41.1746   24.2331 
 C                     46.5883   43.7267   25.2266 
 H                     47.6101   43.4161   25.0182 
 H                     46.5343   44.8101   25.1818 
 H                     46.3381   43.4196   26.2393 
 H                     46.2487   45.0535   21.4008 
 H                     51.5365   46.0486   23.6852 
 C                     51.26     46.169    24.731 
 H                     51.6594   47.1169   25.0853 
 C                     49.7402   46.134    24.8967 
 H                     49.3814   45.1561   24.5532 
 C                     49.3606   46.2977   26.3654 
 H                     49.7753   45.4889   26.9626 
 H                     49.7416   47.2372   26.7589 
 H                     48.2797   46.2906   26.4831 
 C                     49.074    47.2132   24.0458 
 H                     49.4253   48.1999   24.3377 
 H                     49.3026   47.0673   22.9912 
 H                     47.9936   47.1981   24.171 
 H                     51.7247   45.37     25.3048 
 H                     49.329    43.2604   37.4279 
 C                     50.213    42.685    37.162 
 H                     50.8119   42.5305   38.0574 
 C                     49.8058   41.3454   36.5459 
 H                     50.7049   40.7802   36.2876 
 H                     49.2413   40.7686   37.2821 
 C                     48.9667   41.5593   35.3165 
 C                     49.5642   41.7188   34.0729 
 H                     50.6411   41.6593   33.9876 
 C                     48.7959   41.9461   32.9449 
 H                     49.2768   42.0605   31.9832 
 C                     47.4173   42.0224   33.0469 
 H                     46.816    42.2021   32.1679 
 C                     46.8099   41.868    34.2819 
 H                     45.7364   41.9282   34.3725 
 C                     47.5835   41.6388   35.4064 
 H                     47.1045   41.5183   36.3681 
 H                     50.7947   43.2666   36.45 
 H                     50.8071   45.7387   32.2051 
 C                     50.84     46.417    31.354 
 H                     51.6359   46.0977   30.6849 
 C                     49.4978   46.4206   30.627 
 H                     49.5735   47.1032   29.7742 
 C                     49.1666   45.0261   30.1039 
 H                     49.0474   44.332    30.9337 
 H                     49.9599   44.6599   29.4555 
 H                     48.2391   45.0429   29.5358 
 C                     48.3886   46.9059   31.5553 
 H                     48.2541   46.2122   32.3831 
 H                     47.4466   46.9839   31.0171 
 H                     48.6307   47.8834   31.9659 
 H                     51.0839   47.4127   31.7175 
 H                     52.8812   50.0407   26.9293 
 C                     52.401    50.618    26.143 
 H                     52.9023   50.4083   25.2008 
 C                     50.9256   50.2518   26.0537 
 H                     50.8348   49.1929   25.8079 
 H                     50.4457   50.826    25.2567 
 C                     50.1803   50.5203   27.3504 
 H                     50.2951   51.562    27.6564 
 H                     49.1196   50.287    27.2422 
 S                     50.836    49.4834   28.7095 
 C                     49.8588   50.1762   30.0671 
 H                     50.0406   51.2455   30.1385 
 H                     48.8035   49.979    29.8977 
 H                     50.1885   49.6818   30.974 
 H                     52.5204   51.676    26.3695 
 H                     50.2891   51.3928   33.4741 
 C                     49.755    50.767    34.187 
 H                     49.794    51.2548   35.1576 
 C                     48.3154   50.5533   33.733 
 H                     48.3241   50.1332   32.7247 
 H                     47.8026   51.5163   33.6775 
 C                     47.52     49.6159   34.6488 
 H                     48.126    48.7229   34.8426 
 C                     47.2052   50.2862   35.9834 
 H                     48.1138   50.602    36.4909 
 H                     46.5763   51.1601   35.825 
 H                     46.6794   49.5965   36.6392 
 C                     46.2298   49.1837   33.9554 
 H                     46.4499   48.5934   33.0691 
 H                     45.6447   50.0491   33.6531 
 H                     45.6135   48.5821   34.6184 
 H                     50.2748   49.8135   34.2619 
 H                     47.2971   46.6402   37.4867 
 C                     46.253    46.438    37.253 
 H                     45.8383   47.3086   36.7507 
 C                     46.1234   45.2104   36.354 
 H                     46.5256   44.34     36.8862 
 C                     44.6552   44.9504   36.0315 
 H                     44.5425   44.0436   35.4428 
 H                     44.0777   44.8359   36.9475 
 H                     44.2443   45.789    35.4714 
 C                     46.9239   45.4048   35.0698 
 H                     46.8474   44.5239   34.4373 
 H                     47.9762   45.5742   35.2936 
 H                     46.5443   46.2619   34.5186 
 H                     45.7144   46.2913   38.1874 
 H                     42.8668   42.1369   37.4576 
 C                     42.317    41.201    37.522 
 H                     41.2803   41.3927   37.2528 
 C                     42.9317   40.1764   36.57 
 H                     43.9635   39.9715   36.8649 
 H                     42.3629   39.2466   36.5778 
 C                     42.9513   40.7267   35.1571 
 O                     43.5699   41.7115   34.8338 
 O                     42.2238   40.0087   34.3278 
 H                     42.1766   40.3974   33.3935 
 H                     42.3524   40.837    38.5463 
 H                     35.6845   38.5863   34.4046 
 C                     36.5      39.053    34.953 
 H                     36.5571   38.6013   35.9416 
 C                     37.8182   38.8775   34.211 
 H                     38.0574   37.8141   34.1208 
 H                     37.7278   39.279    33.1997 
 C                     38.9687   39.5653   34.9301 
 H                     39.065    39.1883   35.9486 
 H                     39.912    39.4173   34.4045 
 S                     38.7295   41.3627   35.1269 
 C                     38.8351   41.8942   33.3973 
 H                     37.9238   41.6252   32.8696 
 H                     39.6984   41.4242   32.938 
 H                     38.9567   42.9721   33.4001 
 H                     36.2782   40.1104   35.0759 
 H                     39.0338   44.115    35.8122 
 C                     39.963    44.652    35.992 
 H                     40.3034   44.4002   36.9962 
 C                     41.0057   44.2769   34.9543 
 H                     41.9688   44.7152   35.2002 
 H                     40.7034   44.636    33.9742 
 H                     41.1281   43.1981   34.9167 
 H                     39.7488   45.7181   35.9555 
 H                     41.5856   49.5997   37.9905 
 C                     42.518    50.112    37.763 
 H                     43.051    50.2967   38.6944 
 C                     43.3684   49.2675   36.8124 
 H                     44.3068   49.7932   36.6227 
 H                     43.5989   48.3148   37.2959 
 C                     42.6817   49.0033   35.5103 
 C                     41.9184   47.9126   35.1912 
 H                     41.6777   47.0667   35.8053 
 N                     41.459    47.9982   33.9131 
 H                     40.8751   47.3126   33.4305 
 C                     41.9249   49.1497   33.3649 
 C                     41.7555   49.6653   32.0849 
 H                     41.1761   49.126    31.3507 
 C                     42.3513   50.873    31.7967 
 H                     42.2412   51.3054   30.8115 
 C                     43.0955   51.5636   32.7599 
 H                     43.5395   52.5141   32.494 
 C                     43.2718   51.0586   34.0281 
 H                     43.8449   51.605    34.7655 
 C                     42.6941   49.8291   34.3478 
 H                     42.2771   51.0684   37.3036 
 C                     41.9018   41.9066   31.3424 
 O                     41.8308   40.7573   31.8447 
 C                     42.5044   43.0095   31.9853 
 C                     42.6677   44.2115   31.3632 
 C                     42.4274   44.3993   29.9117 
 C                     42.2012   43.0688   29.1926 
 C                     41.2632   42.1966   30.0144 
 C                     42.9778   45.4312   32.1333 
 C                     43.9876   46.3663   31.4735 
 C                     43.6627   46.5882   29.9981 
 C                     43.5723   45.2245   29.2916 
 C                     44.7463   47.4148   29.3148 
 C                     44.4804   47.6229   27.8179 
 C                     44.4658   46.2538   27.1493 
 C                     43.3941   45.3634   27.7765 
 C                     45.0477   48.8272   29.8199 
 C                     45.7935   49.486    28.6418 
 C                     45.6893   48.5127   27.4481 
 C                     43.1919   48.3895   27.5178 
 O                     45.5787   49.2249   26.2429 
 H                     42.8036   42.8941   33.0174 
 H                     41.4948   45.0052   29.8489 
 H                     43.1577   42.5506   29.0584 
 H                     41.7583   43.2343   28.2109 
 H                     40.3403   42.7545   30.2023 
 H                     41.0041   41.274    29.4934 
 H                     43.289    45.1867   33.1484 
 H                     41.9972   45.9417   32.1948 
 H                     44.9881   45.9303   31.5631 
 H                     43.9912   47.3216   32.0012 
 H                     42.6962   47.0915   29.9292 
 H                     44.516    44.6884   29.47 
 H                     45.6799   46.8375   29.3871 
 H                     45.444    45.7829   27.2858 
 H                     44.291    46.347    26.0775 
 H                     42.4015   45.7643   27.571 
 H                     43.4569   44.3772   27.3116 
 H                     45.656    48.8179   30.7235 
 H                     44.1241   49.3537   30.0562 
 H                     46.8385   49.6764   28.8859 
 H                     45.3457   50.4357   28.3526 
 H                     46.5921   47.8781   27.4145 
 H                     43.2295   49.3876   27.9408 
 H                     43.078    48.4901   26.4403 
 H                     42.3193   47.8817   27.914 
 H                     45.5281   48.587    25.5131 
 
 Stoichiometry    C96H171N2O9S2(1-)
 Framework group  C1[X(C96H171N2O9S2)]
 Deg. of freedom   834
 Full point group                 C1      NOp   1
 Largest Abelian subgroup         C1      NOp   1
 Largest concise Abelian subgroup C1      NOp   1
                         Standard orientation:                         
 ---------------------------------------------------------------------
 Center     Atomic      Atomic             Coordinates (Angstroms)
 Number     Number       Type             X           Y           Z
 ---------------------------------------------------------------------
      1          1           0        7.079712    4.028973    7.211744
      2          6           0        6.705186    3.841212    6.206849
      3          1           0        6.360378    4.781979    5.784076
      4          6           0        7.796371    3.230917    5.327784
      5          1           0        8.639674    3.923396    5.267454
      6          1           0        8.150081    2.302268    5.780460
      7          6           0        7.259220    2.956358    3.951901
      8          6           0        7.152586    3.982409    3.021701
      9          1           0        7.494710    4.974528    3.281293
     10          6           0        6.620886    3.757849    1.768572
     11          1           0        6.547860    4.561833    1.052614
     12          6           0        6.182947    2.482435    1.418858
     13          8           0        5.676691    2.288185    0.175681
     14          1           0        5.363324    1.347988    0.068650
     15          6           0        6.277055    1.450757    2.344996
     16          1           0        5.937802    0.461746    2.076114
     17          6           0        6.808367    1.693158    3.597185
     18          1           0        6.876410    0.881607    4.308093
     19          1           0        5.855009    3.165854    6.274236
     20          1           0        1.038543    6.333180    5.226713
     21          6           0        1.048570    5.963133    4.203663
     22          1           0        1.299966    6.788840    3.540781
     23          6           0        2.068969    4.834432    4.049855
     24          1           0        1.792268    4.023218    4.733038
     25          6           0        2.067063    4.286090    2.625393
     26          1           0        1.072907    3.943116    2.346118
     27          1           0        2.383281    5.056285    1.924214
     28          1           0        2.755536    3.448085    2.541393
     29          6           0        3.469376    5.319479    4.415727
     30          1           0        4.193023    4.516998    4.290073
     31          1           0        3.505052    5.660107    5.448702
     32          1           0        3.762652    6.144801    3.769467
     33          1           0        0.050014    5.611514    3.954130
     34          1           0        3.362990   -3.529016   -7.410029
     35          6           0        2.605244   -3.462283   -6.629482
     36          1           0        2.847135   -4.171273   -5.839919
     37          6           0        2.544685   -2.054296   -6.052437
     38          1           0        2.227121   -1.333087   -6.808757
     39          1           0        3.539637   -1.755202   -5.704277
     40          6           0        1.603662   -1.888899   -4.821116
     41          8           0        1.453994   -2.869524   -4.064672
     42          8           0        1.114203   -0.758919   -4.668909
     43          1           0        1.641810   -3.742403   -7.052580
     44          1           0        2.211637    6.989810   -5.240687
     45          6           0        1.403119    6.875454   -4.522772
     46          1           0        1.129080    5.823398   -4.487446
     47          6           0        1.848805    7.350393   -3.139509
     48          1           0        2.097426    8.414128   -3.186653
     49          1           0        1.026751    7.222345   -2.432946
     50          6           0        3.045482    6.566418   -2.676879
     51          6           0        4.312699    6.873839   -3.157490
     52          1           0        4.438335    7.712631   -3.828541
     53          6           0        5.413189    6.125150   -2.796905
     54          1           0        6.396233    6.358078   -3.176284
     55          6           0        5.270555    5.041498   -1.932025
     56          8           0        6.371286    4.325034   -1.614761
     57          1           0        6.132862    3.590853   -1.014130
     58          6           0        4.008759    4.742343   -1.427773
     59          1           0        3.891610    3.918890   -0.738681
     60          6           0        2.912305    5.492530   -1.808992
     61          1           0        1.936547    5.234437   -1.422923
     62          1           0        0.546328    7.449288   -4.873696
     63          1           0       -2.226426    4.781113   -4.562799
     64          6           0       -3.197841    5.266209   -4.637205
     65          1           0       -3.920217    4.552968   -5.020974
     66          1           0       -3.119573    6.115771   -5.310268
     67          6           0       -3.646205    5.711535   -3.241591
     68          8           0       -4.465801    5.082192   -2.595384
     69          7           0       -3.072085    6.840338   -2.764628
     70          1           0       -2.377578    7.307710   -3.327000
     71          6           0       -3.358997    7.443751   -1.462171
     72          1           0       -4.031061    6.758999   -0.945411
     73          6           0       -2.091646    7.697111   -0.652915
     74          1           0       -1.466443    8.416576   -1.190796
     75          1           0       -2.387271    8.159597    0.291403
     76          6           0       -1.257761    6.445096   -0.356327
     77          1           0       -0.950622    5.995233   -1.307680
     78          6           0       -0.010113    6.849785    0.426344
     79          1           0        0.619836    5.984855    0.611819
     80          1           0        0.576063    7.589181   -0.116163
     81          1           0       -0.292998    7.276322    1.386738
     82          6           0       -2.049081    5.404838    0.429930
     83          1           0       -2.418247    5.830767    1.360671
     84          1           0       -2.891930    5.035496   -0.146151
     85          1           0       -1.410737    4.558314    0.671563
     86          1           0       -3.884738    8.392073   -1.624155
     87          1           0       -7.013108    6.529434    2.948964
     88          6           0       -6.691744    5.489852    2.974273
     89          1           0       -7.575857    4.856142    2.956420
     90          6           0       -5.784073    5.174615    1.784637
     91          1           0       -4.895762    5.814276    1.853597
     92          6           0       -5.333276    3.717666    1.829954
     93          1           0       -4.767812    3.517752    2.737184
     94          1           0       -6.190647    3.048878    1.812587
     95          1           0       -4.701911    3.486961    0.975318
     96          6           0       -6.490038    5.478059    0.464766
     97          1           0       -7.394267    4.881745    0.370039
     98          1           0       -6.766948    6.529719    0.409456
     99          1           0       -5.850691    5.243494   -0.383398
    100          1           0       -6.167559    5.313604    3.911161
    101          1           0       -0.101920   -5.335575    6.549789
    102          6           0       -0.199151   -4.773828    7.476196
    103          1           0       -0.179941   -5.471126    8.311480
    104          6           0        0.934410   -3.753844    7.596991
    105          1           0        0.822669   -3.201153    8.533259
    106          1           0        1.890477   -4.281542    7.625606
    107          6           0        0.915891   -2.799044    6.435406
    108          6           0        0.144981   -1.644722    6.482570
    109          1           0       -0.423034   -1.419449    7.375398
    110          6           0        0.102434   -0.780075    5.403261
    111          1           0       -0.497004    0.118102    5.459579
    112          6           0        0.827656   -1.061884    4.258097
    113          1           0        0.793886   -0.389364    3.413661
    114          6           0        1.597794   -2.211338    4.197753
    115          1           0        2.164719   -2.441358    3.308978
    116          6           0        1.638044   -3.071441    5.281308
    117          1           0        2.241283   -3.967122    5.229477
    118          1           0       -1.162393   -4.268208    7.466701
    119          1           0       -4.208666   -1.281916    5.030949
    120          6           0       -4.981411   -0.747814    4.480363
    121          1           0       -5.335693    0.079314    5.091466
    122          6           0       -4.428238   -0.235178    3.153243
    123          1           0       -5.228427    0.303834    2.635456
    124          6           0       -3.269400    0.728478    3.390774
    125          1           0       -2.441905    0.209898    3.871272
    126          1           0       -3.579726    1.553754    4.028321
    127          1           0       -2.915150    1.137880    2.447285
    128          6           0       -3.967600   -1.399090    2.281059
    129          1           0       -3.132494   -1.917747    2.748129
    130          1           0       -3.646442   -1.041728    1.305223
    131          1           0       -4.774273   -2.113864    2.135846
    132          1           0       -5.815463   -1.425817    4.313911
    133          1           0      -10.107230    2.208836    3.116594
    134          6           0      -10.500394    2.661641    2.209663
    135          1           0      -10.848491    3.665185    2.443640
    136          6           0       -9.418431    2.709876    1.139191
    137          1           0       -8.588761    3.320828    1.497404
    138          1           0       -9.812004    3.173722    0.230805
    139          6           0       -8.892849    1.329847    0.781030
    140          1           0       -9.706844    0.672675    0.468795
    141          1           0       -8.149960    1.393842   -0.015989
    142         16           0       -8.086125    0.541599    2.223291
    143          6           0       -7.754589   -1.079663    1.488740
    144          1           0       -8.686830   -1.523435    1.148821
    145          1           0       -7.058862   -0.972181    0.660698
    146          1           0       -7.313836   -1.691827    2.267581
    147          1           0      -11.350001    2.072098    1.869765
    148          1           0       -8.096874   -4.620121    2.276724
    149          6           0       -7.124509   -5.104568    2.346953
    150          1           0       -7.288197   -6.175557    2.434844
    151          6           0       -6.275805   -4.773397    1.124555
    152          1           0       -6.201776   -3.687456    1.032475
    153          1           0       -6.772694   -5.141018    0.223794
    154          6           0       -4.860316   -5.358544    1.188316
    155          1           0       -4.435464   -5.133576    2.173776
    156          6           0       -4.881917   -6.873627    1.004972
    157          1           0       -5.505494   -7.353562    1.755742
    158          1           0       -5.270002   -7.126702    0.020264
    159          1           0       -3.877778   -7.280705    1.095620
    160          6           0       -3.980856   -4.708178    0.122581
    161          1           0       -3.857202   -3.646569    0.322883
    162          1           0       -4.422746   -4.820553   -0.864714
    163          1           0       -2.995038   -5.165230    0.098465
    164          1           0       -6.634123   -4.757541    3.254730
    165          1           0       -1.653670   -6.886075    3.272115
    166          6           0       -0.976414   -6.716244    2.436576
    167          1           0       -1.566994   -6.626750    1.528043
    168          6           0       -0.156529   -5.445541    2.648948
    169          1           0        0.448349   -5.564078    3.555959
    170          6           0        0.778027   -5.221445    1.464210
    171          1           0        1.412084   -4.354148    1.629504
    172          1           0        1.419239   -6.088690    1.314521
    173          1           0        0.196165   -5.066364    0.556913
    174          6           0       -1.077379   -4.243394    2.835060
    175          1           0       -0.494954   -3.341258    3.004837
    176          1           0       -1.735586   -4.390923    3.690114
    177          1           0       -1.688953   -4.099790    1.947426
    178          1           0       -0.326395   -7.583909    2.339904
    179          1           0        4.361588   -5.690993    1.756675
    180          6           0        5.425032   -5.464572    1.769173
    181          1           0        5.776081   -5.408214    0.740799
    182          6           0        5.659767   -4.134763    2.483646
    183          1           0        5.328416   -4.210419    3.521935
    184          1           0        6.714515   -3.860716    2.460678
    185          6           0        4.853951   -3.037286    1.816034
    186          8           0        3.648187   -3.035679    1.759918
    187          8           0        5.615993   -2.090080    1.311442
    188          1           0        5.096584   -1.380574    0.808404
    189          1           0        5.954085   -6.267508    2.277442
    190          1           0       10.371547   -2.386218   -3.388406
    191          6           0        9.689687   -2.970887   -2.774549
    192          1           0       10.267462   -3.705720   -2.217037
    193          6           0        8.914678   -2.069915   -1.822380
    194          1           0        9.605359   -1.562349   -1.143036
    195          1           0        8.389426   -1.299303   -2.390156
    196          6           0        7.915545   -2.855488   -0.986657
    197          1           0        8.419888   -3.641189   -0.423580
    198          1           0        7.380128   -2.207336   -0.292969
    199         16           0        6.668320   -3.735117   -1.985295
    200          6           0        5.749896   -2.329152   -2.667144
    201          1           0        6.332644   -1.848401   -3.448539
    202          1           0        5.531347   -1.631108   -1.865823
    203          1           0        4.826650   -2.719949   -3.081338
    204          1           0        9.002457   -3.504302   -3.426912
    205          1           0        4.485930   -5.357936   -2.846120
    206          6           0        3.592222   -5.616392   -2.281676
    207          1           0        3.858835   -6.407424   -1.581049
    208          6           0        3.052958   -4.400595   -1.549708
    209          1           0        2.235752   -4.679140   -0.890374
    210          1           0        2.686137   -3.667385   -2.262996
    211          1           0        3.833589   -3.949208   -0.943844
    212          1           0        2.853550   -6.005446   -2.979375
    213          1           0       -0.729996   -9.114903   -2.712268
    214          6           0       -1.708898   -8.988847   -2.254623
    215          1           0       -1.913904   -9.853498   -1.625290
    216          6           0       -1.746935   -7.700282   -1.431122
    217          1           0       -2.730232   -7.613328   -0.963675
    218          1           0       -0.994289   -7.763133   -0.641113
    219          6           0       -1.487792   -6.482504   -2.259786
    220          6           0       -0.280618   -5.869987   -2.463826
    221          1           0        0.679961   -6.147412   -2.075333
    222          7           0       -0.418805   -4.778562   -3.264832
    223          1           0        0.326039   -4.145982   -3.563058
    224          6           0       -1.729815   -4.649807   -3.593791
    225          6           0       -2.370212   -3.683574   -4.361400
    226          1           0       -1.807822   -2.873473   -4.800778
    227          6           0       -3.731726   -3.800103   -4.532504
    228          1           0       -4.264077   -3.067326   -5.123565
    229          6           0       -4.447310   -4.858407   -3.961147
    230          1           0       -5.515019   -4.917029   -4.128031
    231          6           0       -3.822129   -5.816936   -3.196419
    232          1           0       -4.385881   -6.633361   -2.764690
    233          6           0       -2.445293   -5.719174   -2.990557
    234          1           0       -2.452654   -8.950764   -3.047819
    235          6           0        3.529277   -0.087548   -0.751033
    236          8           0        4.609202   -0.129200   -0.110514
    237          6           0        2.482940   -1.021264   -0.589205
    238          6           0        1.279917   -0.878327   -1.214331
    239          6           0        0.895807    0.359912   -1.934809
    240          6           0        1.896278    1.492246   -1.699482
    241          6           0        3.314768    0.952802   -1.812708
    242          6           0        0.334179   -2.006552   -1.312166
    243          6           0       -1.132907   -1.631402   -1.121470
    244          6           0       -1.503531   -0.393673   -1.935270
    245          6           0       -0.548349    0.755159   -1.568112
    246          6           0       -2.930996    0.052138   -1.638706
    247          6           0       -3.328618    1.321632   -2.403559
    248          6           0       -2.401344    2.446358   -1.959908
    249          6           0       -0.943916    2.077375   -2.232830
    250          6           0       -4.092189   -0.905075   -1.914778
    251          6           0       -5.325223    0.019761   -1.964370
    252          6           0       -4.796079    1.469768   -1.940362
    253          6           0       -3.303599    1.162753   -3.924118
    254          8           0       -5.606260    2.300574   -2.731143
    255          1           0        2.670892   -1.893650    0.020455
    256          1           0        0.912409    0.083733   -3.013814
    257          1           0        1.746929    1.919799   -0.701321
    258          1           0        1.760478    2.282921   -2.436827
    259          1           0        3.427620    0.464887   -2.786107
    260          1           0        4.059232    1.746745   -1.740663
    261          1           0        0.613845   -2.813720   -0.635911
    262          1           0        0.484540   -2.367098   -2.348200
    263          1           0       -1.315231   -1.435448   -0.059639
    264          1           0       -1.760807   -2.473266   -1.418260
    265          1           0       -1.388217   -0.629866   -2.995032
    266          1           0       -0.597309    0.900161   -0.478903
    267          1           0       -2.968482    0.309015   -0.569724
    268          1           0       -2.531760    2.609586   -0.885849
    269          1           0       -2.650279    3.377961   -2.467987
    270          1           0       -0.767372    2.002121   -3.305851
    271          1           0       -0.312169    2.880643   -1.847704
    272          1           0       -4.191518   -1.663025   -1.138727
    273          1           0       -3.941741   -1.425905   -2.859330
    274          1           0       -5.990963   -0.155136   -1.119347
    275          1           0       -5.906512   -0.120256   -2.874638
    276          1           0       -4.797829    1.841949   -0.900952
    277          1           0       -4.010763    0.405225   -4.244455
    278          1           0       -3.593435    2.103884   -4.387116
    279          1           0       -2.318555    0.886644   -4.284283
    280          1           0       -5.255916    3.204581   -2.685146
 ---------------------------------------------------------------------
 Rotational constants (GHZ):           0.0118127           0.0104010           0.0082939
 Standard basis: 6-31G(d) (6D, 7F)
 There are  1985 symmetry adapted cartesian basis functions of A   symmetry.
 There are  1985 symmetry adapted basis functions of A   symmetry.
  1985 basis functions,  3784 primitive gaussians,  1985 cartesian basis functions
   433 alpha electrons      433 beta electrons
       nuclear repulsion energy     26728.7130072672 Hartrees.
 NAtoms=  280 NActive=  280 NUniq=  280 SFac= 1.00D+00 NAtFMM=   60 NAOKFM=T Big=T
 Integral buffers will be    131072 words long.
 Raffenetti 2 integral format.
 Two-electron integral symmetry is turned on.
 Nuclear repulsion after empirical dispersion term =    26728.4021956657 Hartrees.
 One-electron integrals computed using PRISM.
 NBasis=  1985 RedAO= T EigKep=  3.39D-04  NBF=  1985
 NBsUse=  1985 1.00D-06 EigRej= -1.00D+00 NBFU=  1985
 ExpMin= 1.17D-01 ExpMax= 2.19D+04 ExpMxC= 3.30D+03 IAcc=3 IRadAn=         5 AccDes= 0.00D+00
 Harris functional with IExCor= 4639 and IRadAn=       5 diagonalized for initial guess.
 HarFok:  IExCor= 4639 AccDes= 0.00D+00 IRadAn=         5 IDoV= 1 UseB2=F ITyADJ=14
 ICtDFT=  3500011 ScaDFX=  1.000000  1.000000  1.000000  1.000000
 FoFCou: FMM=F IPFlag=           0 FMFlag=      100000 FMFlg1=        2001
         NFxFlg=           0 DoJE=T BraDBF=F KetDBF=T FulRan=T
         wScrn=  0.000000 ICntrl=       500 IOpCl=  0 I1Cent=   200000004 NGrid=           0
         NMat0=    1 NMatS0=      1 NMatT0=    0 NMatD0=    1 NMtDS0=    0 NMtDT0=    0
 Petite list used in FoFCou.
 Requested convergence on RMS density matrix=1.00D-08 within 128 cycles.
 Requested convergence on MAX density matrix=1.00D-06.
 Requested convergence on             energy=1.00D-06.
 No special actions if energy rises.
 Integral accuracy reduced to 1.0D-05 until final iterations.
 Initial convergence to 1.0D-05 achieved.  Increase integral accuracy.
 SCF Done:  E(RwB97XD) =  -5343.08874713     A.U. after   15 cycles
            NFock= 15  Conv=0.38D-08     -V/T= 2.0081
 Hyperfine terms turned off by default for NAtoms > 100.

 **********************************************************************

            Population analysis using the SCF Density.

 **********************************************************************

 Orbital symmetries:
       Occupied  (A) (A) (A) (A) (A) (A) (A) (A) (A) (A) (A) (A)
                 (A) (A) (A) (A) (A) (A) (A) (A) (A) (A) (A) (A)
                 (A) (A) (A) (A) (A) (A) (A) (A) (A) (A) (A) (A)
                 (A) (A) (A) (A) (A) (A) (A) (A) (A) (A) (A) (A)
                 (A) (A) (A) (A) (A) (A) (A) (A) (A) (A) (A) (A)
                 (A) (A) (A) (A) (A) (A) (A) (A) (A) (A) (A) (A)
                 (A) (A) (A) (A) (A) (A) (A) (A) (A) (A) (A) (A)
                 (A) (A) (A) (A) (A) (A) (A) (A) (A) (A) (A) (A)
                 (A) (A) (A) (A) (A) (A) (A) (A) (A) (A) (A) (A)
                 (A) (A) (A) (A) (A) (A) (A) (A) (A) (A) (A) (A)
                 (A) (A) (A) (A) (A) (A) (A) (A) (A) (A) (A) (A)
                 (A) (A) (A) (A) (A) (A) (A) (A) (A) (A) (A) (A)
                 (A) (A) (A) (A) (A) (A) (A) (A) (A) (A) (A) (A)
                 (A) (A) (A) (A) (A) (A) (A) (A) (A) (A) (A) (A)
                 (A) (A) (A) (A) (A) (A) (A) (A) (A) (A) (A) (A)
                 (A) (A) (A) (A) (A) (A) (A) (A) (A) (A) (A) (A)
                 (A) (A) (A) (A) (A) (A) (A) (A) (A) (A) (A) (A)
                 (A) (A) (A) (A) (A) (A) (A) (A) (A) (A) (A) (A)
                 (A) (A) (A) (A) (A) (A) (A) (A) (A) (A) (A) (A)
                 (A) (A) (A) (A) (A) (A) (A) (A) (A) (A) (A) (A)
                 (A) (A) (A) (A) (A) (A) (A) (A) (A) (A) (A) (A)
                 (A) (A) (A) (A) (A) (A) (A) (A) (A) (A) (A) (A)
                 (A) (A) (A) (A) (A) (A) (A) (A) (A) (A) (A) (A)
                 (A) (A) (A) (A) (A) (A) (A) (A) (A) (A) (A) (A)
                 (A) (A) (A) (A) (A) (A) (A) (A) (A) (A) (A) (A)
                 (A) (A) (A) (A) (A) (A) (A) (A) (A) (A) (A) (A)
                 (A) (A) (A) (A) (A) (A) (A) (A) (A) (A) (A) (A)
                 (A) (A) (A) (A) (A) (A) (A) (A) (A) (A) (A) (A)
                 (A) (A) (A) (A) (A) (A) (A) (A) (A) (A) (A) (A)
                 (A) (A) (A) (A) (A) (A) (A) (A) (A) (A) (A) (A)
                 (A) (A) (A) (A) (A) (A) (A) (A) (A) (A) (A) (A)
                 (A) (A) (A) (A) (A) (A) (A) (A) (A) (A) (A) (A)
                 (A) (A) (A) (A) (A) (A) (A) (A) (A) (A) (A) (A)
                 (A) (A) (A) (A) (A) (A) (A) (A) (A) (A) (A) (A)
                 (A) (A) (A) (A) (A) (A) (A) (A) (A) (A) (A) (A)
                 (A) (A) (A) (A) (A) (A) (A) (A) (A) (A) (A) (A)
                 (A)
       Virtual   (A) (A) (A) (A) (A) (A) (A) (A) (A) (A) (A) (A)
                 (A) (A) (A) (A) (A) (A) (A) (A) (A) (A) (A) (A)
                 (A) (A) (A) (A) (A) (A) (A) (A) (A) (A) (A) (A)
                 (A) (A) (A) (A) (A) (A) (A) (A) (A) (A) (A) (A)
                 (A) (A) (A) (A) (A) (A) (A) (A) (A) (A) (A) (A)
                 (A) (A) (A) (A) (A) (A) (A) (A) (A) (A) (A) (A)
                 (A) (A) (A) (A) (A) (A) (A) (A) (A) (A) (A) (A)
                 (A) (A) (A) (A) (A) (A) (A) (A) (A) (A) (A) (A)
                 (A) (A) (A) (A) (A) (A) (A) (A) (A) (A) (A) (A)
                 (A) (A) (A) (A) (A) (A) (A) (A) (A) (A) (A) (A)
                 (A) (A) (A) (A) (A) (A) (A) (A) (A) (A) (A) (A)
                 (A) (A) (A) (A) (A) (A) (A) (A) (A) (A) (A) (A)
                 (A) (A) (A) (A) (A) (A) (A) (A) (A) (A) (A) (A)
                 (A) (A) (A) (A) (A) (A) (A) (A) (A) (A) (A) (A)
                 (A) (A) (A) (A) (A) (A) (A) (A) (A) (A) (A) (A)
                 (A) (A) (A) (A) (A) (A) (A) (A) (A) (A) (A) (A)
                 (A) (A) (A) (A) (A) (A) (A) (A) (A) (A) (A) (A)
                 (A) (A) (A) (A) (A) (A) (A) (A) (A) (A) (A) (A)
                 (A) (A) (A) (A) (A) (A) (A) (A) (A) (A) (A) (A)
                 (A) (A) (A) (A) (A) (A) (A) (A) (A) (A) (A) (A)
                 (A) (A) (A) (A) (A) (A) (A) (A) (A) (A) (A) (A)
                 (A) (A) (A) (A) (A) (A) (A) (A) (A) (A) (A) (A)
                 (A) (A) (A) (A) (A) (A) (A) (A) (A) (A) (A) (A)
                 (A) (A) (A) (A) (A) (A) (A) (A) (A) (A) (A) (A)
                 (A) (A) (A) (A) (A) (A) (A) (A) (A) (A) (A) (A)
                 (A) (A) (A) (A) (A) (A) (A) (A) (A) (A) (A) (A)
                 (A) (A) (A) (A) (A) (A) (A) (A) (A) (A) (A) (A)
                 (A) (A) (A) (A) (A) (A) (A) (A) (A) (A) (A) (A)
                 (A) (A) (A) (A) (A) (A) (A) (A) (A) (A) (A) (A)
                 (A) (A) (A) (A) (A) (A) (A) (A) (A) (A) (A) (A)
                 (A) (A) (A) (A) (A) (A) (A) (A) (A) (A) (A) (A)
                 (A) (A) (A) (A) (A) (A) (A) (A) (A) (A) (A) (A)
                 (A) (A) (A) (A) (A) (A) (A) (A) (A) (A) (A) (A)
                 (A) (A) (A) (A) (A) (A) (A) (A) (A) (A) (A) (A)
                 (A) (A) (A) (A) (A) (A) (A) (A) (A) (A) (A) (A)
                 (A) (A) (A) (A) (A) (A) (A) (A) (A) (A) (A) (A)
                 (A) (A) (A) (A) (A) (A) (A) (A) (A) (A) (A) (A)
                 (A) (A) (A) (A) (A) (A) (A) (A) (A) (A) (A) (A)
                 (A) (A) (A) (A) (A) (A) (A) (A) (A) (A) (A) (A)
                 (A) (A) (A) (A) (A) (A) (A) (A) (A) (A) (A) (A)
                 (A) (A) (A) (A) (A) (A) (A) (A) (A) (A) (A) (A)
                 (A) (A) (A) (A) (A) (A) (A) (A) (A) (A) (A) (A)
                 (A) (A) (A) (A) (A) (A) (A) (A) (A) (A) (A) (A)
                 (A) (A) (A) (A) (A) (A) (A) (A) (A) (A) (A) (A)
                 (A) (A) (A) (A) (A) (A) (A) (A) (A) (A) (A) (A)
                 (A) (A) (A) (A) (A) (A) (A) (A) (A) (A) (A) (A)
                 (A) (A) (A) (A) (A) (A) (A) (A) (A) (A) (A) (A)
                 (A) (A) (A) (A) (A) (A) (A) (A) (A) (A) (A) (A)
                 (A) (A) (A) (A) (A) (A) (A) (A) (A) (A) (A) (A)
                 (A) (A) (A) (A) (A) (A) (A) (A) (A) (A) (A) (A)
                 (A) (A) (A) (A) (A) (A) (A) (A) (A) (A) (A) (A)
                 (A) (A) (A) (A) (A) (A) (A) (A) (A) (A) (A) (A)
                 (A) (A) (A) (A) (A) (A) (A) (A) (A) (A) (A) (A)
                 (A) (A) (A) (A) (A) (A) (A) (A) (A) (A) (A) (A)
                 (A) (A) (A) (A) (A) (A) (A) (A) (A) (A) (A) (A)
                 (A) (A) (A) (A) (A) (A) (A) (A) (A) (A) (A) (A)
                 (A) (A) (A) (A) (A) (A) (A) (A) (A) (A) (A) (A)
                 (A) (A) (A) (A) (A) (A) (A) (A) (A) (A) (A) (A)
                 (A) (A) (A) (A) (A) (A) (A) (A) (A) (A) (A) (A)
                 (A) (A) (A) (A) (A) (A) (A) (A) (A) (A) (A) (A)
                 (A) (A) (A) (A) (A) (A) (A) (A) (A) (A) (A) (A)
                 (A) (A) (A) (A) (A) (A) (A) (A) (A) (A) (A) (A)
                 (A) (A) (A) (A) (A) (A) (A) (A) (A) (A) (A) (A)
                 (A) (A) (A) (A) (A) (A) (A) (A) (A) (A) (A) (A)
                 (A) (A) (A) (A) (A) (A) (A) (A) (A) (A) (A) (A)
                 (A) (A) (A) (A) (A) (A) (A) (A) (A) (A) (A) (A)
                 (A) (A) (A) (A) (A) (A) (A) (A) (A) (A) (A) (A)
                 (A) (A) (A) (A) (A) (A) (A) (A) (A) (A) (A) (A)
                 (A) (A) (A) (A) (A) (A) (A) (A) (A) (A) (A) (A)
                 (A) (A) (A) (A) (A) (A) (A) (A) (A) (A) (A) (A)
                 (A) (A) (A) (A) (A) (A) (A) (A) (A) (A) (A) (A)
                 (A) (A) (A) (A) (A) (A) (A) (A) (A) (A) (A) (A)
                 (A) (A) (A) (A) (A) (A) (A) (A) (A) (A) (A) (A)
                 (A) (A) (A) (A) (A) (A) (A) (A) (A) (A) (A) (A)
                 (A) (A) (A) (A) (A) (A) (A) (A) (A) (A) (A) (A)
                 (A) (A) (A) (A) (A) (A) (A) (A) (A) (A) (A) (A)
                 (A) (A) (A) (A) (A) (A) (A) (A) (A) (A) (A) (A)
                 (A) (A) (A) (A) (A) (A) (A) (A) (A) (A) (A) (A)
                 (A) (A) (A) (A) (A) (A) (A) (A) (A) (A) (A) (A)
                 (A) (A) (A) (A) (A) (A) (A) (A) (A) (A) (A) (A)
                 (A) (A) (A) (A) (A) (A) (A) (A) (A) (A) (A) (A)
                 (A) (A) (A) (A) (A) (A) (A) (A) (A) (A) (A) (A)
                 (A) (A) (A) (A) (A) (A) (A) (A) (A) (A) (A) (A)
                 (A) (A) (A) (A) (A) (A) (A) (A) (A) (A) (A) (A)
                 (A) (A) (A) (A) (A) (A) (A) (A) (A) (A) (A) (A)
                 (A) (A) (A) (A) (A) (A) (A) (A) (A) (A) (A) (A)
                 (A) (A) (A) (A) (A) (A) (A) (A) (A) (A) (A) (A)
                 (A) (A) (A) (A) (A) (A) (A) (A) (A) (A) (A) (A)
                 (A) (A) (A) (A) (A) (A) (A) (A) (A) (A) (A) (A)
                 (A) (A) (A) (A) (A) (A) (A) (A) (A) (A) (A) (A)
                 (A) (A) (A) (A) (A) (A) (A) (A) (A) (A) (A) (A)
                 (A) (A) (A) (A) (A) (A) (A) (A) (A) (A) (A) (A)
                 (A) (A) (A) (A) (A) (A) (A) (A) (A) (A) (A) (A)
                 (A) (A) (A) (A) (A) (A) (A) (A) (A) (A) (A) (A)
                 (A) (A) (A) (A) (A) (A) (A) (A) (A) (A) (A) (A)
                 (A) (A) (A) (A) (A) (A) (A) (A) (A) (A) (A) (A)
                 (A) (A) (A) (A) (A) (A) (A) (A) (A) (A) (A) (A)
                 (A) (A) (A) (A) (A) (A) (A) (A) (A) (A) (A) (A)
                 (A) (A) (A) (A) (A) (A) (A) (A) (A) (A) (A) (A)
                 (A) (A) (A) (A) (A) (A) (A) (A) (A) (A) (A) (A)
                 (A) (A) (A) (A) (A) (A) (A) (A) (A) (A) (A) (A)
                 (A) (A) (A) (A) (A) (A) (A) (A) (A) (A) (A) (A)
                 (A) (A) (A) (A) (A) (A) (A) (A) (A) (A) (A) (A)
                 (A) (A) (A) (A) (A) (A) (A) (A) (A) (A) (A) (A)
                 (A) (A) (A) (A) (A) (A) (A) (A) (A) (A) (A) (A)
                 (A) (A) (A) (A) (A) (A) (A) (A) (A) (A) (A) (A)
                 (A) (A) (A) (A) (A) (A) (A) (A) (A) (A) (A) (A)
                 (A) (A) (A) (A) (A) (A) (A) (A) (A) (A) (A) (A)
                 (A) (A) (A) (A) (A) (A) (A) (A) (A) (A) (A) (A)
                 (A) (A) (A) (A) (A) (A) (A) (A) (A) (A) (A) (A)
                 (A) (A) (A) (A) (A) (A) (A) (A) (A) (A) (A) (A)
                 (A) (A) (A) (A) (A) (A) (A) (A) (A) (A) (A) (A)
                 (A) (A) (A) (A) (A) (A) (A) (A) (A) (A) (A) (A)
                 (A) (A) (A) (A) (A) (A) (A) (A) (A) (A) (A) (A)
                 (A) (A) (A) (A) (A) (A) (A) (A) (A) (A) (A) (A)
                 (A) (A) (A) (A) (A) (A) (A) (A) (A) (A) (A) (A)
                 (A) (A) (A) (A) (A) (A) (A) (A) (A) (A) (A) (A)
                 (A) (A) (A) (A) (A) (A) (A) (A) (A) (A) (A) (A)
                 (A) (A) (A) (A) (A) (A) (A) (A) (A) (A) (A) (A)
                 (A) (A) (A) (A) (A) (A) (A) (A) (A) (A) (A) (A)
                 (A) (A) (A) (A) (A) (A) (A) (A) (A) (A) (A) (A)
                 (A) (A) (A) (A) (A) (A) (A) (A) (A) (A) (A) (A)
                 (A) (A) (A) (A) (A) (A) (A) (A) (A) (A) (A) (A)
                 (A) (A) (A) (A) (A) (A) (A) (A) (A) (A) (A) (A)
                 (A) (A) (A) (A) (A) (A) (A) (A) (A) (A) (A) (A)
                 (A) (A) (A) (A) (A) (A) (A) (A) (A) (A) (A) (A)
                 (A) (A) (A) (A) (A) (A) (A) (A) (A) (A) (A) (A)
                 (A) (A) (A) (A) (A) (A) (A) (A) (A) (A) (A) (A)
                 (A) (A) (A) (A) (A) (A) (A) (A) (A) (A) (A) (A)
                 (A) (A) (A) (A)
 The electronic state is 1-A.
 Alpha  occ. eigenvalues --  -88.97259 -88.95312 -19.23033 -19.22915 -19.21475
 Alpha  occ. eigenvalues --  -19.21124 -19.19791 -19.18199 -19.17159 -19.09950
 Alpha  occ. eigenvalues --  -19.08903 -14.43856 -14.38231 -10.36412 -10.35536
 Alpha  occ. eigenvalues --  -10.32265 -10.29369 -10.28864 -10.28853 -10.26698
 Alpha  occ. eigenvalues --  -10.26541 -10.26003 -10.25748 -10.25419 -10.25364
 Alpha  occ. eigenvalues --  -10.25335 -10.25099 -10.24646 -10.24571 -10.24374
 Alpha  occ. eigenvalues --  -10.24048 -10.24041 -10.23906 -10.23845 -10.23805
 Alpha  occ. eigenvalues --  -10.23768 -10.23590 -10.23531 -10.23526 -10.23522
 Alpha  occ. eigenvalues --  -10.23511 -10.23461 -10.23393 -10.23311 -10.23257
 Alpha  occ. eigenvalues --  -10.23196 -10.23125 -10.23036 -10.23029 -10.23026
 Alpha  occ. eigenvalues --  -10.22988 -10.22975 -10.22898 -10.22888 -10.22888
 Alpha  occ. eigenvalues --  -10.22801 -10.22703 -10.22675 -10.22636 -10.22562
 Alpha  occ. eigenvalues --  -10.22539 -10.22489 -10.22452 -10.22418 -10.22349
 Alpha  occ. eigenvalues --  -10.22254 -10.22229 -10.22141 -10.22119 -10.22085
 Alpha  occ. eigenvalues --  -10.21866 -10.21788 -10.21745 -10.21639 -10.21583
 Alpha  occ. eigenvalues --  -10.21577 -10.21547 -10.21404 -10.21285 -10.21170
 Alpha  occ. eigenvalues --  -10.21119 -10.21086 -10.21013 -10.20810 -10.20798
 Alpha  occ. eigenvalues --  -10.20772 -10.20729 -10.20607 -10.20566 -10.20563
 Alpha  occ. eigenvalues --  -10.20537 -10.20513 -10.20471 -10.20460 -10.20366
 Alpha  occ. eigenvalues --  -10.20340 -10.20103 -10.20007 -10.19900 -10.19636
 Alpha  occ. eigenvalues --  -10.19557 -10.19473 -10.19414 -10.19379 -10.19304
 Alpha  occ. eigenvalues --  -10.18911 -10.18276 -10.18146 -10.17543  -7.99144
 Alpha  occ. eigenvalues --   -7.97175  -5.94191  -5.93816  -5.93115  -5.92225
 Alpha  occ. eigenvalues --   -5.91832  -5.91161  -1.12951  -1.10079  -1.09609
 Alpha  occ. eigenvalues --   -1.08073  -1.07565  -1.03617  -1.02997  -1.01612
 Alpha  occ. eigenvalues --   -0.98533  -0.98337  -0.92237  -0.89628  -0.89571
 Alpha  occ. eigenvalues --   -0.89484  -0.89415  -0.87391  -0.86845  -0.86251
 Alpha  occ. eigenvalues --   -0.85216  -0.84501  -0.84494  -0.84359  -0.84283
 Alpha  occ. eigenvalues --   -0.83534  -0.82763  -0.82674  -0.82645  -0.82596
 Alpha  occ. eigenvalues --   -0.82497  -0.81708  -0.81532  -0.81334  -0.81220
 Alpha  occ. eigenvalues --   -0.80835  -0.78617  -0.78525  -0.78496  -0.78232
 Alpha  occ. eigenvalues --   -0.77698  -0.77285  -0.76632  -0.76466  -0.76125
 Alpha  occ. eigenvalues --   -0.75809  -0.75749  -0.75474  -0.75444  -0.75354
 Alpha  occ. eigenvalues --   -0.74353  -0.74081  -0.73391  -0.73086  -0.72612
 Alpha  occ. eigenvalues --   -0.72274  -0.72164  -0.72021  -0.71833  -0.71728
 Alpha  occ. eigenvalues --   -0.71628  -0.71313  -0.71040  -0.70609  -0.70226
 Alpha  occ. eigenvalues --   -0.69659  -0.69581  -0.69191  -0.68891  -0.68544
 Alpha  occ. eigenvalues --   -0.67171  -0.67096  -0.66786  -0.66298  -0.65313
 Alpha  occ. eigenvalues --   -0.65208  -0.65138  -0.64955  -0.64573  -0.64551
 Alpha  occ. eigenvalues --   -0.64041  -0.63399  -0.63245  -0.62406  -0.62128
 Alpha  occ. eigenvalues --   -0.62051  -0.61378  -0.61274  -0.61100  -0.60947
 Alpha  occ. eigenvalues --   -0.60888  -0.60719  -0.60430  -0.59277  -0.59178
 Alpha  occ. eigenvalues --   -0.59162  -0.58827  -0.58438  -0.58251  -0.57976
 Alpha  occ. eigenvalues --   -0.57713  -0.57264  -0.56626  -0.56426  -0.56105
 Alpha  occ. eigenvalues --   -0.55594  -0.54490  -0.54236  -0.53694  -0.53427
 Alpha  occ. eigenvalues --   -0.52903  -0.52514  -0.52297  -0.51898  -0.51651
 Alpha  occ. eigenvalues --   -0.51203  -0.51172  -0.50792  -0.50251  -0.50214
 Alpha  occ. eigenvalues --   -0.50081  -0.49880  -0.49538  -0.49427  -0.49391
 Alpha  occ. eigenvalues --   -0.49359  -0.49329  -0.49100  -0.49046  -0.48752
 Alpha  occ. eigenvalues --   -0.48606  -0.48463  -0.48429  -0.48346  -0.48294
 Alpha  occ. eigenvalues --   -0.47849  -0.47678  -0.47470  -0.47439  -0.47271
 Alpha  occ. eigenvalues --   -0.47201  -0.46923  -0.46886  -0.46757  -0.46562
 Alpha  occ. eigenvalues --   -0.46459  -0.46397  -0.46083  -0.45954  -0.45922
 Alpha  occ. eigenvalues --   -0.45893  -0.45821  -0.45670  -0.45580  -0.45547
 Alpha  occ. eigenvalues --   -0.45359  -0.45166  -0.45105  -0.45088  -0.45035
 Alpha  occ. eigenvalues --   -0.44957  -0.44904  -0.44800  -0.44698  -0.44547
 Alpha  occ. eigenvalues --   -0.44387  -0.44246  -0.44179  -0.43992  -0.43975
 Alpha  occ. eigenvalues --   -0.43946  -0.43799  -0.43758  -0.43550  -0.43502
 Alpha  occ. eigenvalues --   -0.43487  -0.43420  -0.43378  -0.43282  -0.43165
 Alpha  occ. eigenvalues --   -0.43050  -0.42794  -0.42681  -0.42597  -0.42537
 Alpha  occ. eigenvalues --   -0.42396  -0.42048  -0.42033  -0.41860  -0.41855
 Alpha  occ. eigenvalues --   -0.41772  -0.41688  -0.41603  -0.41519  -0.41266
 Alpha  occ. eigenvalues --   -0.41218  -0.41155  -0.41137  -0.41007  -0.40901
 Alpha  occ. eigenvalues --   -0.40823  -0.40714  -0.40608  -0.40531  -0.40374
 Alpha  occ. eigenvalues --   -0.40325  -0.40216  -0.40188  -0.40022  -0.39846
 Alpha  occ. eigenvalues --   -0.39679  -0.39624  -0.39450  -0.39344  -0.39298
 Alpha  occ. eigenvalues --   -0.39120  -0.38993  -0.38669  -0.38581  -0.38487
 Alpha  occ. eigenvalues --   -0.38435  -0.38345  -0.38275  -0.38105  -0.38031
 Alpha  occ. eigenvalues --   -0.37868  -0.37830  -0.37705  -0.37592  -0.37529
 Alpha  occ. eigenvalues --   -0.37476  -0.37473  -0.37440  -0.37363  -0.37194
 Alpha  occ. eigenvalues --   -0.37149  -0.37070  -0.36989  -0.36702  -0.36572
 Alpha  occ. eigenvalues --   -0.36443  -0.36260  -0.36155  -0.36065  -0.36012
 Alpha  occ. eigenvalues --   -0.35962  -0.35940  -0.35816  -0.35687  -0.35645
 Alpha  occ. eigenvalues --   -0.35559  -0.35470  -0.35432  -0.35271  -0.35068
 Alpha  occ. eigenvalues --   -0.35029  -0.34854  -0.34823  -0.34778  -0.34511
 Alpha  occ. eigenvalues --   -0.34491  -0.34448  -0.34436  -0.34425  -0.34395
 Alpha  occ. eigenvalues --   -0.34372  -0.34265  -0.34142  -0.34140  -0.33916
 Alpha  occ. eigenvalues --   -0.33878  -0.33746  -0.33695  -0.33611  -0.33548
 Alpha  occ. eigenvalues --   -0.33371  -0.33347  -0.33089  -0.32846  -0.32658
 Alpha  occ. eigenvalues --   -0.32592  -0.32510  -0.32449  -0.32330  -0.32162
 Alpha  occ. eigenvalues --   -0.32126  -0.31921  -0.31747  -0.31680  -0.31567
 Alpha  occ. eigenvalues --   -0.31491  -0.31228  -0.30694  -0.30450  -0.30028
 Alpha  occ. eigenvalues --   -0.29896  -0.29241  -0.29200  -0.28825  -0.28238
 Alpha  occ. eigenvalues --   -0.27488  -0.26720  -0.26521  -0.26337  -0.26117
 Alpha  occ. eigenvalues --   -0.25831  -0.25318  -0.24937  -0.24304  -0.23754
 Alpha  occ. eigenvalues --   -0.22499  -0.21953  -0.21844  -0.21569  -0.20254
 Alpha  occ. eigenvalues --   -0.20072  -0.18994  -0.17745
 Alpha virt. eigenvalues --    0.08355   0.13292   0.13535   0.13725   0.13895
 Alpha virt. eigenvalues --    0.14560   0.14776   0.14938   0.14991   0.16097
 Alpha virt. eigenvalues --    0.16337   0.16653   0.17565   0.18799   0.18844
 Alpha virt. eigenvalues --    0.19291   0.19688   0.20302   0.20614   0.20807
 Alpha virt. eigenvalues --    0.21174   0.21282   0.21396   0.21781   0.21826
 Alpha virt. eigenvalues --    0.22123   0.22637   0.22724   0.22771   0.22845
 Alpha virt. eigenvalues --    0.23201   0.23417   0.23544   0.23806   0.24024
 Alpha virt. eigenvalues --    0.24264   0.24324   0.24421   0.24560   0.24611
 Alpha virt. eigenvalues --    0.24783   0.24914   0.25052   0.25227   0.25265
 Alpha virt. eigenvalues --    0.25583   0.25789   0.25848   0.25887   0.25979
 Alpha virt. eigenvalues --    0.26107   0.26294   0.26382   0.26468   0.26565
 Alpha virt. eigenvalues --    0.26748   0.26868   0.26959   0.27174   0.27246
 Alpha virt. eigenvalues --    0.27426   0.27515   0.27556   0.27728   0.27880
 Alpha virt. eigenvalues --    0.28008   0.28044   0.28092   0.28267   0.28298
 Alpha virt. eigenvalues --    0.28403   0.28524   0.28619   0.28713   0.28749
 Alpha virt. eigenvalues --    0.28817   0.28879   0.29008   0.29081   0.29144
 Alpha virt. eigenvalues --    0.29213   0.29419   0.29586   0.29647   0.29703
 Alpha virt. eigenvalues --    0.29782   0.29841   0.29945   0.30061   0.30195
 Alpha virt. eigenvalues --    0.30336   0.30378   0.30405   0.30542   0.30618
 Alpha virt. eigenvalues --    0.30747   0.30839   0.30961   0.31043   0.31062
 Alpha virt. eigenvalues --    0.31120   0.31154   0.31287   0.31351   0.31414
 Alpha virt. eigenvalues --    0.31549   0.31653   0.31681   0.31765   0.31870
 Alpha virt. eigenvalues --    0.31979   0.32004   0.32036   0.32093   0.32151
 Alpha virt. eigenvalues --    0.32271   0.32372   0.32479   0.32519   0.32637
 Alpha virt. eigenvalues --    0.32762   0.32797   0.32919   0.32984   0.33033
 Alpha virt. eigenvalues --    0.33128   0.33196   0.33287   0.33325   0.33455
 Alpha virt. eigenvalues --    0.33558   0.33581   0.33676   0.33703   0.33816
 Alpha virt. eigenvalues --    0.33913   0.33978   0.34199   0.34209   0.34239
 Alpha virt. eigenvalues --    0.34303   0.34407   0.34532   0.34557   0.34725
 Alpha virt. eigenvalues --    0.34728   0.34896   0.34950   0.35105   0.35159
 Alpha virt. eigenvalues --    0.35288   0.35520   0.35551   0.35615   0.35817
 Alpha virt. eigenvalues --    0.35906   0.35972   0.36002   0.36084   0.36183
 Alpha virt. eigenvalues --    0.36248   0.36414   0.36556   0.36578   0.36755
 Alpha virt. eigenvalues --    0.36851   0.36911   0.36947   0.37090   0.37230
 Alpha virt. eigenvalues --    0.37255   0.37404   0.37412   0.37564   0.37609
 Alpha virt. eigenvalues --    0.37713   0.37747   0.37890   0.37928   0.38072
 Alpha virt. eigenvalues --    0.38189   0.38315   0.38370   0.38438   0.38541
 Alpha virt. eigenvalues --    0.38638   0.38681   0.38913   0.39046   0.39093
 Alpha virt. eigenvalues --    0.39202   0.39215   0.39321   0.39368   0.39456
 Alpha virt. eigenvalues --    0.39494   0.39625   0.39801   0.39882   0.40003
 Alpha virt. eigenvalues --    0.40022   0.40202   0.40244   0.40304   0.40315
 Alpha virt. eigenvalues --    0.40442   0.40557   0.40648   0.40685   0.40880
 Alpha virt. eigenvalues --    0.41004   0.41227   0.41282   0.41433   0.41571
 Alpha virt. eigenvalues --    0.41683   0.41915   0.41994   0.42023   0.42221
 Alpha virt. eigenvalues --    0.42394   0.42651   0.42818   0.42986   0.43068
 Alpha virt. eigenvalues --    0.43153   0.43203   0.43351   0.43436   0.43643
 Alpha virt. eigenvalues --    0.43776   0.44085   0.44174   0.44360   0.44558
 Alpha virt. eigenvalues --    0.44670   0.44811   0.44981   0.45392   0.45594
 Alpha virt. eigenvalues --    0.45690   0.45909   0.46210   0.46340   0.46443
 Alpha virt. eigenvalues --    0.46727   0.46939   0.47314   0.47403   0.47592
 Alpha virt. eigenvalues --    0.47820   0.47932   0.48177   0.48409   0.48706
 Alpha virt. eigenvalues --    0.48851   0.49114   0.49356   0.49593   0.49849
 Alpha virt. eigenvalues --    0.49981   0.50280   0.50504   0.50919   0.51057
 Alpha virt. eigenvalues --    0.51508   0.51632   0.51926   0.52059   0.52407
 Alpha virt. eigenvalues --    0.52555   0.52676   0.53512   0.53571   0.54141
 Alpha virt. eigenvalues --    0.54333   0.54521   0.55343   0.56079   0.56788
 Alpha virt. eigenvalues --    0.57978   0.58402   0.58659   0.59005   0.59445
 Alpha virt. eigenvalues --    0.60632   0.60806   0.61290   0.61536   0.61773
 Alpha virt. eigenvalues --    0.61936   0.62196   0.62412   0.62721   0.63139
 Alpha virt. eigenvalues --    0.63216   0.63429   0.63572   0.63759   0.63811
 Alpha virt. eigenvalues --    0.63872   0.64200   0.64310   0.64351   0.64748
 Alpha virt. eigenvalues --    0.64849   0.65008   0.65213   0.65546   0.65657
 Alpha virt. eigenvalues --    0.65746   0.65858   0.66008   0.66119   0.66239
 Alpha virt. eigenvalues --    0.66400   0.66588   0.66705   0.66799   0.66977
 Alpha virt. eigenvalues --    0.67004   0.67194   0.67394   0.67415   0.67532
 Alpha virt. eigenvalues --    0.67667   0.67689   0.67939   0.68124   0.68214
 Alpha virt. eigenvalues --    0.68394   0.68431   0.68548   0.68595   0.68648
 Alpha virt. eigenvalues --    0.68860   0.68942   0.69057   0.69257   0.69364
 Alpha virt. eigenvalues --    0.69482   0.69601   0.69868   0.69986   0.70105
 Alpha virt. eigenvalues --    0.70195   0.70314   0.70389   0.70592   0.70682
 Alpha virt. eigenvalues --    0.70738   0.70964   0.71026   0.71154   0.71281
 Alpha virt. eigenvalues --    0.71416   0.71640   0.71807   0.71927   0.72086
 Alpha virt. eigenvalues --    0.72160   0.72323   0.72575   0.72618   0.72668
 Alpha virt. eigenvalues --    0.72836   0.72995   0.73108   0.73192   0.73296
 Alpha virt. eigenvalues --    0.73333   0.73497   0.73631   0.73843   0.73931
 Alpha virt. eigenvalues --    0.74010   0.74077   0.74205   0.74313   0.74517
 Alpha virt. eigenvalues --    0.74751   0.74789   0.74928   0.75077   0.75146
 Alpha virt. eigenvalues --    0.75284   0.75406   0.75498   0.75635   0.75899
 Alpha virt. eigenvalues --    0.76154   0.76241   0.76285   0.76479   0.76562
 Alpha virt. eigenvalues --    0.76654   0.76769   0.76920   0.76945   0.77054
 Alpha virt. eigenvalues --    0.77215   0.77273   0.77454   0.77541   0.77610
 Alpha virt. eigenvalues --    0.77815   0.78027   0.78115   0.78251   0.78437
 Alpha virt. eigenvalues --    0.78550   0.78705   0.78791   0.79012   0.79147
 Alpha virt. eigenvalues --    0.79213   0.79369   0.79802   0.79926   0.80049
 Alpha virt. eigenvalues --    0.80275   0.80373   0.80403   0.80517   0.80693
 Alpha virt. eigenvalues --    0.80726   0.80801   0.81021   0.81151   0.81164
 Alpha virt. eigenvalues --    0.81351   0.81398   0.81514   0.81661   0.81702
 Alpha virt. eigenvalues --    0.81798   0.81958   0.81986   0.82138   0.82371
 Alpha virt. eigenvalues --    0.82495   0.82763   0.82778   0.82915   0.82995
 Alpha virt. eigenvalues --    0.83186   0.83312   0.83464   0.83618   0.83699
 Alpha virt. eigenvalues --    0.84067   0.84087   0.84249   0.84450   0.84584
 Alpha virt. eigenvalues --    0.84610   0.84887   0.85052   0.85143   0.85312
 Alpha virt. eigenvalues --    0.85684   0.85742   0.86020   0.86039   0.86389
 Alpha virt. eigenvalues --    0.86529   0.86657   0.86815   0.87026   0.87075
 Alpha virt. eigenvalues --    0.87218   0.87288   0.87392   0.87454   0.87547
 Alpha virt. eigenvalues --    0.87628   0.87667   0.87726   0.87886   0.87938
 Alpha virt. eigenvalues --    0.88087   0.88309   0.88512   0.88668   0.88699
 Alpha virt. eigenvalues --    0.88985   0.89001   0.89180   0.89265   0.89363
 Alpha virt. eigenvalues --    0.89573   0.89738   0.90006   0.90153   0.90227
 Alpha virt. eigenvalues --    0.90385   0.90664   0.90829   0.91031   0.91054
 Alpha virt. eigenvalues --    0.91279   0.91689   0.91813   0.92133   0.92188
 Alpha virt. eigenvalues --    0.92260   0.92370   0.92530   0.92684   0.92782
 Alpha virt. eigenvalues --    0.93004   0.93193   0.93374   0.93581   0.93645
 Alpha virt. eigenvalues --    0.93998   0.94350   0.94435   0.94503   0.94771
 Alpha virt. eigenvalues --    0.94908   0.95103   0.95447   0.95469   0.95600
 Alpha virt. eigenvalues --    0.96323   0.96406   0.96761   0.97014   0.97214
 Alpha virt. eigenvalues --    0.97252   0.97472   0.97734   0.97994   0.98168
 Alpha virt. eigenvalues --    0.98236   0.98294   0.98406   0.98420   0.98547
 Alpha virt. eigenvalues --    0.98626   0.98854   0.99027   0.99106   0.99189
 Alpha virt. eigenvalues --    0.99360   0.99609   0.99728   0.99942   1.00037
 Alpha virt. eigenvalues --    1.00266   1.00345   1.00419   1.00589   1.00783
 Alpha virt. eigenvalues --    1.00805   1.00853   1.01034   1.01070   1.01249
 Alpha virt. eigenvalues --    1.01388   1.01423   1.01596   1.01650   1.01763
 Alpha virt. eigenvalues --    1.01834   1.02061   1.02229   1.02399   1.02534
 Alpha virt. eigenvalues --    1.02828   1.02997   1.03168   1.03423   1.03443
 Alpha virt. eigenvalues --    1.03552   1.03681   1.03796   1.03996   1.04058
 Alpha virt. eigenvalues --    1.04241   1.04290   1.04414   1.04517   1.04567
 Alpha virt. eigenvalues --    1.04679   1.04869   1.04996   1.05071   1.05087
 Alpha virt. eigenvalues --    1.05180   1.05225   1.05376   1.05400   1.05506
 Alpha virt. eigenvalues --    1.05654   1.05834   1.05962   1.06074   1.06088
 Alpha virt. eigenvalues --    1.06224   1.06427   1.06471   1.06554   1.06690
 Alpha virt. eigenvalues --    1.06807   1.06941   1.06985   1.07171   1.07180
 Alpha virt. eigenvalues --    1.07285   1.07304   1.07450   1.07503   1.07686
 Alpha virt. eigenvalues --    1.07779   1.07873   1.07928   1.07982   1.08043
 Alpha virt. eigenvalues --    1.08265   1.08367   1.08401   1.08499   1.08593
 Alpha virt. eigenvalues --    1.08702   1.08790   1.08937   1.09135   1.09165
 Alpha virt. eigenvalues --    1.09247   1.09362   1.09571   1.09670   1.09753
 Alpha virt. eigenvalues --    1.09776   1.09841   1.09931   1.10124   1.10185
 Alpha virt. eigenvalues --    1.10320   1.10407   1.10491   1.10581   1.10637
 Alpha virt. eigenvalues --    1.10811   1.10991   1.11059   1.11218   1.11233
 Alpha virt. eigenvalues --    1.11296   1.11541   1.11567   1.11802   1.11883
 Alpha virt. eigenvalues --    1.12198   1.12305   1.12386   1.12523   1.12570
 Alpha virt. eigenvalues --    1.12658   1.12702   1.12906   1.12982   1.13031
 Alpha virt. eigenvalues --    1.13117   1.13372   1.13442   1.13614   1.13802
 Alpha virt. eigenvalues --    1.13964   1.14004   1.14232   1.14285   1.14349
 Alpha virt. eigenvalues --    1.14500   1.14679   1.14841   1.14913   1.15039
 Alpha virt. eigenvalues --    1.15201   1.15346   1.15533   1.15570   1.15692
 Alpha virt. eigenvalues --    1.15730   1.15805   1.15930   1.16188   1.16249
 Alpha virt. eigenvalues --    1.16368   1.16404   1.16507   1.16659   1.16772
 Alpha virt. eigenvalues --    1.16932   1.17020   1.17251   1.17355   1.17434
 Alpha virt. eigenvalues --    1.17645   1.17757   1.17872   1.18151   1.18347
 Alpha virt. eigenvalues --    1.18406   1.18523   1.18840   1.19100   1.19219
 Alpha virt. eigenvalues --    1.19420   1.19530   1.19595   1.19807   1.20004
 Alpha virt. eigenvalues --    1.20112   1.20227   1.20425   1.20551   1.20788
 Alpha virt. eigenvalues --    1.20890   1.21110   1.21350   1.21531   1.21670
 Alpha virt. eigenvalues --    1.21750   1.21844   1.21976   1.22294   1.22636
 Alpha virt. eigenvalues --    1.22812   1.23066   1.23236   1.23538   1.23646
 Alpha virt. eigenvalues --    1.23797   1.23925   1.24280   1.24504   1.24716
 Alpha virt. eigenvalues --    1.25114   1.25205   1.25379   1.25666   1.25822
 Alpha virt. eigenvalues --    1.26085   1.26212   1.26274   1.26515   1.26852
 Alpha virt. eigenvalues --    1.27081   1.27385   1.27627   1.27707   1.27944
 Alpha virt. eigenvalues --    1.28119   1.28402   1.28755   1.29137   1.29366
 Alpha virt. eigenvalues --    1.29508   1.29737   1.30003   1.30272   1.30462
 Alpha virt. eigenvalues --    1.30722   1.31182   1.31295   1.31816   1.32173
 Alpha virt. eigenvalues --    1.32468   1.32847   1.32889   1.33122   1.33196
 Alpha virt. eigenvalues --    1.33753   1.33952   1.34089   1.34515   1.34765
 Alpha virt. eigenvalues --    1.34996   1.35125   1.35344   1.35540   1.35676
 Alpha virt. eigenvalues --    1.35900   1.36037   1.36263   1.36898   1.37215
 Alpha virt. eigenvalues --    1.37312   1.37654   1.37816   1.38092   1.38686
 Alpha virt. eigenvalues --    1.38723   1.38945   1.39178   1.39436   1.39733
 Alpha virt. eigenvalues --    1.40027   1.40133   1.40564   1.40926   1.41163
 Alpha virt. eigenvalues --    1.41237   1.41600   1.41977   1.42266   1.42641
 Alpha virt. eigenvalues --    1.43558   1.43762   1.44064   1.44251   1.44455
 Alpha virt. eigenvalues --    1.44868   1.45282   1.45842   1.46013   1.46196
 Alpha virt. eigenvalues --    1.46806   1.47648   1.48175   1.48427   1.48688
 Alpha virt. eigenvalues --    1.49119   1.49570   1.49762   1.50325   1.50477
 Alpha virt. eigenvalues --    1.50988   1.51118   1.51379   1.51791   1.52014
 Alpha virt. eigenvalues --    1.52137   1.52294   1.52531   1.53024   1.53500
 Alpha virt. eigenvalues --    1.54221   1.54466   1.54572   1.54766   1.55149
 Alpha virt. eigenvalues --    1.55488   1.56191   1.56565   1.56662   1.56965
 Alpha virt. eigenvalues --    1.57232   1.57273   1.57529   1.57805   1.57819
 Alpha virt. eigenvalues --    1.57974   1.58082   1.58367   1.58653   1.58737
 Alpha virt. eigenvalues --    1.58888   1.58925   1.58957   1.59281   1.59407
 Alpha virt. eigenvalues --    1.59478   1.59619   1.59808   1.60247   1.60510
 Alpha virt. eigenvalues --    1.60522   1.60546   1.60900   1.61031   1.61176
 Alpha virt. eigenvalues --    1.61393   1.61611   1.61678   1.61811   1.61993
 Alpha virt. eigenvalues --    1.62265   1.62523   1.62639   1.62718   1.62880
 Alpha virt. eigenvalues --    1.63031   1.63175   1.63353   1.63494   1.63696
 Alpha virt. eigenvalues --    1.63722   1.63995   1.64277   1.64423   1.64562
 Alpha virt. eigenvalues --    1.64699   1.65287   1.65509   1.65951   1.65990
 Alpha virt. eigenvalues --    1.66256   1.66347   1.66458   1.66590   1.66715
 Alpha virt. eigenvalues --    1.67027   1.67077   1.67628   1.67678   1.67849
 Alpha virt. eigenvalues --    1.68140   1.68542   1.68762   1.68799   1.69987
 Alpha virt. eigenvalues --    1.70290   1.70510   1.70681   1.71667   1.71749
 Alpha virt. eigenvalues --    1.72140   1.72686   1.73216   1.73555   1.73837
 Alpha virt. eigenvalues --    1.74106   1.74275   1.75256   1.75652   1.76023
 Alpha virt. eigenvalues --    1.76234   1.76518   1.77343   1.77567   1.77844
 Alpha virt. eigenvalues --    1.78475   1.79095   1.79372   1.79848   1.80002
 Alpha virt. eigenvalues --    1.80939   1.81073   1.81350   1.81532   1.81708
 Alpha virt. eigenvalues --    1.82929   1.83218   1.83728   1.84054   1.84840
 Alpha virt. eigenvalues --    1.85208   1.85867   1.86014   1.86241   1.86314
 Alpha virt. eigenvalues --    1.86535   1.86862   1.87020   1.87212   1.87247
 Alpha virt. eigenvalues --    1.87405   1.87722   1.87839   1.88047   1.88394
 Alpha virt. eigenvalues --    1.88458   1.88481   1.88573   1.88702   1.89023
 Alpha virt. eigenvalues --    1.89145   1.89266   1.89412   1.89829   1.90017
 Alpha virt. eigenvalues --    1.90475   1.90703   1.90840   1.91129   1.91545
 Alpha virt. eigenvalues --    1.91748   1.91875   1.92066   1.92507   1.92995
 Alpha virt. eigenvalues --    1.93040   1.93321   1.93824   1.93848   1.94057
 Alpha virt. eigenvalues --    1.94240   1.94477   1.95006   1.95121   1.95142
 Alpha virt. eigenvalues --    1.95186   1.95431   1.95936   1.96103   1.96534
 Alpha virt. eigenvalues --    1.96869   1.96898   1.97014   1.97209   1.97573
 Alpha virt. eigenvalues --    1.97710   1.97901   1.98167   1.98319   1.98435
 Alpha virt. eigenvalues --    1.98712   1.98789   1.99030   1.99075   1.99236
 Alpha virt. eigenvalues --    1.99576   1.99840   2.00149   2.00714   2.01222
 Alpha virt. eigenvalues --    2.01792   2.02208   2.02499   2.02688   2.02917
 Alpha virt. eigenvalues --    2.02932   2.03574   2.03657   2.04204   2.04397
 Alpha virt. eigenvalues --    2.04552   2.04957   2.05173   2.05253   2.05470
 Alpha virt. eigenvalues --    2.05515   2.05696   2.05995   2.06258   2.06343
 Alpha virt. eigenvalues --    2.06682   2.07251   2.07335   2.07492   2.07551
 Alpha virt. eigenvalues --    2.07807   2.08174   2.08550   2.08593   2.08973
 Alpha virt. eigenvalues --    2.09445   2.09520   2.09606   2.09750   2.09852
 Alpha virt. eigenvalues --    2.10070   2.10076   2.10186   2.10465   2.10696
 Alpha virt. eigenvalues --    2.10865   2.10945   2.11079   2.11308   2.11495
 Alpha virt. eigenvalues --    2.11569   2.11620   2.11756   2.11829   2.12049
 Alpha virt. eigenvalues --    2.12217   2.12459   2.12557   2.12764   2.12870
 Alpha virt. eigenvalues --    2.12967   2.13093   2.13131   2.13308   2.13463
 Alpha virt. eigenvalues --    2.13646   2.13955   2.14092   2.14189   2.14405
 Alpha virt. eigenvalues --    2.14654   2.14746   2.15116   2.15307   2.15393
 Alpha virt. eigenvalues --    2.15471   2.15640   2.15840   2.15917   2.15951
 Alpha virt. eigenvalues --    2.16309   2.16410   2.16659   2.16702   2.17183
 Alpha virt. eigenvalues --    2.17244   2.17537   2.17852   2.18002   2.18189
 Alpha virt. eigenvalues --    2.18396   2.18604   2.18660   2.18756   2.18941
 Alpha virt. eigenvalues --    2.19023   2.19511   2.19586   2.19947   2.19997
 Alpha virt. eigenvalues --    2.20390   2.20581   2.20675   2.20731   2.20988
 Alpha virt. eigenvalues --    2.21122   2.21449   2.21678   2.22015   2.22052
 Alpha virt. eigenvalues --    2.22322   2.22856   2.23183   2.23485   2.23620
 Alpha virt. eigenvalues --    2.23738   2.23866   2.24433   2.24529   2.24725
 Alpha virt. eigenvalues --    2.24856   2.24929   2.25229   2.25352   2.25931
 Alpha virt. eigenvalues --    2.26244   2.26347   2.26492   2.26696   2.26834
 Alpha virt. eigenvalues --    2.27324   2.27375   2.27490   2.27602   2.27898
 Alpha virt. eigenvalues --    2.28501   2.28608   2.29005   2.29191   2.29246
 Alpha virt. eigenvalues --    2.29316   2.29529   2.29702   2.30174   2.30712
 Alpha virt. eigenvalues --    2.30715   2.30795   2.30954   2.31091   2.31313
 Alpha virt. eigenvalues --    2.31402   2.31479   2.31632   2.31918   2.32534
 Alpha virt. eigenvalues --    2.32572   2.32782   2.32985   2.33109   2.33303
 Alpha virt. eigenvalues --    2.34048   2.34377   2.34816   2.35078   2.35203
 Alpha virt. eigenvalues --    2.35657   2.35798   2.35988   2.36134   2.36550
 Alpha virt. eigenvalues --    2.36977   2.37398   2.37541   2.37622   2.37798
 Alpha virt. eigenvalues --    2.38691   2.38835   2.38897   2.39527   2.39782
 Alpha virt. eigenvalues --    2.40434   2.40670   2.40758   2.40870   2.40925
 Alpha virt. eigenvalues --    2.41012   2.41085   2.41165   2.41241   2.41446
 Alpha virt. eigenvalues --    2.41491   2.41755   2.41832   2.42024   2.42204
 Alpha virt. eigenvalues --    2.42325   2.42464   2.42593   2.42655   2.42799
 Alpha virt. eigenvalues --    2.43016   2.43094   2.43505   2.43562   2.43777
 Alpha virt. eigenvalues --    2.43890   2.43925   2.44202   2.44267   2.44592
 Alpha virt. eigenvalues --    2.44631   2.44842   2.44937   2.45005   2.45099
 Alpha virt. eigenvalues --    2.45343   2.45510   2.45680   2.45774   2.45842
 Alpha virt. eigenvalues --    2.46215   2.46544   2.46752   2.46926   2.47093
 Alpha virt. eigenvalues --    2.47194   2.47288   2.47414   2.47491   2.47882
 Alpha virt. eigenvalues --    2.48021   2.48064   2.48126   2.48327   2.48623
 Alpha virt. eigenvalues --    2.48876   2.48985   2.49420   2.49806   2.49861
 Alpha virt. eigenvalues --    2.50072   2.50102   2.50172   2.50577   2.51034
 Alpha virt. eigenvalues --    2.51194   2.51256   2.51422   2.51653   2.51851
 Alpha virt. eigenvalues --    2.51912   2.52028   2.52544   2.52756   2.52921
 Alpha virt. eigenvalues --    2.53000   2.53624   2.54077   2.54193   2.54372
 Alpha virt. eigenvalues --    2.54513   2.54996   2.55625   2.56050   2.56710
 Alpha virt. eigenvalues --    2.56861   2.57162   2.57452   2.57725   2.58494
 Alpha virt. eigenvalues --    2.59152   2.59341   2.59650   2.59699   2.59977
 Alpha virt. eigenvalues --    2.60386   2.60580   2.61167   2.61219   2.61439
[...]
   80 Atom       -0.303588      0.148351      0.155237
   81 Atom       -0.304120      0.148201      0.155918
   82 Atom       -0.044966      0.008493      0.036473
   83 Atom       -0.305402      0.149070      0.156332
   84 Atom       -0.301713      0.147544      0.154170
   85 Atom       -0.304814      0.148700      0.156114
   86 Atom       -0.283341      0.134319      0.149022
   87 Atom       -0.305767      0.150584      0.155183
   88 Atom       -0.012768      0.003396      0.009372
   89 Atom       -0.305612      0.149542      0.156070
   90 Atom       -0.024297      0.000136      0.024160
   91 Atom       -0.285468      0.142061      0.143407
   92 Atom       -0.032975      0.010424      0.022551
   93 Atom       -0.306514      0.150245      0.156269
   94 Atom       -0.301528      0.147098      0.154430
   95 Atom       -0.304886      0.149003      0.155883
   96 Atom       -0.032938     -0.007330      0.040268
   97 Atom       -0.306519      0.148993      0.157526
   98 Atom       -0.305805      0.150100      0.155705
   99 Atom       -0.293805      0.144826      0.148979
  100 Atom       -0.305735      0.150483      0.155252
  101 Atom       -0.303027      0.147541      0.155487
  102 Atom       -0.052630      0.019845      0.032785
  103 Atom       -0.305564      0.149971      0.155594
  104 Atom       -0.024039     -0.012885      0.036924
  105 Atom       -0.292747      0.144097      0.148650
  106 Atom       -0.293213      0.144182      0.149031
  107 Atom       -0.279744      0.101128      0.178616
  108 Atom       -0.230682      0.076508      0.154173
  109 Atom       -0.312490      0.145616      0.166873
  110 Atom       -0.271467      0.105924      0.165543
  111 Atom       -0.312104      0.147112      0.164992
  112 Atom       -0.263787      0.110692      0.153095
  113 Atom       -0.313482      0.147806      0.165676
  114 Atom       -0.320583      0.140333      0.180251
  115 Atom       -0.295692      0.140226      0.155466
  116 Atom       -0.245585      0.085780      0.159805
  117 Atom       -0.313425      0.146912      0.166513
  118 Atom       -0.304034      0.147981      0.156053
  119 Atom       -0.303314      0.149126      0.154189
  120 Atom       -0.008915     -0.001813      0.010728
  121 Atom       -0.306425      0.150566      0.155859
  122 Atom       -0.035344     -0.023232      0.058576
  123 Atom       -0.278230      0.138390      0.139840
  124 Atom       -0.018112      0.004142      0.013971
  125 Atom       -0.302524      0.148119      0.154406
  126 Atom       -0.306544      0.150652      0.155892
  127 Atom       -0.305260      0.149680      0.155580
  128 Atom       -0.022664      0.004263      0.018401
  129 Atom       -0.301425      0.147758      0.153667
  130 Atom       -0.303743      0.148965      0.154778
  131 Atom       -0.307073      0.150203      0.156870
  132 Atom       -0.307857      0.150867      0.156990
  133 Atom       -0.300442      0.145430      0.155012
  134 Atom       -0.043534      0.005518      0.038016
  135 Atom       -0.306450      0.150303      0.156147
  136 Atom       -0.059868      0.008634      0.051235
  137 Atom       -0.293189      0.143873      0.149316
  138 Atom       -0.291818      0.142556      0.149262
  139 Atom       -0.218934      0.084215      0.134719
  140 Atom       -0.292934      0.140842      0.152092
  141 Atom       -0.288105      0.139679      0.148425
  142 Atom       -2.285445     -0.559886      2.845331
  143 Atom       -0.212840      0.097999      0.114841
  144 Atom       -0.304535      0.147397      0.157137
  145 Atom       -0.301473      0.146322      0.155152
  146 Atom       -0.308355      0.147550      0.160805
  147 Atom       -0.304776      0.148421      0.156355
  148 Atom       -0.305379      0.151008      0.154372
  149 Atom       -0.014739      0.003488      0.011251
  150 Atom       -0.307527      0.151620      0.155907
  151 Atom       -0.034569      0.006146      0.028422
  152 Atom       -0.293338      0.143292      0.150046
  153 Atom       -0.294259      0.144475      0.149783
  154 Atom       -0.030000     -0.001960      0.031960
  155 Atom       -0.284099      0.140844      0.143255
  156 Atom       -0.018157      0.003850      0.014307
  157 Atom       -0.307224      0.151208      0.156016
  158 Atom       -0.305327      0.149962      0.155365
  159 Atom       -0.304513      0.150022      0.154491
  160 Atom       -0.045507      0.011494      0.034013
  161 Atom       -0.305385      0.149372      0.156013
  162 Atom       -0.299266      0.146382      0.152884
  163 Atom       -0.304975      0.148511      0.156464
  164 Atom       -0.304138      0.149964      0.154174
  165 Atom       -0.305314      0.150407      0.154907
  166 Atom       -0.007204     -0.002454      0.009658
  167 Atom       -0.304434      0.149319      0.155115
  168 Atom       -0.024724      0.002161      0.022563
  169 Atom       -0.286666      0.142948      0.143719
  170 Atom       -0.039518     -0.003453      0.042971
  171 Atom       -0.297763      0.146174      0.151589
  172 Atom       -0.305822      0.149639      0.156183
  173 Atom       -0.298962      0.145503      0.153458
  174 Atom       -0.035604     -0.002165      0.037769
  175 Atom       -0.300746      0.146867      0.153879
  176 Atom       -0.305494      0.149071      0.156423
  177 Atom       -0.303533      0.147890      0.155643
  178 Atom       -0.305896      0.150703      0.155193
  179 Atom       -0.301405      0.146790      0.154614
  180 Atom       -0.097849      0.031130      0.066719
  181 Atom       -0.296097      0.143167      0.152930
  182 Atom       -0.062082     -0.001979      0.064060
  183 Atom       -0.293467      0.142766      0.150701
  184 Atom       -0.294355      0.144162      0.150193
  185 Atom       -0.402611      0.040037      0.362574
  186 Atom       -0.774690     -0.682373      1.457064
  187 Atom       -1.264229      0.508135      0.756095
  188 Atom       -0.254201      0.113375      0.140827
  189 Atom       -0.306689      0.149172      0.157517
  190 Atom       -0.306959      0.150490      0.156469
  191 Atom       -0.043731     -0.004602      0.048332
  192 Atom       -0.305898      0.148834      0.157064
  193 Atom       -0.035884      0.000473      0.035410
  194 Atom       -0.292407      0.143672      0.148735
  195 Atom       -0.293480      0.143909      0.149572
  196 Atom       -0.213535      0.068091      0.145444
  197 Atom       -0.297516      0.142476      0.155040
  198 Atom       -0.286901      0.139252      0.147649
  199 Atom       -2.278783     -0.506153      2.784936
  200 Atom       -0.226195      0.103309      0.122886
  201 Atom       -0.305087      0.148197      0.156890
  202 Atom       -0.300596      0.144179      0.156417
  203 Atom       -0.302244      0.143899      0.158345
  204 Atom       -0.298985      0.146629      0.152356
  205 Atom       -0.304922      0.148136      0.156786
  206 Atom       -0.017404      0.003854      0.013550
  207 Atom       -0.304715      0.150214      0.154501
  208 Atom       -0.070869     -0.000821      0.071690
  209 Atom       -0.308134      0.149055      0.159078
  210 Atom       -0.286957      0.141410      0.145547
  211 Atom       -0.306823      0.151291      0.155532
  212 Atom       -0.305310      0.150007      0.155303
  213 Atom       -0.304919      0.149382      0.155536
  214 Atom       -0.032456      0.009485      0.022971
  215 Atom       -0.305387      0.150480      0.154907
  216 Atom       -0.037287     -0.001647      0.038934
  217 Atom       -0.293030      0.145351      0.147680
  218 Atom       -0.292549      0.144626      0.147923
  219 Atom       -0.079852      0.014345      0.065507
  220 Atom       -0.119738     -0.091705      0.211444
  221 Atom       -0.326378      0.150246      0.176132
  222 Atom       -0.405156     -0.154387      0.559543
  223 Atom       -0.304504      0.127300      0.177204
  224 Atom       -0.147924     -0.081277      0.229200
  225 Atom       -0.215821      0.080376      0.135446
  226 Atom       -0.312175      0.146790      0.165385
  227 Atom       -0.213352      0.079365      0.133987
  228 Atom       -0.314504      0.146823      0.167681
  229 Atom       -0.196844      0.066432      0.130411
  230 Atom       -0.314314      0.145832      0.168481
  231 Atom       -0.218132      0.069800      0.148332
  232 Atom       -0.314817      0.148676      0.166141
  233 Atom       -0.193431      0.080466      0.112964
  234 Atom       -0.304673      0.149134      0.155539
  235 Atom       -0.568702      0.144732      0.423970
  236 Atom       -0.928183     -0.385246      1.313429
  237 Atom       -0.116897      0.012132      0.104765
  238 Atom       -0.612239      0.292348      0.319891
  239 Atom       -0.096624     -0.050434      0.147058
  240 Atom       -0.064776      0.010871      0.053905
  241 Atom       -0.054944      0.001727      0.053217
  242 Atom       -0.096373     -0.007632      0.104005
  243 Atom       -0.039355     -0.013146      0.052501
  244 Atom       -0.027721     -0.009194      0.036915
  245 Atom       -0.031478      0.000345      0.031133
  246 Atom       -0.023102     -0.005128      0.028230
  247 Atom       -0.032120      0.005931      0.026190
  248 Atom       -0.022702      0.002412      0.020290
  249 Atom       -0.014707     -0.007741      0.022448
  250 Atom       -0.063107      0.013147      0.049960
  251 Atom       -0.030279     -0.008021      0.038299
  252 Atom       -0.279771      0.131847      0.147923
  253 Atom       -0.034435      0.004571      0.029865
  254 Atom       -1.600287     -0.093724      1.694011
  255 Atom       -0.295835      0.132323      0.163512
  256 Atom       -0.207570      0.101950      0.105620
  257 Atom       -0.287069      0.139673      0.147396
  258 Atom       -0.296033      0.144492      0.151542
  259 Atom       -0.284305      0.139013      0.145293
  260 Atom       -0.292129      0.141760      0.150369
  261 Atom       -0.295907      0.140187      0.155721
  262 Atom       -0.235364      0.114400      0.120964
  263 Atom       -0.288900      0.141512      0.147388
  264 Atom       -0.290356      0.142824      0.147531
  265 Atom       -0.284354      0.140273      0.144081
  266 Atom       -0.277414      0.137511      0.139903
  267 Atom       -0.275746      0.135996      0.139750
  268 Atom       -0.290565      0.143462      0.147104
  269 Atom       -0.300297      0.148214      0.152083
  270 Atom       -0.294660      0.146350      0.148310
  271 Atom       -0.295361      0.145084      0.150277
  272 Atom       -0.299791      0.147863      0.151928
  273 Atom       -0.295075      0.145731      0.149344
  274 Atom       -0.304048      0.150481      0.153567
  275 Atom       -0.300519      0.148535      0.151984
  276 Atom       -0.267473      0.127769      0.139704
  277 Atom       -0.310281      0.149285      0.160997
  278 Atom       -0.307790      0.148321      0.159469
  279 Atom       -0.305662      0.150167      0.155495
  280 Atom       -0.402756      0.174879      0.227878
 -----------------------------------------------------
 Unable to Open any file for archive entry.
 1\1\GINC-EXP-3-02\SP\RwB97XD\6-31G(d)\C96H171N2O9S2(1-)\HKLEM\11-Jul-2
 024\0\\# wb97xd/6-31G(d) prop=efg\\19nt_mm_min_distance_cutoff4_nowat_
 xtb_conf_1\\-1,1\H,0,46.9995,33.7396,30.8221\C,0,46.354,34.588,30.601\
 H,0,46.3036,34.7132,29.5219\C,0,44.9555,34.3687,31.1772\H,0,44.5208,33
 .4687,30.7352\H,0,45.0271,34.2176,32.2563\C,0,44.0831,35.5562,30.8844\
 C,0,43.492,35.7029,29.636\H,0,43.6326,34.9365,28.8866\C,0,42.7238,36.8
 087,29.3351\H,0,42.2655,36.9091,28.3634\C,0,42.5288,37.8001,30.2942\O,
 0,41.7583,38.8696,29.9748\H,0,41.7339,39.5208,30.7291\C,0,43.1228,37.6
 674,31.5434\H,0,42.9733,38.4348,32.2879\C,0,43.8925,36.5557,31.8275\H,
 0,44.3485,36.4645,32.8034\H,0,46.8003,35.4837,31.0276\H,0,48.9566,38.6
 316,26.5814\C,0,48.063,39.251,26.62\H,0,47.4722,39.06,25.7262\C,0,47.2
 428,38.9346,27.8714\H,0,47.866,39.1306,28.7515\C,0,46.0035,39.822,27.9
 516\H,0,46.2812,40.8739,27.9326\H,0,45.3389,39.6185,27.1139\H,0,45.457
 6,39.6276,28.8722\C,0,46.8291,37.4653,27.8882\H,0,46.2335,37.2496,28.7
 726\H,0,47.7023,36.8158,27.8912\H,0,46.2289,37.2332,27.0103\H,0,48.366
 7,40.2954,26.6167\H,0,36.0936,46.5078,32.4858\C,0,37.164,46.712,32.465
 \H,0,37.601,46.4067,33.4139\C,0,37.837,45.9587,31.3254\H,0,37.4706,46.
 3037,30.356\H,0,37.6107,44.8896,31.4055\C,0,39.3923,46.0562,31.3016\O,
 0,39.9864,46.1794,32.3916\O,0,39.9186,45.9508,30.1829\H,0,37.3132,47.7
 848,32.3531\H,0,39.7373,42.4599,23.1576\C,0,40.763,42.802,23.272\H,0,4
 0.8216,43.3956,24.1816\C,0,41.7151,41.6089,23.3594\H,0,41.6621,41.0368
 ,22.4291\H,0,42.7373,41.9723,23.4796\C,0,41.3469,40.7289,24.5216\C,0,4
 0.2867,39.8366,24.4162\H,0,39.76,39.7446,23.4761\C,0,39.8913,39.0687,2
 5.4912\H,0,39.0628,38.3817,25.4126\C,0,40.5592,39.1729,26.7101\O,0,40.
 1316,38.4135,27.7426\H,0,40.6744,38.5898,28.5369\C,0,41.6369,40.0465,2
 6.8163\H,0,42.1756,40.1174,27.7498\C,0,42.0132,40.8205,25.7348\H,0,42.
 8403,41.5079,25.8404\H,0,41.0118,43.4368,22.4225\H,0,42.4888,46.4882,2
 4.2695\C,0,43.019,47.115,23.555\H,0,43.0177,48.139,23.9145\H,0,42.518,
 47.0576,22.5924\C,0,44.4708,46.6378,23.4471\O,0,45.3838,47.2152,24.011
 4\N,0,44.6789,45.532,22.6953\H,0,43.8854,45.0744,22.2734\C,0,45.983,44
 .912,22.455\H,0,46.7013,45.4547,23.0691\C,0,45.9822,43.4229,22.7834\H,
 0,45.2763,42.9146,22.1192\H,0,46.9789,43.0337,22.564\C,0,45.6227,43.08
 54,24.2352\H,0,44.6153,43.4641,24.4438\C,0,45.6283,41.5682,24.4114\H,0
 ,45.3342,41.3015,25.4222\H,0,44.9424,41.0857,23.7176\H,0,46.6271,41.17
 46,24.2331\C,0,46.5883,43.7267,25.2266\H,0,47.6101,43.4161,25.0182\H,0
 ,46.5343,44.8101,25.1818\H,0,46.3381,43.4196,26.2393\H,0,46.2487,45.05
 35,21.4008\H,0,51.5365,46.0486,23.6852\C,0,51.26,46.169,24.731\H,0,51.
 6594,47.1169,25.0853\C,0,49.7402,46.134,24.8967\H,0,49.3814,45.1561,24
 .5532\C,0,49.3606,46.2977,26.3654\H,0,49.7753,45.4889,26.9626\H,0,49.7
 416,47.2372,26.7589\H,0,48.2797,46.2906,26.4831\C,0,49.074,47.2132,24.
 0458\H,0,49.4253,48.1999,24.3377\H,0,49.3026,47.0673,22.9912\H,0,47.99
 36,47.1981,24.171\H,0,51.7247,45.37,25.3048\H,0,49.329,43.2604,37.4279
 \C,0,50.213,42.685,37.162\H,0,50.8119,42.5305,38.0574\C,0,49.8058,41.3
 454,36.5459\H,0,50.7049,40.7802,36.2876\H,0,49.2413,40.7686,37.2821\C,
 0,48.9667,41.5593,35.3165\C,0,49.5642,41.7188,34.0729\H,0,50.6411,41.6
 593,33.9876\C,0,48.7959,41.9461,32.9449\H,0,49.2768,42.0605,31.9832\C,
 0,47.4173,42.0224,33.0469\H,0,46.816,42.2021,32.1679\C,0,46.8099,41.86
 8,34.2819\H,0,45.7364,41.9282,34.3725\C,0,47.5835,41.6388,35.4064\H,0,
 47.1045,41.5183,36.3681\H,0,50.7947,43.2666,36.45\H,0,50.8071,45.7387,
 32.2051\C,0,50.84,46.417,31.354\H,0,51.6359,46.0977,30.6849\C,0,49.497
 8,46.4206,30.627\H,0,49.5735,47.1032,29.7742\C,0,49.1666,45.0261,30.10
 39\H,0,49.0474,44.332,30.9337\H,0,49.9599,44.6599,29.4555\H,0,48.2391,
 45.0429,29.5358\C,0,48.3886,46.9059,31.5553\H,0,48.2541,46.2122,32.383
 1\H,0,47.4466,46.9839,31.0171\H,0,48.6307,47.8834,31.9659\H,0,51.0839,
 47.4127,31.7175\H,0,52.8812,50.0407,26.9293\C,0,52.401,50.618,26.143\H
 ,0,52.9023,50.4083,25.2008\C,0,50.9256,50.2518,26.0537\H,0,50.8348,49.
 1929,25.8079\H,0,50.4457,50.826,25.2567\C,0,50.1803,50.5203,27.3504\H,
 0,50.2951,51.562,27.6564\H,0,49.1196,50.287,27.2422\S,0,50.836,49.4834
 ,28.7095\C,0,49.8588,50.1762,30.0671\H,0,50.0406,51.2455,30.1385\H,0,4
 8.8035,49.979,29.8977\H,0,50.1885,49.6818,30.974\H,0,52.5204,51.676,26
 .3695\H,0,50.2891,51.3928,33.4741\C,0,49.755,50.767,34.187\H,0,49.794,
 51.2548,35.1576\C,0,48.3154,50.5533,33.733\H,0,48.3241,50.1332,32.7247
 \H,0,47.8026,51.5163,33.6775\C,0,47.52,49.6159,34.6488\H,0,48.126,48.7
 229,34.8426\C,0,47.2052,50.2862,35.9834\H,0,48.1138,50.602,36.4909\H,0
 ,46.5763,51.1601,35.825\H,0,46.6794,49.5965,36.6392\C,0,46.2298,49.183
 7,33.9554\H,0,46.4499,48.5934,33.0691\H,0,45.6447,50.0491,33.6531\H,0,
 45.6135,48.5821,34.6184\H,0,50.2748,49.8135,34.2619\H,0,47.2971,46.640
 2,37.4867\C,0,46.253,46.438,37.253\H,0,45.8383,47.3086,36.7507\C,0,46.
 1234,45.2104,36.354\H,0,46.5256,44.34,36.8862\C,0,44.6552,44.9504,36.0
 315\H,0,44.5425,44.0436,35.4428\H,0,44.0777,44.8359,36.9475\H,0,44.244
 3,45.789,35.4714\C,0,46.9239,45.4048,35.0698\H,0,46.8474,44.5239,34.43
 73\H,0,47.9762,45.5742,35.2936\H,0,46.5443,46.2619,34.5186\H,0,45.7144
 ,46.2913,38.1874\H,0,42.8668,42.1369,37.4576\C,0,42.317,41.201,37.522\
 H,0,41.2803,41.3927,37.2528\C,0,42.9317,40.1764,36.57\H,0,43.9635,39.9
 715,36.8649\H,0,42.3629,39.2466,36.5778\C,0,42.9513,40.7267,35.1571\O,
 0,43.5699,41.7115,34.8338\O,0,42.2238,40.0087,34.3278\H,0,42.1766,40.3
 974,33.3935\H,0,42.3524,40.837,38.5463\H,0,35.6845,38.5863,34.4046\C,0
 ,36.5,39.053,34.953\H,0,36.5571,38.6013,35.9416\C,0,37.8182,38.8775,34
 .211\H,0,38.0574,37.8141,34.1208\H,0,37.7278,39.279,33.1997\C,0,38.968
 7,39.5653,34.9301\H,0,39.065,39.1883,35.9486\H,0,39.912,39.4173,34.404
 5\S,0,38.7295,41.3627,35.1269\C,0,38.8351,41.8942,33.3973\H,0,37.9238,
 41.6252,32.8696\H,0,39.6984,41.4242,32.938\H,0,38.9567,42.9721,33.4001
 \H,0,36.2782,40.1104,35.0759\H,0,39.0338,44.115,35.8122\C,0,39.963,44.
 652,35.992\H,0,40.3034,44.4002,36.9962\C,0,41.0057,44.2769,34.9543\H,0
 ,41.9688,44.7152,35.2002\H,0,40.7034,44.636,33.9742\H,0,41.1281,43.198
 1,34.9167\H,0,39.7488,45.7181,35.9555\H,0,41.5856,49.5997,37.9905\C,0,
 42.518,50.112,37.763\H,0,43.051,50.2967,38.6944\C,0,43.3684,49.2675,36
 .8124\H,0,44.3068,49.7932,36.6227\H,0,43.5989,48.3148,37.2959\C,0,42.6
 817,49.0033,35.5103\C,0,41.9184,47.9126,35.1912\H,0,41.6777,47.0667,35
 .8053\N,0,41.459,47.9982,33.9131\H,0,40.8751,47.3126,33.4305\C,0,41.92
 49,49.1497,33.3649\C,0,41.7555,49.6653,32.0849\H,0,41.1761,49.126,31.3
 507\C,0,42.3513,50.873,31.7967\H,0,42.2412,51.3054,30.8115\C,0,43.0955
 ,51.5636,32.7599\H,0,43.5395,52.5141,32.494\C,0,43.2718,51.0586,34.028
 1\H,0,43.8449,51.605,34.7655\C,0,42.6941,49.8291,34.3478\H,0,42.2771,5
 1.0684,37.3036\C,0,41.9018,41.9066,31.3424\O,0,41.8308,40.7573,31.8447
 \C,0,42.5044,43.0095,31.9853\C,0,42.6677,44.2115,31.3632\C,0,42.4274,4
 4.3993,29.9117\C,0,42.2012,43.0688,29.1926\C,0,41.2632,42.1966,30.0144
 \C,0,42.9778,45.4312,32.1333\C,0,43.9876,46.3663,31.4735\C,0,43.6627,4
 6.5882,29.9981\C,0,43.5723,45.2245,29.2916\C,0,44.7463,47.4148,29.3148
 \C,0,44.4804,47.6229,27.8179\C,0,44.4658,46.2538,27.1493\C,0,43.3941,4
 5.3634,27.7765\C,0,45.0477,48.8272,29.8199\C,0,45.7935,49.486,28.6418\
 C,0,45.6893,48.5127,27.4481\C,0,43.1919,48.3895,27.5178\O,0,45.5787,49
 .2249,26.2429\H,0,42.8036,42.8941,33.0174\H,0,41.4948,45.0052,29.8489\
 H,0,43.1577,42.5506,29.0584\H,0,41.7583,43.2343,28.2109\H,0,40.3403,42
 .7545,30.2023\H,0,41.0041,41.274,29.4934\H,0,43.289,45.1867,33.1484\H,
 0,41.9972,45.9417,32.1948\H,0,44.9881,45.9303,31.5631\H,0,43.9912,47.3
 216,32.0012\H,0,42.6962,47.0915,29.9292\H,0,44.516,44.6884,29.47\H,0,4
 5.6799,46.8375,29.3871\H,0,45.444,45.7829,27.2858\H,0,44.291,46.347,26
 .0775\H,0,42.4015,45.7643,27.571\H,0,43.4569,44.3772,27.3116\H,0,45.65
 6,48.8179,30.7235\H,0,44.1241,49.3537,30.0562\H,0,46.8385,49.6764,28.8
 859\H,0,45.3457,50.4357,28.3526\H,0,46.5921,47.8781,27.4145\H,0,43.229
 5,49.3876,27.9408\H,0,43.078,48.4901,26.4403\H,0,42.3193,47.8817,27.91
 4\H,0,45.5281,48.587,25.5131\\Version=ES64L-G16RevC.01\State=1-A\HF=-5
 343.0887471\RMSD=3.841e-09\Dipole=3.9746759,-2.0288531,-3.0742918\Quad
 rupole=-25.51931,-20.6100051,46.1293151,-9.8333371,26.4944742,-15.1031
 888\PG=C01 [X(C96H171N2O9S2)]\\@
 The archive entry for this job was punched.


 THE REAL VOYAGE OF DISCOVERY CONSISTS NOT IN SEEKING NEW LANDSCAPES 
 BUT IN HAVING NEW EYES.
                                                    -- MARCEL PROUST
 Job cpu time:       0 days  3 hours 43 minutes 39.7 seconds.
 Elapsed time:       0 days  0 hours  7 minutes 25.6 seconds.
 File lengths (MBytes):  RWF=   2117 Int=      0 D2E=      0 Chk=    228 Scr=      1
 Normal termination of Gaussian 16 at Thu Jul 11 11:58:49 2024.
