 Entering Gaussian System, Link 0=g16
 Input=cutoff8_wat_ef.com
 Output=cutoff8_wat_ef.log
 Initial command:
 /usr/local/packages/license/gaussian/g16-c01/g16/l1.exe "/work/arkanil/gauss_scratch/Gau-1323736.inp" -scrdir="/work/arkanil/gauss_scratch/"
 Entering Link 1 = /usr/local/packages/license/gaussian/g16-c01/g16/l1.exe PID=   1323740.
  
 Copyright (c) 1988-2019, Gaussian, Inc.  All Rights Reserved.
  
 This is part of the Gaussian(R) 16 program.  It is based on
 the Gaussian(R) 09 system (copyright 2009, Gaussian, Inc.),
 the Gaussian(R) 03 system (copyright 2003, Gaussian, Inc.),
 the Gaussian(R) 98 system (copyright 1998, Gaussian, Inc.),
 the Gaussian(R) 94 system (copyright 1995, Gaussian, Inc.),
 the Gaussian 92(TM) system (copyright 1992, Gaussian, Inc.),
 the Gaussian 90(TM) system (copyright 1990, Gaussian, Inc.),
 the Gaussian 88(TM) system (copyright 1988, Gaussian, Inc.),
 the Gaussian 86(TM) system (copyright 1986, Carnegie Mellon
 University), and the Gaussian 82(TM) system (copyright 1983,
 Carnegie Mellon University). Gaussian is a federally registered
 trademark of Gaussian, Inc.
  
 This software contains proprietary and confidential information,
 including trade secrets, belonging to Gaussian, Inc.
  
 This software is provided under written license and may be
 used, copied, transmitted, or stored only in accord with that
 written license.
  
 The following legend is applicable only to US Government
 contracts under FAR:
  
                    RESTRICTED RIGHTS LEGEND
  
 Use, reproduction and disclosure by the US Government is
 subject to restrictions as set forth in subparagraphs (a)
 and (c) of the Commercial Computer Software - Restricted
 Rights clause in FAR 52.227-19.
  
 Gaussian, Inc.
 340 Quinnipiac St., Bldg. 40, Wallingford CT 06492
  
  
 ---------------------------------------------------------------
 Warning -- This program may not be used in any manner that
 competes with the business of Gaussian, Inc. or will provide
 assistance to any competitor of Gaussian, Inc.  The licensee
 of this program is prohibited from giving any competitor of
 Gaussian, Inc. access to this program.  By using this program,
 the user acknowledges that Gaussian, Inc. is engaged in the
 business of creating and licensing software in the field of
 computational chemistry and represents and warrants to the
 licensee that it is not a competitor of Gaussian, Inc. and that
 it will not use this program in any manner prohibited above.
 ---------------------------------------------------------------
  

 Cite this work as:
 Gaussian 16, Revision C.01,
 M. J. Frisch, G. W. Trucks, H. B. Schlegel, G. E. Scuseria, 
 M. A. Robb, J. R. Cheeseman, G. Scalmani, V. Barone, 
 G. A. Petersson, H. Nakatsuji, X. Li, M. Caricato, A. V. Marenich, 
 J. Bloino, B. G. Janesko, R. Gomperts, B. Mennucci, H. P. Hratchian, 
 J. V. Ortiz, A. F. Izmaylov, J. L. Sonnenberg, D. Williams-Young, 
 F. Ding, F. Lipparini, F. Egidi, J. Goings, B. Peng, A. Petrone, 
 T. Henderson, D. Ranasinghe, V. G. Zakrzewski, J. Gao, N. Rega, 
 G. Zheng, W. Liang, M. Hada, M. Ehara, K. Toyota, R. Fukuda, 
 J. Hasegawa, M. Ishida, T. Nakajima, Y. Honda, O. Kitao, H. Nakai, 
 T. Vreven, K. Throssell, J. A. Montgomery, Jr., J. E. Peralta, 
 F. Ogliaro, M. J. Bearpark, J. J. Heyd, E. N. Brothers, K. N. Kudin, 
 V. N. Staroverov, T. A. Keith, R. Kobayashi, J. Normand, 
 K. Raghavachari, A. P. Rendell, J. C. Burant, S. S. Iyengar, 
 J. Tomasi, M. Cossi, J. M. Millam, M. Klene, C. Adamo, R. Cammi, 
 J. W. Ochterski, R. L. Martin, K. Morokuma, O. Farkas, 
 J. B. Foresman, and D. J. Fox, Gaussian, Inc., Wallingford CT, 2019.
 
 ******************************************
 Gaussian 16:  ES64L-G16RevC.01  3-Jul-2019
                19-May-2026 
 ******************************************
 %chk=19NT_md_min_distance_cutoff6.chk
 %nprocshared=64
 Will use up to   64 processors via shared memory.
 %mem=200GB
 --------------------------
 # wb97xd/6-31g(d) prop=efg
 --------------------------
 1/38=1,172=1/1;
 2/12=2,17=6,18=5,40=1/2;
 3/5=1,6=6,7=1,11=2,25=1,30=1,74=-58/1,2,3;
 4//1;
 5/5=2,38=5/2;
 6/7=2,8=2,9=2,10=2,14=1,28=1/1,2;
 99/5=1,9=1/99;
 ----------------------------
 19NT_md_min_distance_cutoff6
 ----------------------------
 Symbolic Z-matrix:
 Charge = -2 Multiplicity = 1
 H                     46.9637   33.75492   30.95915 
 C                     46.354    34.588    30.601 
 H                     45.88845   34.29939   29.65975 
 C                     45.27948   34.9325   31.63946 
 H                     44.62658   34.06296   31.75901 
 H                     45.74048   35.13678   32.60787 
 C                     44.46791   36.12479   31.21431 
 C                     43.72169   36.09143   30.04221 
 H                     43.69645   35.19041   29.44633 
 C                     43.0018   37.19249   29.62719 
 H                     42.42343   37.16492   28.71572 
 C                     43.01367   38.35568   30.39099 
 O                     42.31927   39.43283   29.9432 
 H                     42.37803   40.19577   30.60196 
 C                     43.73698   38.39279   31.57503 
 H                     43.72653   39.28379   32.1828 
 C                     44.45601   37.28364   31.97704 
 H                     44.9997   37.32466   32.90906 
 C                     47.27846   35.77738   30.28978 
 O                     47.29088   36.30607   29.18728 
 N                     48.09283   36.17591   31.2831 
 H                     48.04423   35.70148   32.1712 
 C                     49.06     37.273    31.205 
 H                     48.70645   37.97036   30.44545 
 C                     49.21955   37.96068   32.56228 
 H                     49.52594   37.19566   33.28803 
 C                     50.33477   39.00009   32.48353 
 H                     50.48277   39.45934   33.45727 
 H                     50.07928   39.77962   31.77509 
 H                     51.27195   38.54976   32.16443 
 C                     47.91108   38.58461   33.07407 
 H                     47.23228   37.79275   33.39598 
 H                     48.14368   39.18175   33.95756 
 C                     47.18624   39.46659   32.06496 
 H                     46.36663   39.97734   32.5624 
 H                     46.77346   38.87525   31.2515 
 H                     47.85054   40.223    31.65714 
 H                     50.02859   36.87206   30.88204 
 H                     49.19982   35.35328   26.94941 
 C                     48.681    35.487    25.999 
 H                     49.25559   35.03142   25.19531 
 C                     47.27967   34.88168   26.09178 
 H                     46.81814   34.89798   25.10154 
 H                     46.68061   35.50274   26.76097 
 C                     47.2676   33.45076   26.63864 
 H                     47.72324   33.46695   27.63515 
 C                     45.82455   32.9668   26.77336 
 H                     45.78673   31.99305   27.25715 
 H                     45.36349   32.87734   25.79156 
 H                     45.23789   33.6687   27.36133 
 C                     48.05816   32.49035   25.75397 
 H                     47.96854   31.47204   26.12727 
 H                     47.6785   32.51614   24.73434 
 H                     49.11225   32.75264   25.73644 
 C                     48.57047   36.99455   25.68622 
 O                     48.75804   37.43085   24.56551 
 N                     48.26199   37.79693   26.7335 
 H                     48.0177   37.36447   27.61719 
 C                     48.063    39.251    26.62 
 H                     47.38612   39.4599   25.78443 
 C                     47.47841   39.78691   27.93583 
 H                     48.13889   39.4633   28.74835 
 C                     47.41734   41.31117   27.93879 
 H                     48.39622   41.74766   27.76866 
 H                     46.75336   41.65684   27.15346 
 H                     47.04309   41.66421   28.89644 
 C                     46.08099   39.21336   28.17604 
 H                     45.65582   39.64663   29.07848 
 H                     46.10565   38.13536   28.30717 
 H                     45.4262   39.44611   27.33882 
 C                     49.40276   39.94718   26.26218 
 O                     49.42235   40.94133   25.55489 
 N                     50.5086   39.42327   26.81996 
 H                     50.43243   38.53424   27.2908 
 C                     51.864    39.888    26.503 
 H                     51.8452   40.98094   26.56566 
 C                     52.92609   39.31692   27.4252 
 H                     52.75394   39.57767   28.46899 
 H                     52.99369   38.23486   27.31055 
 C                     54.23321   39.96838   26.93818 
 O                     54.51955   41.10065   27.34859 
 O                     54.86853   39.33435   26.05453 
 H                     52.09163   39.60979   25.46545 
 H                     48.90552   38.99939   22.75737 
 C                     48.927    39.653    21.895 
 H                     49.35107   40.60799   22.17469 
 H                     49.53101   39.2035   21.1171 
 H                     47.91893   39.80188   21.52789 
 H                     43.3904   34.23404   24.88495 
 C                     42.526    34.831    25.164 
 H                     42.48272   34.88453   26.24912 
 C                     42.62711   36.23488   24.57111 
 H                     42.715    36.1371   23.47994 
 C                     41.36358   37.03133   24.8977 
 H                     41.22792   37.09041   25.97462 
 H                     40.48427   36.54603   24.47568 
 H                     41.41997   38.04953   24.51806 
 C                     43.88759   36.93276   25.09338 
 H                     43.74491   37.19248   26.1437 
 H                     44.721    36.2307   25.0394 
 C                     44.26101   38.18209   24.30652 
 H                     45.20837   38.57347   24.66533 
 H                     44.3779   37.94965   23.24923 
 H                     43.50528   38.95612   24.41366 
 H                     41.63007   34.32404   24.81069 
 H                     37.76428   33.20695   27.91859 
 C                     36.813    32.932    28.368 
 H                     36.97204   32.76787   29.42945 
 C                     35.77685   34.03573   28.15115 
 H                     35.59235   34.15269   27.07975 
 H                     34.83693   33.75374   28.62872 
 C                     36.28521   35.32538   28.72782 
 C                     37.31926   35.99981   28.09348 
 H                     37.7027   35.62663   27.15323 
 C                     37.87039   37.13736   28.64512 
 H                     38.68182   37.64365   28.14658 
 C                     37.39279   37.63118   29.85465 
 O                     37.90999   38.74492   30.42321 
 H                     38.59436   39.11594   29.84033 
 C                     36.35104   36.96618   30.49472 
 H                     35.98295   37.34803   31.43372 
 C                     35.80773   35.82846   29.93036 
 H                     34.99391   35.32621   30.43382 
 H                     36.47717   31.99721   27.92118 
 H                     33.37924   40.93593   31.91304 
 C                     34.276    41.437    31.542 
 H                     35.13203   41.0416   32.08726 
 C                     34.41453   41.22623   30.03407 
 H                     33.68691   41.88393   29.54666 
 C                     35.81138   41.62593   29.56569 
 H                     35.88566   41.56472   28.48084 
 H                     36.02825   42.64793   29.864 
 H                     36.55818   40.9647   30.00057 
 C                     34.11689   39.77918   29.65046 
 H                     33.1116   39.49603   29.95506 
 H                     34.19747   39.64457   28.57279 
 H                     34.82464   39.10612   30.1286 
 C                     34.10736   42.93558   31.87356 
 O                     33.71205   43.74197   31.04578 
 N                     34.39421   43.27835   33.14283 
 H                     34.75287   42.57751   33.78633 
 C                     34.188    44.613    33.699 
 H                     33.50769   45.14672   33.02739 
 C                     33.62707   44.52561   35.11913 
 H                     34.33979   43.97918   35.73984 
 H                     33.53874   45.53875   35.51814 
 C                     32.28487   43.81941   35.18328 
 H                     32.34214   42.84433   34.69487 
 H                     31.48932   44.40233   34.72005 
 C                     31.84562   43.50453   36.67702 
 O                     32.77835   43.30112   37.46417 
 O                     30.63359   43.47605   36.85986 
 C                     35.56984   45.31918   33.72973 
 O                     36.37852   45.06067   34.61101 
 N                     35.82871   46.17723   32.73008 
 H                     35.15008   46.30219   31.99287 
 C                     37.164    46.712    32.465 
 H                     37.70378   46.67953   33.41306 
 C                     37.85037   45.79183   31.44379 
 H                     37.21542   45.69105   30.56258 
 H                     37.96854   44.80146   31.89442 
 C                     39.25511   46.25031   30.9814 
 O                     39.96946   46.87619   31.77992 
 O                     39.58679   45.90618   29.82655 
 C                     37.12398   48.13764   31.91197 
 O                     36.7492   48.3426   30.76221 
 N                     37.59123   49.12742   32.68723 
 C                     37.50068   50.50243   32.21373 
 H                     38.38283   50.73629   31.60903 
 H                     36.60926   50.61278   31.59366 
 C                     37.4703   51.33855   33.48618 
 H                     37.84681   52.34703   33.33076 
 H                     36.45191   51.38688   33.87126 
 C                     38.34506   50.52305   34.43299 
 H                     38.17737   50.75846   35.48194 
 H                     39.39902   50.68351   34.2093 
 C                     37.95     49.082    34.098 
 H                     38.76226   48.38023   34.29436 
 C                     36.68716   48.69702   34.92362 
 O                     35.5688   48.95651   34.51789 
 N                     36.94102   48.12417   36.10899 
 H                     37.89014   47.84774   36.33394 
 C                     35.909    47.832    37.091 
 H                     34.96223   47.72774   36.55421 
 C                     36.2064   46.57473   37.90844 
 H                     37.23293   46.62153   38.28138 
 H                     36.1081   45.69583   37.27192 
 C                     35.24417   46.52241   39.06204 
 C                     34.15295   45.66614   39.06095 
 H                     34.00362   44.97243   38.24839 
 C                     33.23165   45.69754   40.09394 
 H                     32.38047   45.03504   40.06248 
 C                     33.3879   46.58566   41.14288 
 H                     32.66309   46.61773   41.94523 
 C                     34.47701   47.44298   41.15452 
 H                     34.60219   48.14927   41.96546 
 C                     35.39672   47.4096   40.12239 
 H                     36.24295   48.08189   40.13722 
 H                     35.81726   48.69192   37.76861 
 H                     36.94357   44.17749   22.05049 
 C                     37.317    44.529    23.018 
 H                     37.15771   45.60647   23.06562 
 C                     36.53642   43.85601   24.15585 
 H                     36.86836   42.82791   24.3182 
 H                     35.48574   43.81509   23.85949 
 C                     36.64836   44.65249   25.42927 
 C                     35.9021   45.81695   25.56504 
 H                     35.23264   46.1135   24.77 
 C                     36.00112   46.58975   26.70732 
 H                     35.40794   47.48599   26.8054 
 C                     36.85901   46.21129   27.7261 
 H                     36.94186   46.81314   28.61843 
 C                     37.60158   45.04865   27.60397 
 H                     38.27132   44.77     28.40401 
 C                     37.49419   44.2703   26.46079 
 H                     38.0549   43.34589   26.38025 
 C                     38.82703   44.31456   22.97851 
 O                     39.55892   45.19875   22.55131 
 N                     39.32842   43.0932   23.26467 
 H                     38.76525   42.44535   23.7959 
 C                     40.763    42.802    23.272 
 H                     41.24824   43.32386   24.1067 
 C                     40.98463   41.28766   23.38022 
 H                     40.34132   40.78741   22.65554 
 H                     42.02462   41.08066   23.12119 
 C                     40.70843   40.804    24.77426 
 C                     39.44239   40.38789   25.16725 
 H                     38.63549   40.35058   24.4458 
 C                     39.19485   39.98925   26.4669 
 H                     38.2067   39.68288   26.77265 
 C                     40.23251   39.97353   27.39673 
 O                     39.98057   39.54692   28.65176 
 H                     40.82151   39.50459   29.16749 
 C                     41.50666   40.37529   27.00498 
 H                     42.31164   40.34346   27.72147 
 C                     41.73086   40.80424   25.715 
 H                     42.71575   41.13958   25.42682 
 C                     41.4661   43.271    21.98359 
 O                     42.63438   43.61929   22.019 
 N                     40.80029   43.1651   20.81371 
 H                     39.81419   42.95741   20.82652 
 C                     41.395    43.524    19.526 
 H                     42.46807   43.31122   19.61723 
 C                     40.80598   42.67845   18.40593 
 H                     39.72461   42.82472   18.36258 
 H                     41.22545   43.05106   17.47167 
 C                     41.13882   41.18693   18.59256 
 H                     41.54243   40.77973   17.66364 
 H                     41.90893   41.08615   19.36088 
 C                     39.93728   40.33298   19.00908 
 H                     39.41507   40.78212   19.85385 
 H                     39.23785   40.23614   18.17368 
 N                     40.3442   38.97779   19.41673 
 H                     41.10485   38.64516   18.83673 
 C                     40.54006   38.69792   20.75238 
 N                     39.48437   38.94446   21.62737 
 H                     38.5826   38.78337   21.19836 
 H                     39.57616   38.46817   22.51596 
 N                     41.80199   38.48916   21.28811 
 H                     42.49695   38.15774   20.63588 
 H                     41.82786   38.00284   22.17449 
 C                     41.3594   45.05783   19.22735 
 O                     41.91149   45.47595   18.22963 
 N                     40.73114   45.82046   20.13536 
 H                     40.34913   45.39443   20.97681 
 C                     40.928    47.267    20.313 
 H                     41.22341   47.68509   19.34642 
 C                     39.64362   47.89801   20.83539 
 H                     39.82264   48.94464   21.08014 
 H                     39.33811   47.36652   21.73506 
 C                     38.57248   47.7757   19.75057 
 H                     38.86324   48.35355   18.87154 
 H                     38.50883   46.72901   19.43753 
 C                     37.14796   48.19036   20.08548 
 O                     36.40469   48.62555   19.22888 
 N                     36.72271   47.97435   21.34563 
 H                     37.31528   47.72249   22.12138 
 H                     35.77128   48.22723   21.55904 
 C                     42.17369   47.2979   21.23517 
 O                     43.30158   47.35979   20.731 
 N                     41.98847   47.08857   22.52648 
 H                     41.05624   47.04843   22.94341 
 C                     43.019    47.115    23.555 
 H                     42.69979   46.4274   24.34282 
 H                     43.06407   48.12693   23.97221 
 C                     44.44642   46.71657   23.1548 
 O                     45.38041   47.49334   23.3718 
 N                     44.65849   45.48156   22.69294 
 H                     43.87234   44.86824   22.50107 
 C                     45.983    44.912    22.455 
 H                     46.69791   45.44083   23.09275 
 C                     45.99556   43.41555   22.74854 
 H                     45.36512   42.91206   22.0123 
 H                     47.01896   43.05822   22.62543 
 C                     45.49323   43.05912   24.15143 
 H                     44.43181   43.32125   24.21811 
 C                     45.64182   41.55287   24.35026 
 H                     45.21455   41.24978   25.30369 
 H                     45.136    41.00766   23.55639 
 H                     46.69433   41.27882   24.3392 
 C                     46.25544   43.80713   25.23957 
 H                     47.31668   43.58221   25.17628 
 H                     46.10895   44.88066   25.16175 
 H                     45.89802   43.50138   26.21915 
 C                     46.45879   45.12891   20.98993 
 O                     47.55878   44.71664   20.63212 
 N                     45.64455   45.75868   20.13201 
 H                     44.77432   46.1663   20.46222 
 C                     45.882    45.789    18.692 
 H                     46.03645   44.76761   18.3299 
 H                     44.9908   46.18899   18.20965 
 C                     47.10954   46.57994   18.17203 
 O                     47.44932   46.42426   17.01243 
 N                     47.77803   47.39905   19.00941 
 H                     47.42141   47.61379   19.94386 
 C                     48.878    48.229    18.53 
 H                     49.0716   49.0156   19.26641 
 H                     48.6107   48.68539   17.57144 
 C                     50.17581   47.45463   18.29021 
 O                     51.10247   48.03503   17.70563 
 N                     50.29726   46.20395   18.73969 
 H                     49.50185   45.7899   19.21063 
 C                     51.51     45.384    18.615 
 H                     51.30266   44.40864   19.04792 
 H                     51.80148   45.28689   17.56799 
 C                     52.68217   46.05961   19.38678 
 O                     53.77316   46.23342   18.83657 
 N                     52.38902   46.45643   20.62028 
 H                     51.47827   46.15573   20.96031 
 C                     53.245    47.177    21.576 
 H                     54.28884   46.9492   21.36093 
 C                     52.9698   48.69284   21.55388 
 H                     51.97531   48.86532   21.9694 
 H                     53.69847   49.16362   22.21457 
 C                     53.01704   49.32722   20.1679 
 H                     52.67277   50.35768   20.24925 
 H                     52.30899   48.80142   19.53221 
 C                     54.40801   49.30827   19.53623 
 H                     54.87991   48.33923   19.70107 
 H                     55.03384   50.06614   20.00682 
 C                     54.34925   49.56628   18.03666 
 H                     55.35588   49.7165   17.6439 
 H                     53.73615   50.44447   17.82354 
 N                     53.74051   48.39688   17.35647 
 H                     52.69533   48.40625   17.44785 
 H                     54.00653   47.49806   17.8491 
 H                     53.97553   48.36258   16.36693 
 C                     52.92924   46.75885   23.04506 
 O                     53.81921   46.84364   23.86981 
 N                     51.6508   46.47262   23.35233 
 H                     50.99136   46.12632   22.66231 
 C                     51.26     46.169    24.731 
 H                     51.53426   47.03082   25.34994 
 C                     49.76569   45.88141   24.8745 
 H                     49.51418   44.9901   24.29157 
 C                     49.45788   45.62247   26.34912 
 H                     49.96923   44.73285   26.70647 
 H                     49.77752   46.46628   26.95612 
 H                     48.39091   45.48097   26.49406 
 C                     48.94571   47.06754   24.36727 
 H                     49.21089   47.96691   24.91612 
 H                     49.10838   47.25043   23.30871 
 H                     47.88582   46.88073   24.51943 
 C                     52.14859   44.9857   25.20508 
 O                     52.34058   44.00717   24.46852 
 N                     52.71742   45.10097   26.3961 
 H                     52.57349   45.95892   26.93001 
 C                     53.485    44.06     27.077 
 H                     53.46596   43.14571   26.48734 
 C                     54.92128   44.5107   27.37782 
 H                     55.50493   43.60884   27.56916 
 H                     54.91538   45.10616   28.29361 
 C                     55.55996   45.36257   26.27893 
 H                     56.56514   45.63818   26.60701 
 H                     54.98786   46.27938   26.13649 
 C                     55.64087   44.67512   24.91535 
 H                     54.64744   44.55985   24.49539 
 H                     56.20766   45.31418   24.23237 
 N                     56.29209   43.38588   24.99321 
 H                     57.21286   43.40521   25.4068 
 C                     55.72359   42.17743   24.88191 
 N                     54.48684   42.03062   24.40248 
 H                     53.80969   42.79044   24.37229 
 H                     54.11414   41.09541   24.44426 
 N                     56.44174   41.08604   25.09982 
 H                     57.34705   41.20719   25.52458 
 H                     55.86059   40.21999   25.46446 
 C                     52.76082   43.83896   28.43625 
 O                     52.12442   44.7665   28.92034 
 N                     52.87831   42.64214   29.01305 
 H                     53.44891   41.91373   28.56227 
 C                     52.152    42.334    30.246 
 H                     52.03429   43.2695   30.8032 
 C                     50.77254   41.76442   29.90873 
 H                     50.1609   41.71959   30.80597 
 H                     50.86637   40.76966   29.47889 
 H                     50.28357   42.41554   29.18758 
 C                     52.94152   41.31616   31.10191 
 O                     53.36863   40.28134   30.62107 
 N                     53.08018   41.63168   32.40617 
 H                     52.6876   42.50724   32.74463 
 C                     53.824    40.797    33.354 
 H                     54.45861   40.14131   32.75118 
 C                     54.65841   41.64564   34.30159 
 H                     54.89526   42.60719   33.84992 
 H                     55.57801   41.13088   34.57938 
 S                     53.71289   41.94939   35.84942 
 H                     54.40005   43.01559   36.2543 
 H                     53.12795   40.17098   33.9248 
 H                     45.44241   38.80794   40.55749 
 C                     46.435    38.561    40.187 
 H                     46.94521   37.95747   40.93413 
 C                     46.32514   37.80334   38.86865 
 H                     45.7844   36.86976   39.0392 
 H                     47.31914   37.55203   38.49055 
 C                     45.57867   38.63796   37.84042 
 H                     46.17294   39.49771   37.52896 
 H                     44.62166   38.96663   38.2501 
 S                     45.2095   37.72537   36.30534 
 C                     43.80491   36.73469   36.89065 
 H                     44.16282   35.91258   37.50459 
 H                     43.14541   37.37788   37.46679 
 H                     43.29701   36.34076   36.01658 
 H                     46.99345   39.48505   40.05171 
 H                     49.43508   42.71772   37.92468 
 C                     50.213    42.685    37.162 
 H                     51.16197   42.40665   37.6267 
 C                     49.8521   41.6592   36.08115 
 H                     50.65424   41.59415   35.34269 
 H                     49.76394   40.67909   36.56106 
 C                     48.55688   41.99536   35.39464 
 C                     48.53126   42.36458   34.05724 
 H                     49.4576   42.43295   33.50287 
 C                     47.33102   42.65494   33.42966 
 H                     47.32459   42.93242   32.3858 
 C                     46.14426   42.59519   34.13681 
 H                     45.20545   42.83131   33.65886 
 C                     46.16242   42.24247   35.47563 
 H                     45.23562   42.22135   36.02737 
 C                     47.35826   41.93825   36.09674 
 H                     47.37272   41.67423   37.1437 
 C                     50.3419   44.11383   36.63038 
 O                     49.71733   45.04532   37.09959 
 N                     51.22285   44.27422   35.62917 
 H                     51.7389   43.4807   35.27761 
 C                     51.54     45.542    34.998 
 H                     50.80812   46.2844   35.31936 
 C                     52.95119   45.9845   35.38887 
 H                     52.91309   46.35722   36.41123 
 H                     53.61863   45.11836   35.34993 
 C                     53.48219   47.06692   34.45935 
 H                     53.67514   46.64227   33.47224 
 H                     52.73449   47.85263   34.3484 
 C                     54.76965   47.68298   34.99625 
 H                     55.32046   48.13469   34.16638 
 H                     55.40223   46.90297   35.43883 
 N                     54.45414   48.66938   36.00432 
 H                     53.61325   48.48073   36.61623 
 C                     55.05862   49.82982   36.15176 
 N                     56.13429   50.16708   35.40364 
 H                     56.24579   49.76199   34.46475 
 H                     56.44345   51.12258   35.4729 
 N                     54.6479   50.62656   37.13642 
 H                     53.73806   50.43676   37.66476 
 H                     55.0379   51.54892   37.21296 
 C                     51.4476   45.32967   33.47607 
 O                     51.88604   44.30039   32.95858 
 N                     50.86351   46.31859   32.80094 
 H                     50.55563   47.1461   33.31029 
 C                     50.84     46.417    31.354 
 H                     51.37127   45.54479   30.95922 
 C                     49.4198   46.40641   30.76285 
 H                     49.53057   46.51983   29.67869 
 C                     48.76462   45.06056   31.05688 
 H                     48.65684   44.92881   32.13079 
 H                     49.37176   44.25077   30.66237 
 H                     47.78009   45.01292   30.59598 
 C                     48.56468   47.54429   31.30178 
 H                     48.53765   47.52174   32.38801 
 H                     47.54631   47.4548   30.93048 
 H                     48.9633   48.49752   30.96947 
 C                     51.63727   47.68107   30.95574 
 O                     51.58974   48.69608   31.63602 
 N                     52.40351   47.57478   29.86199 
 H                     52.38492   46.71079   29.33005 
 C                     53.236    48.657    29.347 
 H                     53.02613   49.54578   29.94562 
 C                     54.73477   48.33316   29.43278 
 H                     55.28171   49.19496   29.04021 
 H                     54.94033   47.46688   28.79693 
 C                     55.21746   48.08025   30.86061 
 H                     56.01554   47.33401   30.86725 
 H                     54.40914   47.70203   31.48843 
 C                     55.79965   49.35168   31.58285 
 O                     55.82191   50.41678   30.96795 
 O                     56.19486   49.14043   32.75392 
 C                     52.84223   48.90744   27.87661 
 O                     52.53316   47.96811   27.1473 
 N                     52.85634   50.18462   27.46445 
 H                     53.16401   50.90698   28.10809 
 C                     52.401    50.618    26.143 
 H                     52.97322   50.05708   25.38721 
 C                     50.91532   50.28236   25.96848 
 H                     50.81942   49.20235   26.09265 
 H                     50.58419   50.52346   24.95721 
 C                     50.02246   50.97367   26.99675 
 H                     50.47668   51.8847   27.37854 
 H                     49.06233   51.22453   26.55078 
 S                     49.70365   49.88716   28.44564 
 C                     50.0798   51.02634   29.7974 
 H                     51.08828   51.40403   29.6695 
 H                     49.35381   51.83511   29.81188 
 H                     50.03196   50.45756   30.71907 
 C                     52.76563   52.117    25.92474 
 O                     53.79077   52.57666   26.38351 
 N                     51.93045   52.84059   25.13747 
 H                     51.03366   52.4603   24.87178 
 C                     52.113    54.245    24.763 
 H                     52.99847   54.60866   25.2891 
 C                     52.28613   54.36967   23.23672 
 H                     51.36244   54.01461   22.76736 
 C                     52.51325   55.8259   22.83972 
 H                     53.40328   56.21879   23.32722 
 H                     52.65313   55.90008   21.76391 
 H                     51.66138   56.44202   23.11471 
 C                     53.44807   53.49886   22.76468 
 H                     54.37063   53.8037   23.25297 
 H                     53.26683   52.45399   23.00138 
 H                     53.57404   53.59443   21.68862 
 C                     50.83741   55.01226   25.19624 
 O                     49.74163   54.49756   25.03245 
 N                     50.98357   56.25787   25.67612 
 H                     51.9113   56.59488   25.87883 
 C                     49.863    57.09     26.119 
 H                     48.96981   56.49041   25.94033 
 C                     49.93575   57.49555   27.59643 
 H                     50.4874   56.72855   28.13991 
 H                     50.45172   58.44957   27.7137 
 C                     48.55337   57.566    28.15184 
 C                     47.81956   58.64914   28.5345 
 H                     48.10247   59.6842   28.56834 
 N                     46.56615   58.25432   28.91961 
 H                     45.83787   58.86167   29.25191 
 C                     46.46346   56.90064   28.78482 
 C                     45.39935   56.0381   29.01992 
 H                     44.45008   56.40516   29.37598 
 C                     45.59889   54.69632   28.77812 
 H                     44.78674   54.00572   28.93258 
 C                     46.83322   54.21408   28.32571 
 H                     46.9603   53.14973   28.19164 
 C                     47.89217   55.0597   28.08265 
 H                     48.84133   54.68231   27.73622 
 C                     47.70605   56.42562   28.30433 
 H                     49.81848   57.97881   25.48206 
 H                     54.36023   54.28182   28.87796 
 C                     53.834    54.416    29.825 
 H                     54.48242   54.92754   30.53688 
 C                     52.55623   55.21873   29.60956 
 H                     51.94443   55.23453   30.51427 
 H                     52.77772   56.24325   29.30665 
 S                     51.56328   54.47947   28.26673 
 H                     52.02755   53.24607   28.47553 
 C                     53.43091   53.03519   30.34859 
 O                     53.0356   52.17277   29.56267 
 N                     53.42447   52.87211   31.66569 
 H                     53.6719   53.64426   32.26597 
 C                     53.015    51.669    32.365 
 H                     52.95718   50.85173   31.64641 
 C                     54.01838   51.35705   33.46402 
 H                     54.02962   52.16238   34.19847 
 H                     55.00466   51.23703   33.02542 
 H                     53.72912   50.43385   33.95529 
 C                     51.64473   51.90344   33.05888 
 O                     51.26734   53.03949   33.30361 
 N                     51.00053   50.78894   33.42514 
 H                     51.28647   49.89769   33.03182 
 C                     49.755    50.767    34.187 
 H                     49.74314   51.66142   34.81669 
 C                     48.54422   50.75486   33.24272 
 H                     48.57961   49.82233   32.68048 
 H                     48.65367   51.58603   32.54243 
 C                     47.18313   50.86592   33.94174 
 H                     47.17961   50.21799   34.82356 
 C                     46.9107   52.30114   34.37433 
 H                     47.69002   52.65535   35.03818 
 H                     46.8775   52.94693   33.49937 
 H                     45.95901   52.38328   34.89091 
 C                     46.08832   50.39856   32.98438 
 H                     46.23832   49.35977   32.70367 
 H                     46.10349   51.00697   32.08254 
 H                     45.10848   50.49285   33.44497 
 C                     49.73644   49.505    35.06098 
 O                     49.9153   48.39511   34.56692 
 N                     49.47782   49.70054   36.35501 
 H                     49.38468   50.64965   36.70261 
 C                     49.451    48.628    37.347 
 H                     49.94065   47.75689   36.89485 
 C                     50.27614   49.04848   38.55508 
 H                     49.93121   49.99794   38.96554 
 H                     50.22356   48.2743   39.32235 
 C                     51.7576   49.193    38.09635 
 O                     52.25146   48.23865   37.46637 
 O                     52.35215   50.25141   38.37849 
 C                     47.95015   48.25683   37.59111 
 O                     47.13548   49.13348   37.85878 
 N                     47.61247   46.96949   37.40097 
 H                     48.34223   46.27192   37.26624 
 C                     46.253    46.438    37.253 
 H                     45.54529   47.20706   37.57306 
 C                     46.01026   46.03187   35.78096 
 H                     46.68845   45.199    35.56069 
 C                     44.56828   45.57322   35.58062 
 H                     44.39764   45.35081   34.53038 
 H                     44.3461   44.67427   36.14745 
 H                     43.87982   46.35718   35.88635 
 C                     46.32523   47.18579   34.83353 
 H                     46.15587   46.86745   33.80721 
 H                     47.36235   47.49743   34.92533 
 H                     45.68239   48.03734   35.04288 
 C                     46.0893   45.14589   38.09068 
 O                     46.97272   44.3134   38.15674 
 N                     44.8795   44.94772   38.67449 
 H                     44.17608   45.67998   38.66513 
 C                     44.549    43.701    39.371 
 H                     45.41572   43.04611   39.2313 
 C                     44.29494   43.92216   40.8735 
 H                     43.44179   44.60115   40.96883 
 C                     43.94091   42.58692   41.52633 
 H                     43.71359   42.72507   42.57959 
 H                     43.06777   42.14351   41.05238 
 H                     44.77228   41.88894   41.44042 
 C                     45.51684   44.57272   41.52731 
 H                     45.84672   45.40322   40.90153 
 H                     46.3328   43.84775   41.56752 
 C                     45.22878   45.10362   42.92646 
 H                     44.40137   45.80914   42.90017 
 H                     46.1039   45.61705   43.31787 
 H                     44.97364   44.2995   43.61263 
 C                     43.29145   43.10075   38.72599 
 O                     42.21707   43.67332   38.7971 
 N                     43.44135   41.92482   38.08681 
 H                     44.32278   41.43628   38.14157 
 C                     42.317    41.201    37.522 
 H                     41.52042   41.93052   37.3456 
 C                     42.65811   40.45723   36.2348 
 H                     43.67073   40.04667   36.27308 
 H                     41.9702   39.61901   36.1064 
 C                     42.55684   41.309    34.98548 
 O                     42.70643   42.50077   34.93996 
 O                     42.30401   40.54346   33.93959 
 H                     42.26077   41.06593   33.08898 
 C                     41.80372   40.12833   38.5252 
 O                     42.55859   39.27096   38.96988 
 N                     40.50293   40.20081   38.81567 
 H                     39.93494   40.91923   38.359 
 C                     39.76     39.18     39.55 
 H                     40.47461   38.58396   40.12597 
 C                     38.7124   39.84646   40.45732 
 H                     38.06716   40.45265   39.8167 
 C                     37.83228   38.82241   41.16575 
 H                     37.0346   39.35059   41.68126 
 H                     38.40626   38.24414   41.88884 
 H                     37.36966   38.14152   40.45497 
 C                     39.3985   40.75881   41.46854 
 H                     39.99568   41.51435   40.96522 
 H                     40.04875   40.18247   42.12514 
 H                     38.64856   41.26032   42.07337 
 C                     39.05816   38.32156   38.47811 
 O                     38.59328   38.83133   37.47441 
 N                     38.98002   36.99106   38.69148 
 H                     39.43181   36.59439   39.49954 
 C                     38.331    36.071    37.764 
 H                     37.63765   36.66125   37.16192 
 C                     39.33601   35.36016   36.85594 
 H                     38.81694   34.56569   36.31669 
 H                     40.12121   34.89778   37.45864 
 C                     39.95773   36.32187   35.85728 
 H                     40.55037   37.08558   36.36163 
 H                     39.18569   36.8034   35.25758 
 S                     41.0587   35.42507   34.70531 
 C                     41.35435   36.76591   33.52355 
 H                     41.81477   37.61194   34.02605 
 H                     42.02407   36.37905   32.76307 
 H                     40.40965   37.05912   33.0741 
 H                     37.76815   35.33898   38.34775 
 H                     36.70177   31.62495   31.95157 
 C                     36.768    32.394    32.719 
 H                     37.3026   31.97996   33.57206 
 C                     37.49153   33.63237   32.18832 
 H                     36.93107   34.02089   31.3319 
 C                     37.53297   34.72109   33.25539 
 H                     36.53665   34.91105   33.64882 
 H                     37.91149   35.64778   32.83349 
 H                     38.1817   34.42029   34.07465 
 C                     38.90347   33.26782   31.71515 
 H                     38.84733   32.36714   31.0972 
 H                     39.52445   33.03491   32.58331 
 C                     39.56741   34.37544   30.90522 
 H                     38.94221   34.66338   30.06293 
 H                     39.73953   35.25443   31.51729 
 H                     40.53064   34.04027   30.52612 
 H                     35.75912   32.64809   33.03665 
 H                     35.54341   38.60666   34.68253 
 C                     36.5      39.053    34.953 
 H                     36.93011   38.52826   35.8049 
 C                     37.45873   38.98716   33.75992 
 H                     37.60878   37.93748   33.48663 
 H                     37.00346   39.48211   32.89989 
 C                     38.81805   39.61685   34.04868 
 H                     39.11792   39.43185   35.07964 
 H                     39.58234   39.22813   33.37577 
 S                     38.85412   41.43039   33.848 
 C                     39.05879   41.52167   32.04449 
 H                     38.30309   40.90983   31.56437 
 H                     40.05617   41.18736   31.77179 
 H                     38.92891   42.56095   31.76086 
 C                     36.24117   40.52366   35.32925 
 O                     35.38547   41.16362   34.73859 
 N                     37.00574   41.02702   36.31086 
 H                     37.68557   40.42751   36.76416 
 C                     36.95     42.397    36.82 
 H                     36.31665   42.97345   36.14324 
 C                     36.41396   42.41687   38.25597 
 H                     37.21314   42.10107   38.92989 
 H                     36.13524   43.43815   38.51906 
 C                     35.21073   41.48911   38.42951 
 H                     34.42614   41.76974   37.72925 
 H                     35.51231   40.45576   38.24818 
 C                     34.69622   41.60217   39.85492 
 O                     35.25644   41.07038   40.80156 
 N                     33.58455   42.33583   39.96087 
 H                     33.16259   42.75952   39.13237 
 H                     33.20886   42.53266   40.87333 
 C                     38.39802   42.93415   36.81367 
 O                     39.2734   42.328    37.42995 
 N                     38.63291   44.05673   36.136 
 H                     37.88487   44.49284   35.60139 
 C                     39.963    44.652    35.992 
 H                     40.68309   43.93628   36.39827 
 C                     40.26349   44.93386   34.53122 
 H                     41.30849   45.20822   34.42271 
 H                     39.64199   45.74292   34.15924 
 H                     40.0723   44.03925   33.94492 
 C                     39.98938   45.94727   36.83723 
 O                     39.47443   46.98473   36.43926 
 N                     40.57274   45.84824   38.03706 
 H                     41.07907   45.0044   38.28698 
 C                     40.667    46.954    38.984 
 H                     39.74259   47.53892   38.91131 
 C                     40.85338   46.40755   40.40153 
 H                     41.25873   47.2013   41.03201 
 H                     41.57651   45.59298   40.35686 
 C                     39.54171   45.92643   40.95384 
 C                     39.05852   44.65424   40.66593 
 H                     39.65213   43.98316   40.06358 
 C                     37.82561   44.24431   41.13374 
 H                     37.43554   43.26235   40.92398 
 C                     37.04338   45.1082   41.89296 
 O                     35.83262   44.67173   42.32998 
 H                     35.3147   45.4195   42.65317 
 C                     37.5258   46.37466   42.19833 
 H                     36.92984   47.04679   42.80079 
 C                     38.76133   46.77525   41.72632 
 H                     39.1228   47.76649   41.96283 
 C                     41.86479   47.86079   38.57967 
 O                     43.01111   47.44705   38.69123 
 N                     41.55394   49.08612   38.13298 
 H                     40.5938   49.36833   37.96389 
 C                     42.518    50.112    37.763 
 H                     43.20097   50.26388   38.60957 
 C                     43.37603   49.68942   36.54453 
 H                     44.14573   50.44396   36.37629 
 H                     43.87527   48.7586   36.81927 
 C                     42.58203   49.48278   35.29604 
 C                     41.93578   48.33172   34.93421 
 H                     41.86203   47.41075   35.47764 
 N                     41.32437   48.48003   33.72738 
 H                     40.79078   47.78889   33.21422 
 C                     41.56104   49.73921   33.27659 
 C                     41.13363   50.35049   32.10403 
 H                     40.54272   49.79607   31.39159 
 C                     41.47879   51.66932   31.91151 
 H                     41.11317   52.19115   31.0396 
 C                     42.27179   52.35086   32.84253 
 H                     42.53188   53.38304   32.65582 
 C                     42.72151   51.7424   33.9935 
 H                     43.33939   52.2883   34.6883 
 C                     42.3533   50.41789   34.23967 
 C                     41.77283   51.43637   37.4882 
 O                     40.55592   51.48281   37.51156 
 N                     42.58435   52.47811   37.25575 
 H                     43.58965   52.34636   37.2073 
 C                     42.195    53.859    37.015 
 H                     41.3743   53.894    36.29338 
 C                     41.75586   54.54213   38.3322 
 H                     41.12511   53.83407   38.88863 
 H                     41.16356   55.4296   38.09658 
 O                     42.82548   54.999    39.11632 
 H                     43.44493   54.27936   39.32676 
 C                     43.45144   54.60257   36.4662 
 O                     44.46809   53.95613   36.21883 
 N                     43.34824   55.9183   36.32976 
 H                     42.45102   56.41069   36.5175 
 C                     44.451    56.821    35.991 
 H                     45.05559   56.35319   35.20611 
 C                     43.90223   58.16525   35.53219 
 H                     44.74417   58.77184   35.18517 
 H                     43.23628   58.00594   34.68109 
 C                     43.15728   58.91897   36.63509 
 H                     43.31432   59.99406   36.54775 
 H                     43.48766   58.5909   37.62194 
 C                     41.58273   58.69444   36.60442 
 O                     41.21657   57.51185   36.55116 
 O                     40.92519   59.72776   36.64565 
 H                     45.08361   56.95316   36.87776 
 H                     47.50002   54.69464   38.82056 
 C                     47.86     53.724    38.486 
 H                     48.45692   53.2553   39.26773 
 C                     46.69261   52.80499   38.07589 
 H                     46.08155   53.33221   37.3383 
 H                     47.10363   51.90545   37.61603 
 C                     45.77703   52.39328   39.21095 
 O                     45.01526   53.15929   39.78141 
 N                     45.84304   51.08827   39.52174 
 H                     46.38179   50.42444   38.97699 
 H                     45.23485   50.72982   40.24063 
 C                     48.71718   53.81509   37.20399 
 O                     49.38143   52.85979   36.83627 
 N                     48.63192   54.95726   36.4877 
 H                     48.01491   55.67941   36.82744 
 C                     49.23     55.22     35.169 
 H                     49.60401   54.27496   34.77551 
 C                     48.18821   55.85618   34.25426 
 H                     47.82709   56.77158   34.73459 
 H                     47.33994   55.17886   34.15067 
 C                     48.7302   56.21594   32.86567 
 H                     49.69012   56.73089   32.99344 
 C                     48.95163   54.97714   32.00284 
 H                     48.01455   54.44064   31.87222 
 H                     49.30706   55.26628   31.01501 
 H                     49.6801   54.31141   32.45648 
 C                     47.76189   57.16682   32.16178 
 H                     46.79753   56.68357   32.02237 
 H                     47.61294   58.07483   32.7432 
 H                     48.14898   57.44251   31.18367 
 H                     50.08094   55.89866   35.29944 
 O                     41.31968   46.7091   28.05752 
 H                     41.05137   47.58901   27.76791 
 H                     40.69524   46.4462   28.7995 
 O                     45.26163   50.10551   24.33653 
 H                     45.45735   49.19172   24.08184 
 H                     45.63504   50.26521   25.22605 
 O                     40.64774   45.08947   26.11811 
 H                     40.99906   45.65433   26.86702 
 H                     39.81278   44.75757   26.46056 
 O                     43.59346   52.20492   26.17033 
 H                     44.4938   52.25972   25.81491 
 H                     43.09659   51.61483   25.58066 
 O                     42.57891   50.18703   24.51068 
 H                     43.55286   50.1419   24.42634 
 H                     42.28067   50.72417   23.74558 
 O                     40.87551   49.23376   26.44886 
 H                     41.47817   49.50538   25.73071 
 H                     40.89397   50.02004   27.02973 
 O                     41.11465   51.67413   27.51517 
 H                     42.0462   51.94536   27.53187 
 H                     40.67249   52.29667   28.11687 
 O                     46.89467   48.5953   21.34918 
 H                     46.45207   48.21544   22.12446 
 H                     46.19947   49.02337   20.82435 
 O                     49.02793   50.37988   20.84264 
 H                     48.33687   49.80371   21.20408 
 H                     48.75453   51.27141   21.09606 
 O                     38.11456   49.02443   26.58746 
 H                     37.87441   48.80957   27.49224 
 H                     39.08782   49.09393   26.55833 
 O                     40.16799   47.19841   24.5908 
 H                     40.42256   47.89958   25.20791 
 H                     40.3001   46.35583   25.08739 
 O                     39.76684   52.79959   25.39361 
 H                     40.33835   52.3239   26.02499 
 H                     38.86382   52.4481   25.542 
 O                     44.90805   49.07141   19.44495 
 H                     44.89454   48.86922   18.50922 
 H                     44.27883   48.46364   19.87772 
 O                     43.07756   54.79522   25.61075 
 H                     43.85905   55.35292   25.77033 
 H                     43.25127   53.92209   26.0181 
 O                     42.03244   51.7393   22.44603 
 H                     42.3782   51.60762   21.54654 
 H                     41.10322   52.06489   22.39217 
 O                     37.70659   47.95426   24.04597 
 H                     38.61767   47.59948   24.16766 
 H                     37.46203   48.22917   24.94326 
 O                     40.30747   53.91779   28.86534 
 H                     40.38788   54.45224   28.02508 
 H                     39.56876   54.28508   29.34995 
 O                     50.0926   44.93741   21.52454 
 H                     49.15883   44.88853   21.25254 
 H                     50.19999   44.1496   22.08526 
 O                     43.61472   51.42524   20.25888 
 H                     44.28746   51.71027   20.90507 
 H                     43.9875   50.62392   19.87031 
 O                     45.35317   51.92202   22.32317 
 H                     44.81248   52.66305   22.67294 
 H                     45.36426   51.25872   23.03675 
 O                     50.12572   42.8218   23.36571 
 H                     49.78732   42.17592   24.00053 
 H                     50.95866   43.14071   23.75343 
 O                     43.64947   53.84202   23.13248 
 H                     42.93543   53.22043   22.89906 
 H                     43.3831   54.23485   23.99062 
 O                     37.76418   50.40156   22.94167 
 H                     37.80178   49.50064   23.33851 
 H                     37.13006   50.36875   22.2248 
 O                     37.42043   51.4948   25.51842 
 H                     37.42045   51.24954   24.58187 
 H                     37.57868   50.66766   26.00284 
 O                     48.60199   52.07382   24.41055 
 H                     48.38176   52.20316   23.46352 
 H                     48.96536   52.93239   24.68815 
 O                     46.28734   54.77564   23.41138 
 H                     45.40877   54.73915   23.01058 
 H                     46.27576   54.04962   24.07064 
 O                     45.4675   56.17819   25.64758 
 H                     45.84861   55.8412   24.81351 
 H                     46.09371   55.98053   26.34686 
 O                     51.50098   50.81552   17.60518 
 H                     50.92735   51.30372   18.19956 
 H                     51.12986   49.92186   17.5603 
 O                     39.55531   52.55451   22.68647 
 H                     38.94101   51.80839   22.70723 
 H                     39.67174   52.80638   23.62323 
 O                     40.51587   55.14422   26.55788 
 H                     41.44232   55.18517   26.25909 
 H                     40.12274   54.43298   26.01684 
 O                     46.19656   52.8517   25.32452 
 H                     46.36559   53.19161   26.20784 
 H                     47.01271   52.37546   25.05473 
 O                     47.81375   52.80564   21.93703 
 H                     46.90961   52.40858   21.9678 
 H                     47.65572   53.71952   22.21343 
 O                     42.92955   53.08694   29.19215 
 H                     42.08514   53.56152   29.20111 
 H                     42.99273   52.61943   30.02774 
 C                     42.8067   42.5674   30.99899 
 O                     42.40511   41.49474   31.50637 
 C                     42.80789   43.79352   31.69732 
 C                     43.15302   44.97982   31.11641 
 C                     43.73243   45.01585   29.735 
 C                     44.30841   43.65278   29.35401 
 C                     43.25993   42.57623   29.56622 
 C                     42.86207   46.24318   31.80763 
 C                     43.72953   47.44147   31.43383 
 C                     44.03118   47.4627   29.93946 
 C                     44.75939   46.15365   29.59463 
 C                     44.88685   48.66062   29.56765 
 C                     45.37934   48.62387   28.11531 
 C                     46.24152   47.38499   27.91824 
 C                     45.4044   46.13843   28.2029 
 C                     44.2644   50.0523   29.67695 
 C                     45.20603   50.93308   28.83256 
 C                     46.14241   49.96037   28.09041 
 C                     44.24299   48.64789   27.0882 
 O                     46.48106   50.42588   26.78767 
 H                     42.43856   43.77589   32.71326 
 H                     42.9026   45.2436   29.05141 
 H                     45.18433   43.4407   29.97321 
 H                     44.6171   43.64833   28.30959 
 H                     42.38441   42.7869   28.94267 
 H                     43.64549   41.59162   29.29295 
 H                     42.86141   46.0962   32.8884 
 H                     41.8055   46.48601   31.55316 
 H                     44.66949   47.39829   31.99044 
 H                     43.22152   48.35833   31.7272 
 H                     43.08516   47.49875   29.39754 
 H                     45.55537   46.00222   30.33353 
 H                     45.77669   48.64529   30.20693 
 H                     47.09985   47.41965   28.59102 
 H                     46.62541   47.33694   26.89577 
 H                     44.62217   46.04862   27.44834 
 H                     46.05775   45.26805   28.12129 
 H                     44.20517   50.39147   30.70819 
 H                     43.25663   50.0439   29.26627 
 H                     45.7824   51.60233   29.4668 
 H                     44.65489   51.53982   28.11889 
 H                     47.06991   49.84014   28.66008 
 H                     43.86221   49.6547   26.97028 
 H                     44.6095   48.29417   26.12786 
 H                     43.42629   48.00425   27.38952 
 H                     47.29392   49.97741   26.53302 
 
 Stoichiometry    C295H536N56O98S6(2-)
 Framework group  C1[X(C295H536N56O98S6)]
 Deg. of freedom  2967
 Full point group                 C1      NOp   1
 Largest Abelian subgroup         C1      NOp   1
 Largest concise Abelian subgroup C1      NOp   1
                         Standard orientation:                         
 ---------------------------------------------------------------------
 Center     Atomic      Atomic             Coordinates (Angstroms)
 Number     Number       Type             X           Y           Z
 ---------------------------------------------------------------------
      1          1           0       -4.100520   -7.527647    8.742235
      2          6           0       -3.921058   -7.309378    7.686691
      3          1           0       -3.759272   -8.248466    7.159516
      4          6           0       -5.127187   -6.570541    7.094207
      5          1           0       -5.998646   -7.228522    7.159700
      6          1           0       -5.344798   -5.672931    7.676464
      7          6           0       -4.885146   -6.186202    5.660807
      8          6           0       -4.653978   -7.159949    4.696359
      9          1           0       -4.680635   -8.204889    4.970110
     10          6           0       -4.397092   -6.814479    3.385835
     11          1           0       -4.216761   -7.572456    2.638176
     12          6           0       -4.372798   -5.473348    3.015266
     13          8           0       -4.088901   -5.162012    1.724747
     14          1           0       -4.138357   -4.164259    1.577977
     15          6           0       -4.624836   -4.493354    3.965313
     16          1           0       -4.633215   -3.454399    3.675693
     17          6           0       -4.877580   -4.853576    5.274969
     18          1           0       -5.087729   -4.078977    5.997313
     19          6           0       -2.616097   -6.504206    7.564729
     20          8           0       -1.693378   -6.885251    6.858637
     21          7           0       -2.535600   -5.383053    8.303139
     22          1           0       -3.324763   -5.117831    8.871510
     23          6           0       -1.387803   -4.474611    8.352418
     24          1           0       -0.847335   -4.575357    7.411155
     25          6           0       -1.840410   -3.031631    8.583788
     26          1           0       -2.419334   -3.010862    9.516666
     27          6           0       -0.619898   -2.134693    8.773878
     28          1           0       -0.937172   -1.116741    8.983843
     29          1           0       -0.012339   -2.123326    7.876331
     30          1           0        0.001301   -2.482805    9.595976
     31          6           0       -2.751223   -2.503633    7.463546
     32          1           0       -3.733223   -2.973785    7.541487
     33          1           0       -2.898084   -1.433890    7.622625
     34          6           0       -2.218970   -2.719394    6.052262
     35          1           0       -2.849176   -2.183491    5.348185
     36          1           0       -2.231308   -3.772954    5.784581
     37          1           0       -1.207768   -2.335782    5.951855
     38          1           0       -0.722648   -4.784474    9.167761
     39          1           0        0.550426   -8.705845    7.958952
     40          6           0        0.862633   -9.365485    7.147939
     41          1           0        1.547672  -10.120934    7.526957
     42          6           0       -0.369264  -10.005105    6.506030
     43          1           0       -0.044587  -10.763002    5.789068
     44          1           0       -0.915805   -9.230470    5.964156
     45          6           0       -1.327598  -10.637227    7.520306
     46          1           0       -1.646247   -9.853419    8.216734
     47          6           0       -2.561444  -11.171302    6.794240
     48          1           0       -3.302823  -11.530933    7.504659
     49          1           0       -2.286694  -11.997521    6.141271
     50          1           0       -3.014684  -10.393051    6.184775
     51          6           0       -0.665236  -11.759368    8.315339
     52          1           0       -1.390296  -12.236165    8.972063
     53          1           0       -0.264577  -12.514451    7.641711
     54          1           0        0.146655  -11.377908    8.928149
     55          6           0        1.626889   -8.543784    6.087999
     56          8           0        2.636285   -8.967314    5.555771
     57          7           0        1.110896   -7.325457    5.796098
     58          1           0        0.214343   -7.072692    6.195979
     59          6           0        1.669870   -6.422484    4.776785
     60          1           0        1.838795   -6.982192    3.850413
     61          6           0        0.691978   -5.262202    4.536288
     62          1           0        0.477993   -4.802011    5.507664
     63          6           0        1.298124   -4.202886    3.621114
     64          1           0        2.230353   -3.818573    4.022269
     65          1           0        1.502189   -4.629688    2.644749
     66          1           0        0.604190   -3.374224    3.504615
     67          6           0       -0.616102   -5.777873    3.934262
     68          1           0       -1.274686   -4.940814    3.714048
     69          1           0       -1.140270   -6.439573    4.617861
     70          1           0       -0.421556   -6.317591    3.009755
     71          6           0        3.065968   -5.912709    5.222557
     72          8           0        3.943937   -5.695321    4.403481
     73          7           0        3.217515   -5.678882    6.538172
     74          1           0        2.495169   -5.995558    7.167294
     75          6           0        4.499882   -5.300427    7.143021
     76          1           0        4.912970   -4.494472    6.527723
     77          6           0        4.374735   -4.859009    8.590126
     78          1           0        3.719862   -3.995990    8.706173
     79          1           0        4.030724   -5.683205    9.215358
     80          6           0        5.811315   -4.475512    8.989271
     81          8           0        6.223101   -3.343363    8.704407
     82          8           0        6.510250   -5.398812    9.484728
     83          1           0        5.179724   -6.160395    7.079793
     84          1           0        4.530902   -9.074849    4.089372
     85          6           0        5.362391   -9.202133    3.408370
     86          1           0        5.870695   -8.256462    3.276475
     87          1           0        6.053117   -9.929822    3.815042
     88          1           0        4.996063   -9.549184    2.449984
     89          1           0       -2.433181  -12.058078    3.585782
     90          6           0       -2.919390  -11.620038    2.717941
     91          1           0       -3.603927  -10.848519    3.062029
     92          6           0       -1.885509  -11.020700    1.766885
     93          1           0       -1.186822  -11.818536    1.478396
     94          6           0       -2.577707  -10.489466    0.511436
     95          1           0       -3.315182   -9.738024    0.781861
     96          1           0       -3.095042  -11.293452   -0.010845
     97          1           0       -1.870460  -10.023683   -0.171845
     98          6           0       -1.091241   -9.923234    2.483341
     99          1           0       -1.731366   -9.050622    2.623937
    100          1           0       -0.810812  -10.287158    3.472941
    101          6           0        0.176423   -9.510958    1.746807
    102          1           0        0.737890   -8.802608    2.348794
    103          1           0        0.815639  -10.374328    1.569179
    104          1           0       -0.055878   -9.044738    0.792658
    105          1           0       -3.499793  -12.395505    2.221645
    106          1           0       -8.447740  -11.820563    1.202533
    107          6           0       -9.467995  -11.894938    0.833709
    108          1           0      -10.097925  -11.252138    1.441089
    109          6           0       -9.540828  -11.474819   -0.634980
    110          1           0       -8.941375  -12.162585   -1.237693
    111          1           0      -10.574266  -11.532607   -0.980946
    112          6           0       -9.020964  -10.074378   -0.785546
    113          6           0       -7.661033   -9.829826   -0.654012
    114          1           0       -6.980541  -10.658889   -0.512770
    115          6           0       -7.162193   -8.544731   -0.695750
    116          1           0       -6.104316   -8.369450   -0.579696
    117          6           0       -8.021481   -7.465467   -0.873881
    118          8           0       -7.565539   -6.192233   -0.920439
    119          1           0       -6.595501   -6.194816   -0.851343
    120          6           0       -9.386023   -7.701007   -1.014292
    121          1           0      -10.052006   -6.863662   -1.149744
    122          6           0       -9.871859   -8.993374   -0.971516
    123          1           0      -10.932666   -9.162927   -1.089771
    124          1           0       -9.805423  -12.923286    0.955888
    125          1           0      -10.529716   -4.535693   -4.922603
    126          6           0       -9.498030   -4.259879   -4.693548
    127          1           0       -9.447411   -3.994090   -3.638453
    128          6           0       -8.553474   -5.412126   -5.036500
    129          1           0       -8.444807   -5.428785   -6.126213
    130          6           0       -7.176891   -5.174671   -4.420904
    131          1           0       -6.475512   -5.945236   -4.737871
    132          1           0       -6.787273   -4.210412   -4.735389
    133          1           0       -7.241637   -5.192624   -3.334837
    134          6           0       -9.123229   -6.749018   -4.569823
    135          1           0      -10.091687   -6.938973   -5.027609
    136          1           0       -8.453414   -7.564912   -4.837534
    137          1           0       -9.245617   -6.753422   -3.489300
    138          6           0       -9.178772   -3.015092   -5.549520
    139          8           0       -8.576576   -3.094322   -6.609161
    140          7           0       -9.639667   -1.849029   -5.060932
    141          1           0      -10.105657   -1.829131   -4.157404
    142          6           0       -9.555209   -0.573020   -5.766473
    143          1           0       -9.353045   -0.793320   -6.819727
    144          6           0      -10.847843    0.226030   -5.594188
    145          1           0      -11.002361    0.409009   -4.529071
    146          1           0      -10.724616    1.192347   -6.088665
    147          6           0      -12.066028   -0.492222   -6.145964
    148          1           0      -12.137454   -1.499182   -5.729403
    149          1           0      -12.048719   -0.558298   -7.233447
    150          6           0      -13.421839    0.221758   -5.727208
    151          8           0      -13.390793    0.803028   -4.635357
    152          8           0      -14.341069    0.086091   -6.527118
    153          6           0       -8.370464    0.218013   -5.150223
    154          8           0       -8.502884    0.800390   -4.082162
    155          7           0       -7.210913    0.187392   -5.826275
    156          1           0       -7.140351   -0.364249   -6.669102
    157          6           0       -5.944380    0.646494   -5.256734
    158          1           0       -6.198361    1.379721   -4.489203
    159          6           0       -5.247618   -0.561550   -4.611880
    160          1           0       -5.154345   -1.361434   -5.347644
    161          1           0       -5.873283   -0.924549   -3.790521
    162          6           0       -3.844637   -0.277202   -4.021899
    163          8           0       -3.611019    0.850279   -3.559448
    164          8           0       -3.051368   -1.243016   -4.015398
    165          6           0       -5.018499    1.260329   -6.308324
    166          8           0       -4.457057    0.542880   -7.129582
    167          7           0       -4.777252    2.578114   -6.243043
    168          6           0       -3.955707    3.200817   -7.272780
    169          1           0       -2.900954    3.126364   -6.989055
    170          1           0       -4.103830    2.676807   -8.218709
    171          6           0       -4.416351    4.652151   -7.296691
    172          1           0       -3.644164    5.328153   -7.656816
    173          1           0       -5.302840    4.747234   -7.923471
    174          6           0       -4.783319    4.901709   -5.837330
    175          1           0       -5.449284    5.751355   -5.701601
    176          1           0       -3.885812    5.070619   -5.243562
    177          6           0       -5.444661    3.582934   -5.426983
    178          1           0       -5.334584    3.386320   -4.359262
    179          6           0       -6.950873    3.626902   -5.819425
    180          8           0       -7.318157    3.309115   -6.936030
    181          7           0       -7.770059    4.086587   -4.862699
    182          1           0       -7.407555    4.235153   -3.927628
    183          6           0       -9.183711    4.348550   -5.081194
    184          1           0       -9.511374    3.719959   -5.913596
    185          6           0      -10.035135    4.084913   -3.839032
    186          1           0       -9.577195    4.576913   -2.976901
    187          1           0      -10.074746    3.013173   -3.646481
    188          6           0      -11.408553    4.646451   -4.079512
    189          6           0      -12.485557    3.828129   -4.386706
    190          1           0      -12.369674    2.755707   -4.403207
    191          6           0      -13.721150    4.373991   -4.690340
    192          1           0      -14.539787    3.718544   -4.944513
    193          6           0      -13.897777    5.745947   -4.691452
    194          1           0      -14.860251    6.173498   -4.938408
    195          6           0      -12.828301    6.571799   -4.382443
    196          1           0      -12.953617    7.647137   -4.391371
    197          6           0      -11.595128    6.024818   -4.078516
    198          1           0      -10.765156    6.674775   -3.839781
    199          1           0       -9.302179    5.397340   -5.386222
    200          1           0       -0.649322   -8.302257   -7.867590
    201          6           0       -0.861057   -7.319368   -7.433793
    202          1           0       -0.537029   -6.562473   -8.148423
    203          6           0       -2.369649   -7.167986   -7.192622
    204          1           0       -2.691158   -7.712261   -6.301590
    205          1           0       -2.888786   -7.608253   -8.047074
    206          6           0       -2.754672   -5.715518   -7.089621
    207          6           0       -2.832719   -4.953893   -8.249419
    208          1           0       -2.647045   -5.422902   -9.205330
    209          6           0       -3.154207   -3.610349   -8.191405
    210          1           0       -3.222568   -3.032291   -9.100200
    211          6           0       -3.391464   -3.008271   -6.967342
    212          1           0       -3.639790   -1.958919   -6.916960
    213          6           0       -3.323584   -3.760027   -5.806172
    214          1           0       -3.504597   -3.274980   -4.858427
    215          6           0       -3.009370   -5.109735   -5.867455
    216          1           0       -2.985198   -5.702018   -4.959688
    217          6           0        0.060124   -7.196824   -6.223771
    218          8           0        1.181976   -6.723393   -6.355179
    219          7           0       -0.310181   -7.758291   -5.052180
    220          1           0       -1.286311   -7.961192   -4.893838
    221          6           0        0.499731   -7.672554   -3.835811
    222          1           0        0.516642   -6.638813   -3.467554
    223          6           0       -0.066744   -8.616933   -2.767485
    224          1           0       -0.246701   -9.591629   -3.222286
    225          1           0        0.687544   -8.732793   -1.987005
    226          6           0       -1.325273   -8.057194   -2.170527
    227          6           0       -2.576109   -8.331753   -2.709492
    228          1           0       -2.668289   -9.011941   -3.547235
    229          6           0       -3.720685   -7.771258   -2.175568
    230          1           0       -4.688526   -7.973311   -2.607134
    231          6           0       -3.630509   -6.939832   -1.061045
    232          8           0       -4.761934   -6.430369   -0.531056
    233          1           0       -4.552619   -5.940064    0.300061
    234          6           0       -2.381247   -6.672876   -0.507489
    235          1           0       -2.316603   -6.044970    0.366534
    236          6           0       -1.245100   -7.210126   -1.072161
    237          1           0       -0.278067   -6.976374   -0.652966
    238          6           0        1.965147   -8.085475   -4.073247
    239          8           0        2.855144   -7.584764   -3.406449
    240          7           0        2.216675   -9.092619   -4.936684
    241          1           0        1.475425   -9.425497   -5.532863
    242          6           0        3.563957   -9.603848   -5.190007
    243          1           0        4.118262   -9.477505   -4.250935
    244          6           0        3.520139  -11.080588   -5.555746
    245          1           0        2.902176  -11.222478   -6.444916
    246          1           0        4.537463  -11.375148   -5.812478
    247          6           0        2.987030  -11.933204   -4.389942
    248          1           0        3.659163  -12.774373   -4.210287
    249          1           0        2.967121  -11.325127   -3.482533
    250          6           0        1.577549  -12.486035   -4.622627
    251          1           0        0.898329  -11.696590   -4.944343
    252          1           0        1.601652  -13.264621   -5.390549
    253          7           0        1.012547  -13.077032   -3.397962
    254          1           0        1.731573  -13.556176   -2.869704
    255          6           0        0.185927  -12.320477   -2.594854
    256          7           0       -0.947237  -11.758491   -3.178774
    257          1           0       -1.337069  -12.344259   -3.905481
    258          1           0       -1.645680  -11.466355   -2.506688
    259          7           0        0.587335  -11.849617   -1.353799
    260          1           0        1.309096  -12.390388   -0.901221
    261          1           0       -0.157102  -11.579123   -0.724917
    262          6           0        4.379544   -8.739154   -6.204995
    263          8           0        5.542675   -9.018854   -6.414713
    264          7           0        3.724661   -7.707557   -6.759722
    265          1           0        2.767191   -7.506543   -6.479851
    266          6           0        4.357158   -6.531984   -7.376783
    267          1           0        5.332909   -6.841396   -7.762179
    268          6           0        3.458476   -5.986971   -8.479519
    269          1           0        3.867326   -5.049604   -8.855772
    270          1           0        2.469781   -5.804915   -8.061705
    271          6           0        3.384712   -7.027959   -9.597578
    272          1           0        4.370542   -7.166294  -10.044946
    273          1           0        3.094023   -7.989179   -9.162649
    274          6           0        2.419712   -6.790885  -10.749067
    275          8           0        2.654563   -7.219405  -11.861198
    276          7           0        1.261252   -6.164592  -10.464102
    277          1           0        1.056352   -5.692711   -9.597085
    278          1           0        0.612938   -6.030168  -11.223260
    279          6           0        4.608005   -5.631752   -6.139949
    280          8           0        5.687476   -5.709253   -5.540874
    281          7           0        3.589879   -4.931768   -5.671932
    282          1           0        2.702208   -4.859840   -6.173301
    283          6           0        3.631558   -4.004650   -4.549764
    284          1           0        2.637539   -4.011382   -4.094542
    285          1           0        3.830131   -3.000218   -4.939369
    286          6           0        4.646206   -4.274448   -3.429876
    287          8           0        5.451484   -3.395395   -3.111134
    288          7           0        4.548926   -5.414850   -2.741734
    289          1           0        3.894087   -6.132654   -3.036629
    290          6           0        5.321987   -5.714119   -1.538340
    291          1           0        5.615315   -4.764634   -1.080171
    292          6           0        4.510416   -6.560665   -0.563464
    293          1           0        4.344738   -7.542986   -1.011340
    294          1           0        5.104900   -6.692279    0.341774
    295          6           0        3.152529   -5.950534   -0.200998
    296          1           0        2.528021   -5.931876   -1.100668
    297          6           0        2.485022   -6.841736    0.843319
[...]
 .5424346346\C,0,47.1831278072,50.8659153166,33.9417380126\H,0,47.17961
 2535,50.2179857035,34.8235592478\C,0,46.9107048663,52.3011395111,34.37
 43260735\H,0,47.690021008,52.6553503475,35.0381750675\H,0,46.877499715
 9,52.9469346243,33.4993706692\H,0,45.9590120384,52.3832817896,34.89090
 72893\C,0,46.08832184,50.3985573585,32.9843787387\H,0,46.2383194487,49
 .359771439,32.7036673454\H,0,46.1034854017,51.0069745232,32.0825402592
 \H,0,45.1084803779,50.4928545119,33.4449655417\C,0,49.7364407697,49.50
 49965438,35.060984739\O,0,49.9152977358,48.3951127031,34.5669169521\N,
 0,49.4778243678,49.7005402985,36.3550128472\H,0,49.3846781497,50.64965
 05914,36.7026087415\C,0,49.4509999793,48.6279999384,37.347000056\H,0,4
 9.940652063,47.7568907465,36.894850276\C,0,50.2761447509,49.0484768141
 ,38.5550799945\H,0,49.9312088248,49.9979374007,38.9655432982\H,0,50.22
 35600727,48.2742999073,39.322347621\C,0,51.7575995965,49.1930020254,38
 .0963509672\O,0,52.2514592908,48.2386488187,37.4663690225\O,0,52.35215
 24396,50.2514107155,38.3784942165\C,0,47.9501537263,48.2568301296,37.5
 911091829\O,0,47.1354771813,49.1334755431,37.8587845019\N,0,47.6124720
 613,46.9694941465,37.4009698253\H,0,48.3422317531,46.2719236399,37.266
 2438284\C,0,46.2530000193,46.4380000402,37.2529999924\H,0,45.545289285
 9,47.2070587686,37.5730567801\C,0,46.0102557519,46.0318726488,35.78096
 12105\H,0,46.6884533506,45.1990034611,35.5606866021\C,0,44.5682773477,
 45.5732244737,35.5806244473\H,0,44.3976366094,45.35081495,34.530382341
 1\H,0,44.3460970849,44.6742661104,36.1474490485\H,0,43.8798240763,46.3
 571823687,35.8863521216\C,0,46.3252335782,47.1857904478,34.8335257031\
 H,0,46.1558656272,46.8674494646,33.8072093519\H,0,47.3623460884,47.497
 4312658,34.9253303473\H,0,45.6823855021,48.0373393144,35.042879283\C,0
 ,46.0892996764,45.1458901998,38.0906769173\O,0,46.9727221069,44.313403
 268,38.1567436639\N,0,44.8794964038,44.9477223141,38.6744870141\H,0,44
 .1760832067,45.6799836729,38.6651274771\C,0,44.5489999845,43.70100001,
 39.3709999847\H,0,45.4157241093,43.0461121247,39.2312959204\C,0,44.294
 9379554,43.9221633142,40.8734995584\H,0,43.4417898549,44.6011469136,40
 .9688275654\C,0,43.9409095104,42.5869163455,41.5263310312\H,0,43.71358
 74953,42.7250741898,42.5795915946\H,0,43.0677681073,42.1435086766,41.0
 52375675\H,0,44.7722846104,41.8889415736,41.4404160752\C,0,45.51683641
 05,44.5727167042,41.5273128016\H,0,45.8467161486,45.4032200035,40.9015
 307884\H,0,46.3328016684,43.847752529,41.5675248246\C,0,45.2287795002,
 45.103616345,42.9264627609\H,0,44.4013690354,45.8091371413,42.90016754
 32\H,0,46.1039003298,45.6170544658,43.3178683387\H,0,44.9736367855,44.
 2994982506,43.6126340998\C,0,43.2914470549,43.1007540346,38.7259898139
 \O,0,42.2170721647,43.6733184929,38.7970969151\N,0,43.4413547533,41.92
 48220056,38.0868122397\H,0,44.3227830878,41.4362762058,38.1415692308\C
 ,0,42.3169999807,41.2009999106,37.5219999414\H,0,41.5204190289,41.9305
 215291,37.345601647\C,0,42.6581100326,40.457225978,36.2348049798\H,0,4
 3.6707341488,40.0466740343,36.2730792442\H,0,41.970200515,39.619012149
 7,36.1063988998\C,0,42.5568405709,41.3090025439,34.9854848643\O,0,42.7
 064273204,42.5007734313,34.9399596711\O,0,42.3040124209,40.543462809,3
 3.9395886343\H,0,42.2607742945,41.0659296481,33.0889823174\C,0,41.8037
 181754,40.1283312677,38.5252016851\O,0,42.5585891521,39.2709648296,38.
 9698806004\N,0,40.5029345786,40.2008073717,38.8156733802\H,0,39.934944
 4255,40.9192343352,38.3589985246\C,0,39.7600000107,39.1800000194,39.54
 99999963\H,0,40.4746067914,38.5839641497,40.1259650488\C,0,38.71240046
 03,39.846464786,40.4573188684\H,0,38.0671622931,40.4526482115,39.81670
 27454\C,0,37.8322804365,38.8224111407,41.165747659\H,0,37.034599746,39
 .3505880925,41.6812617348\H,0,38.4062550537,38.244135262,41.888843184\
 H,0,37.36966388,38.1415181631,40.4549665299\C,0,39.3985005524,40.75880
 89369,41.4685374352\H,0,39.9956758735,41.5143471887,40.9652227643\H,0,
 40.0487526854,40.1824709897,42.1251425847\H,0,38.6485627765,41.2603240
 309,42.0733712482\C,0,39.0581591846,38.3215599501,38.4781088858\O,0,38
 .5932793651,38.8313258099,37.4744122576\N,0,38.9800153098,36.991062777
 6,38.6914800907\H,0,39.4318085885,36.5943857295,39.4995384099\C,0,38.3
 30999994,36.0709999794,37.7639999463\H,0,37.6376465865,36.6612457793,3
 7.1619205662\C,0,39.3360059044,35.3601626034,36.8559390357\H,0,38.8169
 359667,34.565688149,36.3166905977\H,0,40.1212099691,34.8977836917,37.4
 586352113\C,0,39.9577256094,36.3218679031,35.8572808067\H,0,40.5503733
 863,37.0855819042,36.3616341884\H,0,39.1856861999,36.8034037625,35.257
 5785767\S,0,41.058698048,35.4250734859,34.7053130144\C,0,41.3543505817
 ,36.7659051285,33.5235549514\H,0,41.8147700096,37.6119417644,34.026045
 4859\H,0,42.0240746334,36.3790450382,32.7630682803\H,0,40.4096528187,3
 7.0591185462,33.0741039613\H,0,37.768145827,35.3389802062,38.347748936
 3\H,0,36.7017680961,31.6249520749,31.9515653029\C,0,36.7679999439,32.3
 939999186,32.7190000561\H,0,37.3025991423,31.9799638983,33.5720568373\
 C,0,37.4915274677,33.6323701804,32.1883233273\H,0,36.9310743627,34.020
 8928624,31.3318968744\C,0,37.532965921,34.7210891893,33.2553909049\H,0
 ,36.5366524003,34.9110541202,33.6488154426\H,0,37.91148789,35.64777631
 9,32.8334931543\H,0,38.1816992049,34.4202877923,34.074647974\C,0,38.90
 34733417,33.2678194535,31.715150506\H,0,38.8473254952,32.3671372182,31
 .0971956681\H,0,39.5244516743,33.0349089077,32.5833122734\C,0,39.56740
 60689,34.3754361499,30.9052163617\H,0,38.9422095339,34.6633790083,30.0
 629263639\H,0,39.7395289979,35.2544285193,31.5172892856\H,0,40.5306437
 139,34.0402663959,30.5261179137\H,0,35.7591220277,32.6480855609,33.036
 6495924\H,0,35.543406622,38.6066647182,34.6825279208\C,0,36.5000000093
 ,39.0529999665,34.9529999681\H,0,36.9301059062,38.5282617657,35.804895
 0918\C,0,37.4587331632,38.9871568273,33.759916695\H,0,37.6087826508,37
 .9374779515,33.4866274815\H,0,37.0034565457,39.4821072205,32.899894492
 \C,0,38.8180513604,39.6168547265,34.0486808338\H,0,39.1179183633,39.43
 18470892,35.07963777\H,0,39.5823384068,39.2281326878,33.3757749472\S,0
 ,38.8541212493,41.4303872589,33.8479974439\C,0,39.0587882989,41.521670
 4378,32.0444939153\H,0,38.3030857307,40.9098281862,31.5643715918\H,0,4
 0.0561670314,41.1873599883,31.7717932281\H,0,38.9289062882,42.56095149
 18,31.7608567696\C,0,36.2411744983,40.5236571852,35.3292528561\O,0,35.
 3854691756,41.1636166271,34.7385936412\N,0,37.0057414794,41.0270180131
 ,36.3108582644\H,0,37.6855695511,40.4275053402,36.7641564479\C,0,36.95
 0000014,42.3969999694,36.8200000129\H,0,36.3166489419,42.9734540669,36
 .1432431563\C,0,36.4139590216,42.4168698366,38.2559686946\H,0,37.21313
 84435,42.1010661202,38.9298865726\H,0,36.1352365619,43.4381484624,38.5
 190646361\C,0,35.2107255243,41.4891104627,38.4295147605\H,0,34.4261437
 743,41.7697421291,37.7292453141\H,0,35.512305265,40.4557567403,38.2481
 772277\C,0,34.6962161464,41.6021721237,39.854916776\O,0,35.2564361857,
 41.0703794578,40.8015566497\N,0,33.5845533516,42.3358263802,39.9608673
 1\H,0,33.1625899835,42.7595244233,39.1323656855\H,0,33.2088615735,42.5
 326558505,40.8733268786\C,0,38.3980194215,42.9341499681,36.8136668894\
 O,0,39.2734001021,42.3279989836,37.4299513674\N,0,38.63290535,44.05673
 3753,36.135999265\H,0,37.8848660102,44.4928393451,35.6013874214\C,0,39
 .9629999834,44.6520000347,35.9919999392\H,0,40.683090612,43.9362750761
 ,36.3982659949\C,0,40.2634858241,44.9338556081,34.5312180001\H,0,41.30
 84855188,45.2082203664,34.4227071042\H,0,39.6419855576,45.7429201144,3
 4.1592445864\H,0,40.0722985202,44.0392548532,33.9449240546\C,0,39.9893
 756189,45.9472652088,36.837232209\O,0,39.4744316384,46.9847288742,36.4
 392609155\N,0,40.5727444063,45.8482361602,38.0370617041\H,0,41.0790704
 373,45.0043958592,38.286976035\C,0,40.6669999632,46.9539999596,38.9840
 000911\H,0,39.7425880935,47.5389170267,38.9113106489\C,0,40.8533766042
 ,46.4075514048,40.4015294255\H,0,41.2587257417,47.2013019464,41.032005
 181\H,0,41.5765122606,45.5929817333,40.3568629182\C,0,39.5417065024,45
 .9264258962,40.9538369395\C,0,39.0585209792,44.6542396345,40.665933222
 1\H,0,39.6521290576,43.9831639953,40.0635779371\C,0,37.8256123066,44.2
 443055548,41.1337392477\H,0,37.4355419453,43.2623504919,40.9239757194\
 C,0,37.0433812642,45.1081984262,41.8929562524\O,0,35.8326178369,44.671
 7271898,42.3299804221\H,0,35.3146993818,45.4195036459,42.6531730632\C,
 0,37.5258048313,46.3746582029,42.1983267223\H,0,36.9298376483,47.04678
 69157,42.8007855452\C,0,38.7613272771,46.7752486676,41.7263221576\H,0,
 39.1227954193,47.7664882192,41.9628274102\C,0,41.8647931343,47.8607870
 559,38.5796702992\O,0,43.0111134405,47.4470515777,38.6912292443\N,0,41
 .5539422236,49.0861202036,38.132977799\H,0,40.5938049466,49.3683312977
 ,37.9638943372\C,0,42.5179999016,50.1119995744,37.7629995396\H,0,43.20
 09687495,50.2638840257,38.6095702836\C,0,43.3760331392,49.689423479,36
 .5445291777\H,0,44.1457292421,50.4439604595,36.3762888963\H,0,43.87527
 16406,48.7585982487,36.8192665851\C,0,42.5820343657,49.482782134,35.29
 60430637\C,0,41.935778183,48.3317169418,34.9342145545\H,0,41.862026966
 3,47.4107521135,35.4776409412\N,0,41.3243683914,48.4800342007,33.72737
 8029\H,0,40.7907796052,47.7888867144,33.2142239904\C,0,41.5610350171,4
 9.73921469,33.2765928438\C,0,41.1336282897,50.3504916585,32.1040347498
 \H,0,40.5427214934,49.7960652213,31.3915885488\C,0,41.4787938404,51.66
 93203028,31.9115079647\H,0,41.1131730851,52.191148808,31.0396041829\C,
 0,42.2717852203,52.3508584601,32.8425349552\H,0,42.5318823747,53.38303
 53506,32.6558181728\C,0,42.721506697,51.7423990526,33.9934955941\H,0,4
 3.3393922322,52.2882991918,34.6883045407\C,0,42.353304751,50.417886171
 7,34.2396744869\C,0,41.7728272508,51.4363707493,37.4882011047\O,0,40.5
 559205215,51.4828060127,37.5115566459\N,0,42.5843479634,52.4781107854,
 37.2557490617\H,0,43.5896498636,52.3463649485,37.2072964296\C,0,42.195
 0000061,53.8589999771,37.0150000601\H,0,41.3742973711,53.8940024826,36
 .2933792205\C,0,41.7558599375,54.5421288155,38.3322041373\H,0,41.12511
 20403,53.8340678248,38.8886284214\H,0,41.163555277,55.4295984774,38.09
 65783396\O,0,42.8254756871,54.998996673,39.1163177971\H,0,43.444927995
 8,54.2793572344,39.3267619225\C,0,43.4514383173,54.6025657728,36.46620
 27035\O,0,44.4680856658,53.9561349113,36.2188339396\N,0,43.3482357165,
 55.9183008318,36.3297570607\H,0,42.4510166475,56.410693722,36.51749982
 68\C,0,44.4510000194,56.8209999944,35.9909999807\H,0,45.055587159,56.3
 531896072,35.2061078235\C,0,43.9022311575,58.165249217,35.5321906904\H
 ,0,44.7441736105,58.7718439625,35.1851671843\H,0,43.2362832796,58.0059
 365772,34.6810859407\C,0,43.1572797441,58.918972515,36.6350872169\H,0,
 43.3143205258,59.9940603751,36.5477548555\H,0,43.4876562589,58.5908962
 424,37.6219381189\C,0,41.5827342846,58.6944424919,36.6044190931\O,0,41
 .2165745734,57.5118457234,36.5511584015\O,0,40.9251858091,59.727761562
 9,36.6456457601\H,0,45.0836119178,56.9531558711,36.8777637935\H,0,47.5
 000223907,54.6946421064,38.8205613966\C,0,47.8600000488,53.7240000901,
 38.4859997937\H,0,48.4569218063,53.2552955878,39.2677300225\C,0,46.692
 6124387,52.8049875943,38.0758949487\H,0,46.0815461483,53.3322122785,37
 .3383008092\H,0,47.1036278105,51.9054508915,37.6160317528\C,0,45.77703
 09008,52.3932805993,39.2109539036\O,0,45.0152629926,53.1592892401,39.7
 814114214\N,0,45.8430427702,51.0882683364,39.5217353863\H,0,46.3817925
 123,50.4244361888,38.9769894259\H,0,45.234851486,50.729822656,40.24062
 82731\C,0,48.7171812628,53.8150916316,37.2039853357\O,0,49.3814273292,
 52.8597880678,36.8362722079\N,0,48.6319172703,54.9572601959,36.4877049
 075\H,0,48.0149131033,55.6794103651,36.8274381885\C,0,49.2299999858,55
 .2199999492,35.169000052\H,0,49.6040050081,54.274956812,34.7755100395\
 C,0,48.1882110377,55.8561832513,34.2542582393\H,0,47.8270904985,56.771
 5803077,34.7345876359\H,0,47.339936812,55.1788581676,34.1506678906\C,0
 ,48.7302033099,56.2159399889,32.8656735856\H,0,49.6901171221,56.730889
 0355,32.9934397601\C,0,48.9516335595,54.9771418039,32.0028350955\H,0,4
 8.0145507473,54.4406435354,31.8722166405\H,0,49.3070586085,55.26628080
 38,31.0150121113\H,0,49.6801023844,54.3114085422,32.4564784562\C,0,47.
 7618860361,57.1668245078,32.1617765762\H,0,46.7975266253,56.6835672706
 ,32.0223678829\H,0,47.612938988,58.0748348923,32.7431965462\H,0,48.148
 982996,57.442507761,31.1836748018\H,0,50.080936305,55.8986613406,35.29
 94372705\O,0,41.3196796726,46.7090959402,28.0575241777\H,0,41.05136785
 07,47.5890143835,27.7679101549\H,0,40.6952430704,46.4461986404,28.7995
 022851\O,0,45.2616259385,50.1055098112,24.3365312706\H,0,45.4573543226
 ,49.1917237065,24.0818423691\H,0,45.6350407008,50.2652084588,25.226045
 4348\O,0,40.6477379172,45.0894746432,26.1181087358\H,0,40.999055952,45
 .6543302078,26.8670204979\H,0,39.8127845859,44.7575669512,26.460564897
 3\O,0,43.5934616769,52.2049153412,26.1703308648\H,0,44.4938048468,52.2
 597207587,25.8149084236\H,0,43.0965886194,51.6148330845,25.5806617958\
 O,0,42.578906977,50.1870291549,24.5106791828\H,0,43.5528561661,50.1419
 01182,24.4263388828\H,0,42.280666766,50.7241671812,23.7455811571\O,0,4
 0.8755148426,49.2337596232,26.4488608774\H,0,41.4781652649,49.50538204
 79,25.7307146877\H,0,40.8939696946,50.0200414231,27.029731865\O,0,41.1
 146477108,51.6741329868,27.5151689609\H,0,42.046200235,51.9453596832,2
 7.5318665812\H,0,40.6724923688,52.2966707163,28.1168661569\O,0,46.8946
 664829,48.5953046911,21.3491808966\H,0,46.4520694138,48.2154351368,22.
 1244571571\H,0,46.1994734807,49.0233683581,20.8243520769\O,0,49.027933
 3365,50.3798807203,20.842641891\H,0,48.3368691929,49.8037077667,21.204
 0766629\H,0,48.754527398,51.2714120862,21.0960584822\O,0,38.1145569661
 ,49.0244269414,26.5874556271\H,0,37.8744080658,48.8095694407,27.492242
 6433\H,0,39.0878235702,49.0939348346,26.5583276831\O,0,40.1679858798,4
 7.1984117008,24.5908017917\H,0,40.4225583379,47.8995764017,25.20791345
 38\H,0,40.3001022916,46.3558346108,25.0873914477\O,0,39.7668404137,52.
 7995923344,25.3936133969\H,0,40.3383465578,52.3238959281,26.0249936793
 \H,0,38.8638165037,52.4481011889,25.542001238\O,0,44.9080537619,49.071
 4138743,19.4449475769\H,0,44.8945449014,48.8692217583,18.5092176397\H,
 0,44.2788304337,48.4636437457,19.8777191045\O,0,43.0775630656,54.79521
 62945,25.6107489522\H,0,43.8590467824,55.3529217423,25.7703269926\H,0,
 43.2512699271,53.9220897215,26.01810167\O,0,42.0324424478,51.739299692
 8,22.4460319878\H,0,42.3782029888,51.6076183278,21.5465415395\H,0,41.1
 032161072,52.0648874621,22.3921659146\O,0,37.7065865845,47.9542642723,
 24.0459654074\H,0,38.6176743614,47.5994792696,24.1676559508\H,0,37.462
 0288582,48.2291684154,24.9432629559\O,0,40.3074711688,53.9177857997,28
 .8653443775\H,0,40.3878761227,54.4522427148,28.0250842188\H,0,39.56876
 22956,54.2850799508,29.3499533257\O,0,50.0925976113,44.9374136927,21.5
 245374281\H,0,49.158834914,44.8885336698,21.2525402449\H,0,50.19998628
 19,44.1495965518,22.085260877\O,0,43.6147162621,51.4252368345,20.25887
 82992\H,0,44.2874631525,51.7102736921,20.905074753\H,0,43.9874983201,5
 0.6239174444,19.870314906\O,0,45.3531664629,51.9220173525,22.3231736\H
 ,0,44.8124826759,52.663046431,22.6729432516\H,0,45.3642599128,51.25872
 04297,23.0367454782\O,0,50.1257249924,42.8218012556,23.3657081548\H,0,
 49.7873225503,42.1759164991,24.0005305402\H,0,50.9586641056,43.1407124
 792,23.7534330522\O,0,43.6494710103,53.8420243313,23.1324813467\H,0,42
 .9354267422,53.2204295395,22.8990643183\H,0,43.3831025398,54.234850674
 8,23.990623234\O,0,37.7641803467,50.4015615497,22.9416698265\H,0,37.80
 17752142,49.5006422565,23.3385102646\H,0,37.130063982,50.3687540225,22
 .2248027962\O,0,37.4204292386,51.4948007757,25.5184198007\H,0,37.42044
 86983,51.2495352272,24.5818662696\H,0,37.5786815884,50.66766308,26.002
 8371598\O,0,48.6019925324,52.0738171828,24.4105493205\H,0,48.381763962
 8,52.2031561237,23.4635173645\H,0,48.9653567291,52.9323930075,24.68815
 16481\O,0,46.2873411219,54.7756445882,23.4113763341\H,0,45.4087746241,
 54.7391470606,23.0105756271\H,0,46.2757629666,54.0496219071,24.0706375
 47\O,0,45.4675017992,56.1781921549,25.6475787218\H,0,45.8486050527,55.
 8411998786,24.8135145605\H,0,46.0937060878,55.9805311909,26.3468623196
 \O,0,51.5009825572,50.8155162405,17.605184759\H,0,50.9273478394,51.303
 7163733,18.1995614393\H,0,51.1298558957,49.9218586094,17.5602974566\O,
 0,39.5553117513,52.5545087927,22.6864703267\H,0,38.9410107543,51.80838
 76613,22.7072307516\H,0,39.6717398268,52.8063757594,23.6232304954\O,0,
 40.5158678625,55.1442168476,26.5578812134\H,0,41.4423232508,55.1851679
 858,26.2590896025\H,0,40.1227398505,54.4329780962,26.0168405084\O,0,46
 .1965640767,52.8516978186,25.3245216773\H,0,46.3655870844,53.191606126
 5,26.2078350053\H,0,47.0127063529,52.3754648665,25.0547257692\O,0,47.8
 137521771,52.8056442261,21.937030281\H,0,46.9096137535,52.4085819792,2
 1.9677989576\H,0,47.6557228459,53.7195240458,22.2134278344\O,0,42.9295
 453284,53.0869355769,29.1921515222\H,0,42.0851394065,53.5615234421,29.
 2011089222\H,0,42.9927306932,52.6194262478,30.0277401158\C,0,42.806700
 3178,42.5673966233,30.9989928659\O,0,42.4051063528,41.4947432971,31.50
 63680692\C,0,42.8078910372,43.7935231187,31.6973153862\C,0,43.15301996
 79,44.979822967,31.1164093622\C,0,43.7324290588,45.0158472279,29.73499
 76911\C,0,44.3084066091,43.6527845043,29.3540061449\C,0,43.2599285201,
 42.5762306846,29.5662197098\C,0,42.8620727598,46.243183328,31.80763280
 78\C,0,43.7295265163,47.4414705963,31.4338298328\C,0,44.0311844375,47.
 4626986027,29.9394581951\C,0,44.7593932905,46.1536544094,29.5946333958
 \C,0,44.8868460719,48.6606162925,29.5676532296\C,0,45.3793356857,48.62
 38714433,28.1153124494\C,0,46.2415221539,47.3849899524,27.9182399392\C
 ,0,45.4043997859,46.1384314247,28.2029009006\C,0,44.2643952029,50.0523
 044232,29.6769501411\C,0,45.2060298241,50.9330826029,28.8325571915\C,0
 ,46.1424079674,49.9603738457,28.0904053735\C,0,44.2429868109,48.647887
 7621,27.0881988459\O,0,46.4810638324,50.425877708,26.7876682123\H,0,42
 .4385637859,43.775891609,32.7132619654\H,0,42.902602365,45.243603141,2
 9.0514082946\H,0,45.1843329001,43.4407033731,29.9732120639\H,0,44.6171
 028451,43.6483325484,28.309592655\H,0,42.3844149785,42.7868979129,28.9
 426656622\H,0,43.6454855029,41.5916212341,29.292945607\H,0,42.86140854
 89,46.0962016743,32.8883981829\H,0,41.8055022268,46.4860099864,31.5531
 623067\H,0,44.6694894082,47.3982924443,31.9904373283\H,0,43.2215237883
 ,48.3583299934,31.7272047073\H,0,43.0851580104,47.4987473858,29.397539
 9285\H,0,45.5553666518,46.002218158,30.3335309064\H,0,45.7766852053,48
 .6452947279,30.2069320257\H,0,47.0998544024,47.4196534152,28.591016814
 9\H,0,46.6254091449,47.3369435471,26.8957691115\H,0,44.6221749388,46.0
 48621149,27.4483371896\H,0,46.0577455588,45.2680493346,28.1212898924\H
 ,0,44.2051670429,50.3914653269,30.7081855996\H,0,43.2566312231,50.0438
 953548,29.2662686411\H,0,45.782400095,51.6023340706,29.4668040771\H,0,
 44.6548943932,51.5398233145,28.1188936275\H,0,47.0699057281,49.8401389
 195,28.6600782136\H,0,43.8622132318,49.654702062,26.9702845\H,0,44.609
 4952656,48.2941677183,26.1278641666\H,0,43.4262876674,48.004248489,27.
 3895191956\H,0,47.2939230592,49.9774093214,26.5330239245\\Version=ES64
 L-G16RevC.01\State=1-A\HF=-24387.0740164\RMSD=6.289e-10\Dipole=17.2644
 149,-30.0015918,-38.8403486\Quadrupole=-266.2538261,28.3703965,237.883
 4295,196.9934151,281.3366781,3.7110162\PG=C01 [X(C295H536N56O98S6)]\\@
 The archive entry for this job was punched.


 THE SOLUTION TO A PROBLEM CHANGES THE PROBLEM.

                                 -- JOHN PEERS
           PAUL DICKSON'S "THE OFFICIAL RULES"
 Job cpu time:       4 days 22 hours 49 minutes 59.8 seconds.
 Elapsed time:       0 days  1 hours 54 minutes  5.4 seconds.
 File lengths (MBytes):  RWF=  33583 Int=      0 D2E=      0 Chk=   3595 Scr=      1
 Normal termination of Gaussian 16 at Tue May 19 23:50:15 2026.
