 Entering Gaussian System, Link 0=g16
 Initial command:
 /cm/shared/apps/spack/cpu/opt/spack/linux-centos8-zen/gcc-8.3.1/gaussian-16.C.01-po5bqktfeugvmjyga3v7eigbecnokxng/g16/l1.exe "/scratch/hklem/job_32857450/Gau-3622702.inp" -scrdir="/scratch/hklem/job_32857450/"
 Entering Link 1 = /cm/shared/apps/spack/cpu/opt/spack/linux-centos8-zen/gcc-8.3.1/gaussian-16.C.01-po5bqktfeugvmjyga3v7eigbecnokxng/g16/l1.exe PID=   3622703.
  
 Copyright (c) 1988-2019, Gaussian, Inc.  All Rights Reserved.
  
 This is part of the Gaussian(R) 16 program.  It is based on
 the Gaussian(R) 09 system (copyright 2009, Gaussian, Inc.),
 the Gaussian(R) 03 system (copyright 2003, Gaussian, Inc.),
 the Gaussian(R) 98 system (copyright 1998, Gaussian, Inc.),
 the Gaussian(R) 94 system (copyright 1995, Gaussian, Inc.),
 the Gaussian 92(TM) system (copyright 1992, Gaussian, Inc.),
 the Gaussian 90(TM) system (copyright 1990, Gaussian, Inc.),
 the Gaussian 88(TM) system (copyright 1988, Gaussian, Inc.),
 the Gaussian 86(TM) system (copyright 1986, Carnegie Mellon
 University), and the Gaussian 82(TM) system (copyright 1983,
 Carnegie Mellon University). Gaussian is a federally registered
 trademark of Gaussian, Inc.
  
 This software contains proprietary and confidential information,
 including trade secrets, belonging to Gaussian, Inc.
  
 This software is provided under written license and may be
 used, copied, transmitted, or stored only in accord with that
 written license.
  
 The following legend is applicable only to US Government
 contracts under FAR:
  
                    RESTRICTED RIGHTS LEGEND
  
 Use, reproduction and disclosure by the US Government is
 subject to restrictions as set forth in subparagraphs (a)
 and (c) of the Commercial Computer Software - Restricted
 Rights clause in FAR 52.227-19.
  
 Gaussian, Inc.
 340 Quinnipiac St., Bldg. 40, Wallingford CT 06492
  
  
 ---------------------------------------------------------------
 Warning -- This program may not be used in any manner that
 competes with the business of Gaussian, Inc. or will provide
 assistance to any competitor of Gaussian, Inc.  The licensee
 of this program is prohibited from giving any competitor of
 Gaussian, Inc. access to this program.  By using this program,
 the user acknowledges that Gaussian, Inc. is engaged in the
 business of creating and licensing software in the field of
 computational chemistry and represents and warrants to the
 licensee that it is not a competitor of Gaussian, Inc. and that
 it will not use this program in any manner prohibited above.
 ---------------------------------------------------------------
  

 Cite this work as:
 Gaussian 16, Revision C.01,
 M. J. Frisch, G. W. Trucks, H. B. Schlegel, G. E. Scuseria, 
 M. A. Robb, J. R. Cheeseman, G. Scalmani, V. Barone, 
 G. A. Petersson, H. Nakatsuji, X. Li, M. Caricato, A. V. Marenich, 
 J. Bloino, B. G. Janesko, R. Gomperts, B. Mennucci, H. P. Hratchian, 
 J. V. Ortiz, A. F. Izmaylov, J. L. Sonnenberg, D. Williams-Young, 
 F. Ding, F. Lipparini, F. Egidi, J. Goings, B. Peng, A. Petrone, 
 T. Henderson, D. Ranasinghe, V. G. Zakrzewski, J. Gao, N. Rega, 
 G. Zheng, W. Liang, M. Hada, M. Ehara, K. Toyota, R. Fukuda, 
 J. Hasegawa, M. Ishida, T. Nakajima, Y. Honda, O. Kitao, H. Nakai, 
 T. Vreven, K. Throssell, J. A. Montgomery, Jr., J. E. Peralta, 
 F. Ogliaro, M. J. Bearpark, J. J. Heyd, E. N. Brothers, K. N. Kudin, 
 V. N. Staroverov, T. A. Keith, R. Kobayashi, J. Normand, 
 K. Raghavachari, A. P. Rendell, J. C. Burant, S. S. Iyengar, 
 J. Tomasi, M. Cossi, J. M. Millam, M. Klene, C. Adamo, R. Cammi, 
 J. W. Ochterski, R. L. Martin, K. Morokuma, O. Farkas, 
 J. B. Foresman, and D. J. Fox, Gaussian, Inc., Wallingford CT, 2019.
 
 ******************************************
 Gaussian 16:  ES64L-G16RevC.01  3-Jul-2019
                 8-Aug-2024 
 ******************************************
 %nprocshared=24
 Will use up to   24 processors via shared memory.
 %mem=48GB
 --------------------------
 # wb97xd 6-31G(d) prop=efg
 --------------------------
 1/38=1,172=1/1;
 2/12=2,17=6,18=5,40=1/2;
 3/5=1,6=6,7=1,11=2,25=1,30=1,74=-58/1,2,3;
 4//1;
 5/5=2,38=5/2;
 6/7=2,8=2,9=2,10=2,14=1,28=1/1,2;
 99/5=1,9=1/99;
 ------------------------------------------------
 19nt_mm_min_distance_cutoff6_nowat_ligand_conf_1
 ------------------------------------------------
 Symbolic Z-matrix:
 Charge =  0 Multiplicity = 1
 C                    -3.7209   -0.0564    0.8981 
 O                    -4.8775   -0.5138    1.0489 
 C                    -2.9096    0.3435    2.0008 
 C                    -1.7275    0.9889    1.8063 
 C                    -1.1001    1.1174    0.4352 
 C                    -1.6977    0.1225   -0.5596 
 C                    -3.2145    0.1448   -0.5033 
 C                    -1.0706    1.701     2.9377 
 C                     0.4578    1.7446    2.8876 
 C                     0.9641    2.1007    1.4893 
 C                     0.439     1.0259    0.5125 
 C                     2.4812    2.2002    1.4077 
 C                     3.0064    2.4083   -0.0262 
 C                     2.5981    1.2061   -0.8768 
 C                     1.0746    1.0438   -0.8886 
 C                     3.2014    3.29      2.2138 
 C                     4.597     3.3862    1.5372 
 C                     4.5135    2.5079    0.2698 
 C                     2.518     3.7139   -0.6781 
 O                     5.3058    3.0552   -0.7745 
 H                    -3.349     0.2596    2.9911 
 H                    -1.3555    2.1392    0.1025 
 H                    -1.3332   -0.8885   -0.3283 
 H                    -1.37      0.3572   -1.5762 
 H                    -3.5878    1.1273   -0.8301 
 H                    -3.6611   -0.6126   -1.156 
 H                    -1.4224    1.2949    3.8913 
 H                    -1.4803    2.7284    2.8894 
 H                     0.869     0.7676    3.1763 
 H                     0.8156    2.4663    3.6263 
 H                     0.5312    3.0741    1.2116 
 H                     0.6887    0.0491    0.9606 
 H                     2.8856    1.2299    1.7426 
 H                     3.0644    0.3004   -0.4638 
 H                     2.9513    1.3097   -1.9111 
 H                     0.6259    1.8453   -1.4927 
 H                     0.8308    0.1066   -1.3995 
 H                     3.258     3.059     3.2798 
 H                     2.6567    4.2381    2.1349 
 H                     5.3979    3.0419    2.1987 
 H                     4.8412    4.4123    1.2449 
 H                     4.8746    1.4966    0.5042 
 H                     2.8945    4.5992   -0.1582 
 H                     2.8715    3.7596   -1.713 
 H                     1.4258    3.7824   -0.6954 
 H                     5.0454    2.6086   -1.5907 
 
                          Input orientation:                          
 ---------------------------------------------------------------------
 Center     Atomic      Atomic             Coordinates (Angstroms)
 Number     Number       Type             X           Y           Z
 ---------------------------------------------------------------------
      1          6           0       -3.720900   -0.056400    0.898100
      2          8           0       -4.877500   -0.513800    1.048900
      3          6           0       -2.909600    0.343500    2.000800
      4          6           0       -1.727500    0.988900    1.806300
      5          6           0       -1.100100    1.117400    0.435200
      6          6           0       -1.697700    0.122500   -0.559600
      7          6           0       -3.214500    0.144800   -0.503300
      8          6           0       -1.070600    1.701000    2.937700
      9          6           0        0.457800    1.744600    2.887600
     10          6           0        0.964100    2.100700    1.489300
     11          6           0        0.439000    1.025900    0.512500
     12          6           0        2.481200    2.200200    1.407700
     13          6           0        3.006400    2.408300   -0.026200
     14          6           0        2.598100    1.206100   -0.876800
     15          6           0        1.074600    1.043800   -0.888600
     16          6           0        3.201400    3.290000    2.213800
     17          6           0        4.597000    3.386200    1.537200
     18          6           0        4.513500    2.507900    0.269800
     19          6           0        2.518000    3.713900   -0.678100
     20          8           0        5.305800    3.055200   -0.774500
     21          1           0       -3.349000    0.259600    2.991100
     22          1           0       -1.355500    2.139200    0.102500
     23          1           0       -1.333200   -0.888500   -0.328300
     24          1           0       -1.370000    0.357200   -1.576200
     25          1           0       -3.587800    1.127300   -0.830100
     26          1           0       -3.661100   -0.612600   -1.156000
     27          1           0       -1.422400    1.294900    3.891300
     28          1           0       -1.480300    2.728400    2.889400
     29          1           0        0.869000    0.767600    3.176300
     30          1           0        0.815600    2.466300    3.626300
     31          1           0        0.531200    3.074100    1.211600
     32          1           0        0.688700    0.049100    0.960600
     33          1           0        2.885600    1.229900    1.742600
     34          1           0        3.064400    0.300400   -0.463800
     35          1           0        2.951300    1.309700   -1.911100
     36          1           0        0.625900    1.845300   -1.492700
     37          1           0        0.830800    0.106600   -1.399500
     38          1           0        3.258000    3.059000    3.279800
     39          1           0        2.656700    4.238100    2.134900
     40          1           0        5.397900    3.041900    2.198700
     41          1           0        4.841200    4.412300    1.244900
     42          1           0        4.874600    1.496600    0.504200
     43          1           0        2.894500    4.599200   -0.158200
     44          1           0        2.871500    3.759600   -1.713000
     45          1           0        1.425800    3.782400   -0.695400
     46          1           0        5.045400    2.608600   -1.590700
 ---------------------------------------------------------------------
                    Distance matrix (angstroms):
                    1          2          3          4          5
     1  C    0.000000
     2  O    1.252868   0.000000
     3  C    1.426210   2.348128   0.000000
     4  C    2.427164   3.571311   1.360784   0.000000
     5  C    2.908724   4.160071   2.514819   1.513294   0.000000
     6  C    2.500047   3.619845   2.841336   2.519726   1.528587
     7  C    1.503610   2.368258   2.530408   2.873661   2.509466
     8  C    3.777898   4.792222   2.470326   1.489520   2.569818
     9  C    4.966210   6.078373   3.753515   2.552612   2.972322
    10  C    5.191515   6.415127   4.284266   2.929385   2.517723
    11  C    4.315649   5.560897   3.727443   2.523690   1.543754
    12  C    6.619515   7.851433   5.732349   4.397645   3.865737
    13  C    7.223963   8.476461   6.585680   5.270917   4.329279
    14  C    6.683856   7.908917   6.273709   5.094803   3.925034
    15  C    5.234459   6.450389   4.971207   3.888093   2.546995
    16  C    7.800493   9.005249   6.787603   5.454830   5.136780
    17  C    9.024822  10.257416   8.113075   6.768956   6.230474
    18  C    8.647297   9.895885   7.923598   6.604413   5.785616
    19  C    7.458112   8.691916   6.927838   5.623357   4.590414
    20  O    9.693346  10.943589   9.085615   7.771579   6.801029
    21  H    2.149143   2.589711   1.086649   2.136561   3.510840
    22  H    3.323967   4.509830   3.040281   2.089141   1.104533
    23  H    2.810260   3.820882   3.070434   2.869951   2.158912
    24  H    3.438016   4.466805   3.894289   3.459502   2.167136
    25  H    2.098937   2.808412   3.014680   3.229625   2.791009
    26  H    2.128911   2.520114   3.382937   3.883147   3.476138
    27  H    4.008536   4.825800   2.586681   2.129307   3.475631
    28  H    4.091537   5.043835   2.918948   2.063995   2.960232
    29  H    5.190024   6.260198   3.979884   2.944093   3.393132
    30  H    5.864036   6.923538   4.585373   3.458680   3.958858
    31  H    5.289486   6.492575   4.462972   3.131047   2.663196
    32  H    4.411305   5.595287   3.757186   2.726986   2.148747
    33  H    6.783332   7.986703   5.868280   4.619830   4.196160
    34  H    6.929818   8.125574   6.462568   5.346933   4.338058
    35  H    7.367231   8.566030   7.112429   5.984408   4.685717
    36  H    5.312914   6.504806   5.192274   4.141897   2.688069
    37  H    5.101324   6.242135   5.060509   4.195296   2.848897
    38  H    8.005202   9.161232   6.859233   5.595688   5.554691
    39  H    7.787566   8.973523   6.794821   5.466854   5.171199
    40  H    9.718206  10.933841   8.736995   7.425639   7.002688
    41  H    9.664321  10.897615   8.786434   7.428503   6.841858
    42  H    8.743545   9.972054   8.010195   6.748403   5.987119
    43  H    8.158057   9.381036   7.513976   6.185177   5.332156
    44  H    8.052294   9.270223   7.673537   6.419739   5.231595
    45  H    6.615448   7.825056   6.155585   4.899535   3.841959
    46  H    9.494439  10.732232   9.017293   7.748239   6.640416
                    6          7          8          9         10
     6  C    0.000000
     7  C    1.518008   0.000000
     8  C    3.887933   4.342643   0.000000
     9  C    4.377280   5.248176   1.529842   0.000000
    10  C    3.898262   5.025604   2.529353   1.529179   0.000000
    11  C    2.555585   3.893103   2.935344   2.481528   1.544365
    12  C    5.064614   6.349613   3.899408   2.547906   1.522548
    13  C    5.257181   6.637067   5.089883   3.927606   2.561708
    14  C    4.441700   5.920488   5.315515   4.363665   3.011427
    15  C    2.939844   4.399209   4.435580   3.889891   2.604545
    16  C    6.459565   7.644520   4.615077   3.220188   2.635308
    17  C    7.394022   8.699991   6.076429   4.653107   3.853929
    18  C    6.705001   8.118122   6.241070   4.887147   3.775080
    19  C    5.539343   6.755042   5.477575   4.564733   3.116832
    20  O    7.595783   9.007746   7.501517   6.215445   4.988609
    21  H    3.918298   3.498871   2.696589   4.087501   4.924214
    22  H    2.150013   2.792939   2.882975   3.346722   2.702821
    23  H    1.099309   2.153514   4.176269   4.525805   4.185281
    24  H    1.093594   2.144390   4.719188   5.019088   4.229079
    25  H    2.157608   1.100662   4.567466   5.528945   5.200665
    26  H    2.179680   1.095045   5.368595   6.234776   5.979305
    27  H    4.610946   4.883325   1.094547   2.178255   3.480560
    28  H    4.328230   4.603569   1.107130   2.173499   2.886066
    29  H    4.578324   5.531935   2.165690   1.098618   2.152247
    30  H    5.415887   6.219700   2.148861   1.092954   2.173128
    31  H    4.100864   5.054894   2.725911   2.140545   1.100921
    32  H    2.830424   4.169788   3.119749   2.577084   2.136453
    33  H    5.247199   6.590351   4.159533   2.733158   2.124763
    34  H    4.766385   6.280952   5.534447   4.484636   3.386287
    35  H    4.984897   6.430862   6.311866   5.425330   4.017134
    36  H    3.039380   4.315007   4.746302   4.384681   3.011965
    37  H    2.664394   4.143560   4.996873   4.604498   3.512744
    38  H    6.922643   8.043486   4.549503   3.118107   3.063692
    39  H    6.569573   7.627988   4.579752   3.408704   2.801816
    40  H    8.153444   9.479843   6.647227   5.153849   4.587776
    41  H    8.025947   9.282352   6.720573   5.387883   4.520523
    42  H    6.798158   8.262927   6.427216   5.024960   4.077667
    43  H    6.425750   7.568398   5.805702   4.833544   3.561348
    44  H    5.952849   7.181194   6.434827   5.572405   4.079810
    45  H    4.813477   5.899273   4.874798   4.234093   2.795388
    46  H    7.260390   8.687848   7.663915   6.468983   5.138227
                   11         12         13         14         15
    11  C    0.000000
    12  C    2.520108   0.000000
    13  C    2.965261   1.541172   0.000000
    14  C    2.573779   2.494161   1.528239   0.000000
    15  C    1.538632   2.930662   2.517428   1.532166   0.000000
    16  C    3.956188   1.534975   2.415165   3.776032   4.381048
    17  C    4.889784   2.428987   2.435265   3.817831   4.876335
    18  C    4.342439   2.349412   1.539119   2.584208   3.912993
    19  C    3.600710   2.577441   1.538863   2.516934   3.042556
    20  O    5.427722   3.670339   2.503133   3.280438   4.686342
    21  H    4.591254   6.345417   7.356094   7.157130   5.935931
    22  H    2.151225   4.053090   4.372088   4.178595   2.843865
    23  H    2.740906   5.206094   5.458231   4.488131   3.137709
    24  H    2.842940   5.208843   5.075666   4.117719   2.630643
    25  H    4.245936   6.556800   6.765404   6.186578   4.663515
    26  H    4.720105   7.225805   7.406608   6.524048   5.024144
    27  H    3.866970   4.714438   6.016705   6.237554   5.398658
    28  H    3.497409   4.262383   5.360379   5.756301   4.861962
    29  H    2.710618   2.789171   4.185258   4.428283   4.079457
    30  H    3.451424   2.786973   4.259545   5.004330   4.740771
    31  H    2.166187   2.145846   2.846411   3.481798   2.971236
    32  H    1.103305   2.835522   3.451280   2.891452   2.134921
    33  H    2.746018   1.103259   2.128820   2.635238   3.199620
    34  H    2.893482   2.729812   2.153625   1.099226   2.166195
    35  H    3.502289   3.468201   2.182385   1.097843   2.153651
    36  H    2.174207   3.461273   2.852082   2.162749   1.099396
    37  H    2.157397   3.871350   3.452102   2.146035   1.094898
    38  H    4.442770   2.201298   3.378809   4.598481   5.118967
    39  H    4.227127   2.170865   2.853211   4.273967   4.674200
    40  H    5.612327   3.137081   3.327296   4.546179   5.675804
    41  H    5.602096   3.238748   2.999700   4.451160   5.485061
    42  H    4.460513   2.653249   2.145389   2.678433   4.072459
    43  H    4.387231   2.894488   2.197723   3.481001   4.060343
    44  H    4.282875   3.510389   2.165526   2.700804   3.359175
    45  H    3.167189   2.835534   2.198699   2.836285   2.767778
    46  H    5.305404   3.966398   2.577848   2.909628   4.325367
                   16         17         18         19         20
    16  C    0.000000
    17  C    1.553944   0.000000
    18  C    2.472331   1.544243   0.000000
    19  C    3.001635   3.055680   2.516937   0.000000
    20  O    3.662454   2.440474   1.420507   2.866183   0.000000
    21  H    7.259150   8.661892   8.618540   7.734139   9.843815
    22  H    5.152404   6.248650   5.882949   4.253589   6.780937
    23  H    6.669688   7.544562   6.788016   6.011338   7.734868
    24  H    6.622923   7.380595   6.530605   5.214457   7.244876
    25  H    7.748279   8.814629   8.291375   6.632827   9.100330
    26  H    8.583691   9.562424   8.865355   7.558324   9.695545
    27  H    5.307915   6.793269   7.058438   6.500595   8.374785
    28  H    4.763417   6.260569   6.544965   5.448364   7.718945
    29  H    3.567772   4.841663   4.975818   5.124089   6.366092
    30  H    2.892348   4.416961   4.994225   4.794010   6.314724
    31  H    2.860242   4.090740   4.131136   2.815614   5.171243
    32  H    4.288077   5.171413   4.599130   4.411625   5.776229
    33  H    2.136767   2.760563   2.540174   3.487861   3.940163
    34  H    4.015721   3.984348   2.740642   3.463591   3.565015
    35  H    4.582460   4.348673   2.938108   2.736460   3.143613
    36  H    4.739040   5.227265   4.319592   2.781237   4.886833
    37  H    5.367468   5.793466   4.702668   4.047181   5.395414
    38  H    1.092209   2.221854   3.307581   4.079395   4.542119
    39  H    1.096274   2.201759   3.149587   2.864785   4.108721
    40  H    2.210519   1.094333   2.188144   4.125698   2.974656
    41  H    2.210717   1.094511   2.164474   3.095634   2.477004
    42  H    2.989751   2.171345   1.099120   3.444970   2.061611
    43  H    2.726642   2.691516   2.679157   1.093528   2.928844
    44  H    3.968516   3.698727   2.862588   1.094563   2.702365
    45  H    3.443640   3.898460   3.477047   1.094483   3.948351
    46  H    4.282390   3.254149   1.937658   2.905560   0.966148
                   21         22         23         24         25
    21  H    0.000000
    22  H    3.981325   0.000000
    23  H    4.049691   3.058276   0.000000
    24  H    4.978574   2.448217   1.763626   0.000000
    25  H    3.925748   2.622374   3.065693   2.463403   0.000000
    26  H    4.249303   3.804210   2.486026   2.523137   1.771676
    27  H    2.365163   3.882309   4.751865   5.547575   5.196986
    28  H    3.097960   2.851235   4.843263   5.057305   4.565058
    29  H    4.252515   4.034592   4.458091   5.269517   6.003640
    30  H    4.755723   4.151847   5.613456   6.024214   6.406431
    31  H    5.113119   2.379869   4.642142   4.332198   4.992467
    32  H    4.524407   3.046901   2.574575   3.281543   4.759997
    33  H    6.431988   4.637206   5.155048   5.466824   6.966651
    34  H    7.284895   4.820518   4.557492   4.572151   6.713397
    35  H    8.051587   4.826094   5.068952   4.437685   6.630359
    36  H    6.198285   2.560661   3.559152   2.490990   4.325486
    37  H    6.063951   3.341762   2.611626   2.222058   4.570566
    38  H    7.181395   5.676764   7.048422   7.231794   8.215091
    39  H    7.254652   4.963243   6.947567   6.711778   7.580375
    40  H    9.212890   7.128628   8.193991   8.201339   9.673786
    41  H    9.347380   6.698593   8.288344   7.936085   9.281427
    42  H    8.680002   6.276021   6.702129   6.679920   8.574902
    43  H    8.229916   4.917526   6.929447   6.179907   7.384156
    44  H    8.548285   4.877424   6.418857   5.439243   7.030723
    45  H    6.985636   3.327519   5.437293   4.508248   5.674847
    46  H    9.847672   6.637679   7.383082   6.798998   8.792321
                   26         27         28         29         30
    26  H    0.000000
    27  H    5.841710   0.000000
    28  H    5.681851   1.749880   0.000000
    29  H    6.418378   2.457597   3.073477   0.000000
    30  H    7.238153   2.539891   2.425464   1.758105   0.000000
    31  H    6.064047   3.763363   2.642093   3.048622   2.506208
    32  H    4.882479   3.820702   3.950124   2.336253   3.600683
    33  H    7.392968   4.814561   4.756231   2.517120   3.059724
    34  H    6.822394   6.331453   6.147636   4.276492   5.145594
    35  H    6.927427   7.266176   6.685551   5.523720   6.046630
    36  H    4.953081   5.786703   4.941533   4.797926   5.160018
    37  H    4.555624   5.872098   5.532602   4.623454   5.552214
    38  H    9.001717   5.039060   4.765836   3.311880   2.537060
    39  H    8.618231   5.327891   4.468023   4.040391   2.958580
    40  H   10.328352   7.241091   6.919898   5.161306   4.833925
    41  H   10.163811   7.480261   6.745462   5.726475   5.065909
    42  H    8.947802   7.152995   6.898642   4.869948   5.211843
    43  H    8.434119   6.778825   5.650366   5.468336   4.815966
    44  H    7.880434   7.478001   6.417447   6.071847   5.865788
    45  H    6.738303   5.944554   4.733616   4.938533   4.558679
    46  H    9.293451   8.579660   7.916464   6.599688   6.717778
                   31         32         33         34         35
    31  H    0.000000
    32  H    3.039479   0.000000
    33  H    3.037472   2.613844   0.000000
    34  H    4.113086   2.781370   2.400862   0.000000
    35  H    4.326806   3.867187   3.655162   1.768094   0.000000
    36  H    2.971894   3.041210   3.994011   3.064577   2.422687
    37  H    3.964046   2.365073   3.918775   2.429416   2.491125
    38  H    3.422443   4.586882   2.418113   4.654234   5.486306
    39  H    2.593285   4.774906   3.042295   4.735498   5.003242
    40  H    4.965901   5.715445   3.130978   4.477717   5.086927
    41  H    4.513091   6.030058   3.768255   4.794204   4.812295
    42  H    4.674831   4.452563   2.358153   2.375867   3.093168
    43  H    3.128493   5.178868   3.868501   4.312997   3.727827
    44  H    3.807913   5.067599   4.282610   3.682903   2.459191
    45  H    2.222307   4.150082   3.819701   3.855253   3.149496
    46  H    5.333627   5.660478   4.204336   3.243771   2.484965
                   36         37         38         39         40
    36  H    0.000000
    37  H    1.753211   0.000000
    38  H    5.583706   6.041839   0.000000
    39  H    4.796782   5.735433   1.750038   0.000000
    40  H    6.150632   6.513174   2.397549   2.991512   0.000000
    41  H    5.643819   6.450985   2.911831   2.365267   1.760013
    42  H    4.707510   4.680651   3.571897   3.885111   2.352260
    43  H    3.809383   5.097366   3.784731   2.333506   3.774543
    44  H    2.959019   4.196087   5.056508   3.883482   4.711601
    45  H    2.242294   3.789629   4.436494   3.119836   4.970084
    46  H    4.486002   4.905040   5.207632   4.716063   3.830347
                   41         42         43         44         45
    41  H    0.000000
    42  H    3.008498   0.000000
    43  H    2.406920   3.739746   0.000000
    44  H    3.613158   3.748274   1.767162   0.000000
    45  H    3.978253   4.307916   1.764320   1.768072   0.000000
    46  H    3.366847   2.377882   3.262042   2.462844   3.909076
                   46
    46  H    0.000000
 Stoichiometry    C18H26O2
 Framework group  C1[X(C18H26O2)]
 Deg. of freedom   132
 Full point group                 C1      NOp   1
 Largest Abelian subgroup         C1      NOp   1
 Largest concise Abelian subgroup C1      NOp   1
                         Standard orientation:                         
 ---------------------------------------------------------------------
 Center     Atomic      Atomic             Coordinates (Angstroms)
 Number     Number       Type             X           Y           Z
 ---------------------------------------------------------------------
      1          6           0        4.664302   -0.181313    0.019708
      2          8           0        5.915841   -0.132327   -0.010759
      3          6           0        3.851298    0.974239   -0.174713
      4          6           0        2.506212    0.929419    0.026445
      5          6           0        1.770541   -0.375437    0.241387
      6          6           0        2.602785   -1.577931   -0.203536
      7          6           0        4.013437   -1.495615    0.351111
      8          6           0        1.729077    2.192836    0.162495
      9          6           0        0.284805    2.132778   -0.338393
     10          6           0       -0.420451    0.860085    0.131985
     11          6           0        0.373805   -0.345956   -0.415451
     12          6           0       -1.876355    0.783622   -0.306932
     13          6           0       -2.549682   -0.560707    0.031622
     14          6           0       -1.809625   -1.678009   -0.702862
     15          6           0       -0.332742   -1.707547   -0.296073
     16          6           0       -2.870925    1.825246    0.224103
     17          6           0       -4.258082    1.173584   -0.032557
     18          6           0       -3.967295   -0.271356   -0.493293
     19          6           0       -2.605622   -0.859408    1.540180
     20          8           0       -4.979562   -1.157800   -0.037913
     21          1           0        4.366680    1.918712   -0.326890
     22          1           0        1.622137   -0.439193    1.334047
     23          1           0        2.637865   -1.611271   -1.301780
     24          1           0        2.136254   -2.508649    0.131216
     25          1           0        3.989295   -1.561725    1.449521
     26          1           0        4.647267   -2.309865   -0.015469
     27          1           0        2.273790    3.020184   -0.303139
     28          1           0        1.744402    2.408131    1.248382
     29          1           0        0.268741    2.162809   -1.436483
     30          1           0       -0.247014    3.022709    0.007644
     31          1           0       -0.382038    0.840126    1.232055
     32          1           0        0.520490   -0.159155   -1.492888
     33          1           0       -1.884897    0.860159   -1.407500
     34          1           0       -1.892703   -1.510652   -1.786092
     35          1           0       -2.254977   -2.658915   -0.491331
     36          1           0       -0.243940   -2.086180    0.732237
     37          1           0        0.186415   -2.432272   -0.931723
     38          1           0       -2.760213    2.799087   -0.257868
     39          1           0       -2.704067    1.993126    1.294520
     40          1           0       -4.832369    1.716584   -0.789466
     41          1           0       -4.870710    1.142695    0.873913
     42          1           0       -3.928701   -0.301719   -1.591315
     43          1           0       -3.229477   -0.140849    2.078958
     44          1           0       -3.030845   -1.855330    1.699537
     45          1           0       -1.612825   -0.843073    2.000592
     46          1           0       -4.641693   -2.055642   -0.152662
 ---------------------------------------------------------------------
 Rotational constants (GHZ):           0.9172118           0.1761079           0.1554028
 Standard basis: 6-31G(d) (6D, 7F)
 There are   352 symmetry adapted cartesian basis functions of A   symmetry.
 There are   352 symmetry adapted basis functions of A   symmetry.
   352 basis functions,   664 primitive gaussians,   352 cartesian basis functions
    75 alpha electrons       75 beta electrons
       nuclear repulsion energy      1665.4540793847 Hartrees.
 NAtoms=   46 NActive=   46 NUniq=   46 SFac= 1.00D+00 NAtFMM=   60 NAOKFM=F Big=F
 Integral buffers will be    131072 words long.
 Raffenetti 2 integral format.
 Two-electron integral symmetry is turned on.
 Nuclear repulsion after empirical dispersion term =     1665.4051267455 Hartrees.
 One-electron integrals computed using PRISM.
 NBasis=   352 RedAO= T EigKep=  1.26D-03  NBF=   352
 NBsUse=   352 1.00D-06 EigRej= -1.00D+00 NBFU=   352
 ExpMin= 1.61D-01 ExpMax= 5.48D+03 ExpMxC= 8.25D+02 IAcc=3 IRadAn=         5 AccDes= 0.00D+00
 Harris functional with IExCor= 4639 and IRadAn=       5 diagonalized for initial guess.
 HarFok:  IExCor= 4639 AccDes= 0.00D+00 IRadAn=         5 IDoV= 1 UseB2=F ITyADJ=14
 ICtDFT=  3500011 ScaDFX=  1.000000  1.000000  1.000000  1.000000
 FoFCou: FMM=F IPFlag=           0 FMFlag=      100000 FMFlg1=           0
         NFxFlg=           0 DoJE=T BraDBF=F KetDBF=T FulRan=T
         wScrn=  0.000000 ICntrl=       500 IOpCl=  0 I1Cent=   200000004 NGrid=           0
         NMat0=    1 NMatS0=      1 NMatT0=    0 NMatD0=    1 NMtDS0=    0 NMtDT0=    0
 Petite list used in FoFCou.
 Requested convergence on RMS density matrix=1.00D-08 within 128 cycles.
 Requested convergence on MAX density matrix=1.00D-06.
 Requested convergence on             energy=1.00D-06.
 No special actions if energy rises.
 Integral accuracy reduced to 1.0D-05 until final iterations.
 Initial convergence to 1.0D-05 achieved.  Increase integral accuracy.
 SCF Done:  E(RwB97XD) =  -851.790403324     A.U. after   15 cycles
            NFock= 15  Conv=0.48D-08     -V/T= 2.0093

 **********************************************************************

            Population analysis using the SCF Density.

 **********************************************************************

 Orbital symmetries:
       Occupied  (A) (A) (A) (A) (A) (A) (A) (A) (A) (A) (A) (A)
                 (A) (A) (A) (A) (A) (A) (A) (A) (A) (A) (A) (A)
                 (A) (A) (A) (A) (A) (A) (A) (A) (A) (A) (A) (A)
                 (A) (A) (A) (A) (A) (A) (A) (A) (A) (A) (A) (A)
                 (A) (A) (A) (A) (A) (A) (A) (A) (A) (A) (A) (A)
                 (A) (A) (A) (A) (A) (A) (A) (A) (A) (A) (A) (A)
                 (A) (A) (A)
       Virtual   (A) (A) (A) (A) (A) (A) (A) (A) (A) (A) (A) (A)
                 (A) (A) (A) (A) (A) (A) (A) (A) (A) (A) (A) (A)
                 (A) (A) (A) (A) (A) (A) (A) (A) (A) (A) (A) (A)
                 (A) (A) (A) (A) (A) (A) (A) (A) (A) (A) (A) (A)
                 (A) (A) (A) (A) (A) (A) (A) (A) (A) (A) (A) (A)
                 (A) (A) (A) (A) (A) (A) (A) (A) (A) (A) (A) (A)
                 (A) (A) (A) (A) (A) (A) (A) (A) (A) (A) (A) (A)
                 (A) (A) (A) (A) (A) (A) (A) (A) (A) (A) (A) (A)
                 (A) (A) (A) (A) (A) (A) (A) (A) (A) (A) (A) (A)
                 (A) (A) (A) (A) (A) (A) (A) (A) (A) (A) (A) (A)
                 (A) (A) (A) (A) (A) (A) (A) (A) (A) (A) (A) (A)
                 (A) (A) (A) (A) (A) (A) (A) (A) (A) (A) (A) (A)
                 (A) (A) (A) (A) (A) (A) (A) (A) (A) (A) (A) (A)
                 (A) (A) (A) (A) (A) (A) (A) (A) (A) (A) (A) (A)
                 (A) (A) (A) (A) (A) (A) (A) (A) (A) (A) (A) (A)
                 (A) (A) (A) (A) (A) (A) (A) (A) (A) (A) (A) (A)
                 (A) (A) (A) (A) (A) (A) (A) (A) (A) (A) (A) (A)
                 (A) (A) (A) (A) (A) (A) (A) (A) (A) (A) (A) (A)
                 (A) (A) (A) (A) (A) (A) (A) (A) (A) (A) (A) (A)
                 (A) (A) (A) (A) (A) (A) (A) (A) (A) (A) (A) (A)
                 (A) (A) (A) (A) (A) (A) (A) (A) (A) (A) (A) (A)
                 (A) (A) (A) (A) (A) (A) (A) (A) (A) (A) (A) (A)
                 (A) (A) (A) (A) (A) (A) (A) (A) (A) (A) (A) (A)
                 (A)
 The electronic state is 1-A.
 Alpha  occ. eigenvalues --  -19.26734 -19.23217 -10.36673 -10.34192 -10.33393
 Alpha  occ. eigenvalues --  -10.31843 -10.31151 -10.31111 -10.30660 -10.30490
 Alpha  occ. eigenvalues --  -10.30415 -10.30259 -10.30210 -10.30121 -10.30102
 Alpha  occ. eigenvalues --  -10.29622 -10.29520 -10.29456 -10.29127 -10.28902
 Alpha  occ. eigenvalues --   -1.12057  -1.09863  -0.98293  -0.95785  -0.90917
 Alpha  occ. eigenvalues --   -0.90347  -0.87426  -0.84414  -0.82689  -0.81583
 Alpha  occ. eigenvalues --   -0.78002  -0.77564  -0.73831  -0.72325  -0.69706
 Alpha  occ. eigenvalues --   -0.67774  -0.65524  -0.65384  -0.62988  -0.60899
 Alpha  occ. eigenvalues --   -0.59922  -0.58179  -0.57026  -0.55687  -0.55519
 Alpha  occ. eigenvalues --   -0.54370  -0.53392  -0.52836  -0.52031  -0.50793
 Alpha  occ. eigenvalues --   -0.50310  -0.49832  -0.48741  -0.47823  -0.47629
 Alpha  occ. eigenvalues --   -0.46833  -0.46691  -0.46531  -0.45280  -0.44645
 Alpha  occ. eigenvalues --   -0.44202  -0.43627  -0.43025  -0.42500  -0.42114
 Alpha  occ. eigenvalues --   -0.41366  -0.40877  -0.40169  -0.39375  -0.38696
 Alpha  occ. eigenvalues --   -0.37265  -0.36547  -0.34231  -0.32558  -0.30753
 Alpha virt. eigenvalues --    0.02181   0.13115   0.14046   0.14982   0.16338
 Alpha virt. eigenvalues --    0.16833   0.17401   0.18326   0.19168   0.20127
 Alpha virt. eigenvalues --    0.20457   0.20643   0.21840   0.22755   0.23372
 Alpha virt. eigenvalues --    0.23804   0.23930   0.24630   0.24897   0.25016
 Alpha virt. eigenvalues --    0.25204   0.25987   0.26324   0.26828   0.27005
 Alpha virt. eigenvalues --    0.27478   0.28308   0.28866   0.29126   0.30425
 Alpha virt. eigenvalues --    0.30545   0.31130   0.31656   0.32217   0.32962
 Alpha virt. eigenvalues --    0.33532   0.34131   0.34975   0.35634   0.36196
 Alpha virt. eigenvalues --    0.36588   0.37513   0.38622   0.38961   0.40486
 Alpha virt. eigenvalues --    0.41775   0.41987   0.44711   0.45640   0.49792
 Alpha virt. eigenvalues --    0.51674   0.57668   0.58506   0.59278   0.60210
 Alpha virt. eigenvalues --    0.61265   0.61655   0.62091   0.62688   0.65142
 Alpha virt. eigenvalues --    0.65601   0.65885   0.66535   0.68055   0.69219
 Alpha virt. eigenvalues --    0.70260   0.70720   0.72173   0.72708   0.73130
 Alpha virt. eigenvalues --    0.73566   0.74318   0.74888   0.75588   0.76388
 Alpha virt. eigenvalues --    0.77598   0.77821   0.78476   0.79515   0.81272
 Alpha virt. eigenvalues --    0.82325   0.82743   0.84107   0.84752   0.85615
 Alpha virt. eigenvalues --    0.86388   0.87137   0.89055   0.89636   0.90248
 Alpha virt. eigenvalues --    0.91034   0.92633   0.93226   0.93862   0.94525
 Alpha virt. eigenvalues --    0.94703   0.95434   0.95739   0.96519   0.96643
 Alpha virt. eigenvalues --    0.97228   0.97522   0.97797   0.98708   0.99005
 Alpha virt. eigenvalues --    0.99137   1.00279   1.00691   1.00920   1.02158
 Alpha virt. eigenvalues --    1.02717   1.03073   1.03843   1.04144   1.04555
 Alpha virt. eigenvalues --    1.05424   1.05682   1.06757   1.06978   1.07572
 Alpha virt. eigenvalues --    1.08376   1.10009   1.10511   1.11744   1.13015
 Alpha virt. eigenvalues --    1.14250   1.14866   1.16990   1.19590   1.20015
 Alpha virt. eigenvalues --    1.21751   1.22487   1.25076   1.26582   1.27916
 Alpha virt. eigenvalues --    1.29867   1.31068   1.34924   1.35437   1.37242
 Alpha virt. eigenvalues --    1.38909   1.41164   1.43973   1.47076   1.47756
 Alpha virt. eigenvalues --    1.49720   1.52787   1.53723   1.55150   1.58655
 Alpha virt. eigenvalues --    1.60876   1.62297   1.65158   1.65858   1.66601
 Alpha virt. eigenvalues --    1.70368   1.70622   1.72771   1.74288   1.76305
 Alpha virt. eigenvalues --    1.77885   1.78544   1.79959   1.81183   1.82935
 Alpha virt. eigenvalues --    1.84168   1.86069   1.86706   1.88090   1.88314
 Alpha virt. eigenvalues --    1.89887   1.91979   1.93686   1.94236   1.95195
 Alpha virt. eigenvalues --    1.95626   1.96412   1.97524   1.99154   1.99248
 Alpha virt. eigenvalues --    1.99759   2.01261   2.01399   2.02073   2.03451
 Alpha virt. eigenvalues --    2.04555   2.05309   2.05789   2.06860   2.07785
 Alpha virt. eigenvalues --    2.08929   2.09684   2.10111   2.11122   2.12315
 Alpha virt. eigenvalues --    2.12699   2.14150   2.15322   2.15927   2.18373
 Alpha virt. eigenvalues --    2.18808   2.20317   2.20961   2.22238   2.25404
 Alpha virt. eigenvalues --    2.25889   2.28523   2.29371   2.30761   2.33394
 Alpha virt. eigenvalues --    2.34090   2.35292   2.36518   2.38808   2.39567
 Alpha virt. eigenvalues --    2.40601   2.41834   2.42054   2.44652   2.45635
 Alpha virt. eigenvalues --    2.47648   2.48939   2.50458   2.51125   2.52418
 Alpha virt. eigenvalues --    2.54119   2.57005   2.58031   2.60954   2.61629
 Alpha virt. eigenvalues --    2.62661   2.63491   2.64935   2.65250   2.67255
 Alpha virt. eigenvalues --    2.68262   2.70714   2.71636   2.74610   2.76382
 Alpha virt. eigenvalues --    2.78368   2.79561   2.80941   2.82594   2.84197
 Alpha virt. eigenvalues --    2.86174   2.89788   2.94016   2.97573   2.98537
 Alpha virt. eigenvalues --    3.00561   3.01813   3.06944   3.07881   3.09318
 Alpha virt. eigenvalues --    3.20450   3.27286   4.00729   4.07473   4.23929
 Alpha virt. eigenvalues --    4.26652   4.30857   4.33356   4.35559   4.38460
 Alpha virt. eigenvalues --    4.41700   4.42300   4.47623   4.53528   4.55406
 Alpha virt. eigenvalues --    4.64943   4.66405   4.74402   4.77019   4.80910
 Alpha virt. eigenvalues --    4.85734   4.89771
          Condensed to atoms (all electrons):
               1          2          3          4          5          6
     1  C    4.437154   0.516630   0.378403  -0.002428  -0.021276  -0.027009
     2  O    0.516630   8.129351  -0.059486   0.004860   0.000305   0.003110
     3  C    0.378403  -0.059486   5.275228   0.517728  -0.044583   0.007352
     4  C   -0.002428   0.004860   0.517728   4.878961   0.378790  -0.046343
     5  C   -0.021276   0.000305  -0.044583   0.378790   5.087311   0.351854
     6  C   -0.027009   0.003110   0.007352  -0.046343   0.351854   5.153217
     7  C    0.343765  -0.079842  -0.131159   0.002499  -0.036794   0.280310
     8  C    0.003683  -0.000098  -0.037912   0.358546  -0.066120   0.004933
     9  C   -0.000129   0.000000   0.003016  -0.033485  -0.011223  -0.000259
    10  C   -0.000014   0.000000   0.000399  -0.014625  -0.037153   0.004064
    11  C   -0.000131   0.000000   0.002958  -0.031472   0.365179  -0.048248
    12  C   -0.000000   0.000000   0.000004   0.000282   0.003608  -0.000133
    13  C   -0.000000   0.000000   0.000000   0.000003   0.000053  -0.000001
    14  C    0.000000  -0.000000   0.000001  -0.000084   0.003598   0.000291
    15  C   -0.000002  -0.000000  -0.000103   0.004356  -0.041055  -0.005108
    16  C   -0.000000  -0.000000  -0.000000  -0.000002  -0.000099   0.000001
    17  C   -0.000000   0.000000  -0.000000   0.000000   0.000001  -0.000000
    18  C    0.000000  -0.000000  -0.000000   0.000000   0.000004   0.000000
    19  C   -0.000000   0.000000   0.000000   0.000001   0.000032   0.000000
    20  O   -0.000000   0.000000   0.000000   0.000000  -0.000000   0.000000
    21  H   -0.028744   0.000931   0.360577  -0.045453   0.004441  -0.000411
    22  H    0.000731   0.000010  -0.003597  -0.044641   0.366025  -0.034985
    23  H   -0.003087   0.000050   0.003700  -0.004302  -0.043086   0.385105
    24  H    0.003517  -0.000073  -0.000359   0.004534  -0.029939   0.376034
    25  H   -0.028258  -0.000784   0.002065  -0.001320  -0.003533  -0.038159
    26  H   -0.025323   0.002709   0.004970  -0.000159   0.004111  -0.030525
    27  H    0.000264  -0.000001  -0.002453  -0.039713   0.004043  -0.000143
    28  H   -0.000144   0.000006  -0.008560  -0.039560   0.000655   0.000100
    29  H   -0.000000  -0.000000  -0.000189  -0.002879   0.000554   0.000008
    30  H    0.000001  -0.000000  -0.000086   0.004028  -0.000016   0.000010
    31  H    0.000004   0.000000  -0.000215  -0.003980  -0.002421   0.000215
    32  H    0.000037  -0.000000   0.000076  -0.003530  -0.042799  -0.004038
    33  H    0.000000   0.000000  -0.000001  -0.000064   0.000134   0.000002
    34  H    0.000000   0.000000  -0.000000   0.000003   0.000043  -0.000028
    35  H    0.000000  -0.000000  -0.000000   0.000001  -0.000109   0.000004
    36  H    0.000001  -0.000000  -0.000007   0.000206  -0.002806  -0.002669
    37  H   -0.000011  -0.000000   0.000019  -0.000195  -0.006507   0.003224
    38  H    0.000000  -0.000000   0.000000  -0.000000   0.000001  -0.000000
    39  H    0.000000  -0.000000  -0.000000  -0.000001   0.000001   0.000000
    40  H    0.000000  -0.000000   0.000000   0.000000  -0.000000   0.000000
    41  H    0.000000  -0.000000  -0.000000  -0.000000  -0.000000   0.000000
    42  H    0.000000  -0.000000  -0.000000   0.000000  -0.000000  -0.000000
    43  H   -0.000000   0.000000   0.000000   0.000000  -0.000002  -0.000000
    44  H    0.000000   0.000000  -0.000000  -0.000000  -0.000005   0.000000
    45  H    0.000000  -0.000000  -0.000000  -0.000001   0.000098   0.000002
    46  H   -0.000000   0.000000  -0.000000   0.000000  -0.000000   0.000000
               7          8          9         10         11         12
     1  C    0.343765   0.003683  -0.000129  -0.000014  -0.000131  -0.000000
     2  O   -0.079842  -0.000098   0.000000   0.000000   0.000000   0.000000
     3  C   -0.131159  -0.037912   0.003016   0.000399   0.002958   0.000004
     4  C    0.002499   0.358546  -0.033485  -0.014625  -0.031472   0.000282
     5  C   -0.036794  -0.066120  -0.011223  -0.037153   0.365179   0.003608
     6  C    0.280310   0.004933  -0.000259   0.004064  -0.048248  -0.000133
     7  C    5.349926  -0.000109   0.000036  -0.000091   0.004514   0.000002
     8  C   -0.000109   5.156292   0.335630  -0.041588  -0.015412   0.003690
     9  C    0.000036   0.335630   5.096575   0.368615  -0.043333  -0.040374
    10  C   -0.000091  -0.041588   0.368615   5.016016   0.368791   0.364662
    11  C    0.004514  -0.015412  -0.043333   0.368791   5.045019  -0.037949
    12  C    0.000002   0.003690  -0.040374   0.364662  -0.037949   5.105413
    13  C    0.000000  -0.000127   0.004208  -0.026608  -0.011652   0.345108
    14  C   -0.000004  -0.000011  -0.000071  -0.011278  -0.038553  -0.048251
    15  C    0.000256   0.000372   0.004163  -0.037942   0.365067  -0.017078
    16  C   -0.000000   0.000034  -0.002977  -0.033214   0.004139   0.361588
    17  C    0.000000  -0.000000   0.000075   0.004029  -0.000163  -0.060809
    18  C   -0.000000   0.000001  -0.000105   0.004067   0.000152  -0.062594
    19  C    0.000000  -0.000000   0.000141  -0.005203  -0.002590  -0.056736
    20  O    0.000000  -0.000000   0.000000  -0.000066  -0.000003   0.003809
    21  H    0.006211  -0.006914   0.000204  -0.000000  -0.000076   0.000000
    22  H   -0.004874   0.001002  -0.000540  -0.006542  -0.043775   0.000062
    23  H   -0.039730  -0.000013  -0.000033   0.000128  -0.002752  -0.000001
    24  H   -0.030489  -0.000106  -0.000007  -0.000081  -0.008599  -0.000001
    25  H    0.367431  -0.000030  -0.000002   0.000002   0.000018   0.000000
    26  H    0.370201   0.000008   0.000000   0.000001  -0.000067  -0.000000
    27  H    0.000010   0.379411  -0.030596   0.003947  -0.000157  -0.000098
    28  H   -0.000085   0.377175  -0.038265  -0.003690  -0.000792  -0.000034
    29  H   -0.000003  -0.035470   0.379804  -0.039181  -0.008763  -0.004685
    30  H   -0.000000  -0.031776   0.378813  -0.032723   0.005029  -0.006031
    31  H   -0.000014   0.000555  -0.048551   0.380773  -0.050608  -0.043110
    32  H   -0.000133  -0.000192  -0.007249  -0.048180   0.376487  -0.003398
    33  H   -0.000000   0.000113  -0.006318  -0.045400  -0.005268   0.380792
    34  H   -0.000000   0.000000  -0.000042  -0.000351  -0.003446  -0.006495
    35  H   -0.000000  -0.000000   0.000010  -0.000098   0.004162   0.006437
    36  H   -0.000086  -0.000011  -0.000031  -0.002710  -0.043844  -0.000241
    37  H    0.000120  -0.000010  -0.000118   0.004040  -0.029062   0.000102
    38  H    0.000000  -0.000014   0.001170  -0.001237  -0.000078  -0.026578
    39  H   -0.000000  -0.000024  -0.000446  -0.004496   0.000077  -0.039262
    40  H   -0.000000  -0.000000  -0.000003  -0.000060   0.000003   0.001584
    41  H   -0.000000  -0.000000   0.000001  -0.000124   0.000002   0.003229
    42  H   -0.000000  -0.000000   0.000007  -0.000249  -0.000010  -0.002706
    43  H    0.000000  -0.000000  -0.000019  -0.000099   0.000030  -0.003999
    44  H   -0.000000  -0.000000   0.000000  -0.000044   0.000099   0.005693
    45  H   -0.000000   0.000010  -0.000025   0.002100  -0.000540  -0.006086
    46  H    0.000000   0.000000   0.000000  -0.000005   0.000001   0.000414
              13         14         15         16         17         18
     1  C   -0.000000   0.000000  -0.000002  -0.000000  -0.000000   0.000000
     2  O    0.000000  -0.000000  -0.000000  -0.000000   0.000000  -0.000000
     3  C    0.000000   0.000001  -0.000103  -0.000000  -0.000000  -0.000000
     4  C    0.000003  -0.000084   0.004356  -0.000002   0.000000   0.000000
     5  C    0.000053   0.003598  -0.041055  -0.000099   0.000001   0.000004
     6  C   -0.000001   0.000291  -0.005108   0.000001  -0.000000   0.000000
     7  C    0.000000  -0.000004   0.000256  -0.000000   0.000000  -0.000000
     8  C   -0.000127  -0.000011   0.000372   0.000034  -0.000000   0.000001
     9  C    0.004208  -0.000071   0.004163  -0.002977   0.000075  -0.000105
    10  C   -0.026608  -0.011278  -0.037942  -0.033214   0.004029   0.004067
    11  C   -0.011652  -0.038553   0.365067   0.004139  -0.000163   0.000152
    12  C    0.345108  -0.048251  -0.017078   0.361588  -0.060809  -0.062594
    13  C    5.120717   0.373068  -0.038360  -0.060934  -0.058185   0.370513
    14  C    0.373068   5.126682   0.351774   0.005823   0.006775  -0.045364
    15  C   -0.038360   0.351774   5.095396   0.000229  -0.000232   0.004368
    16  C   -0.060934   0.005823   0.000229   5.110393   0.338810  -0.060816
    17  C   -0.058185   0.006775  -0.000232   0.338810   5.168996   0.357440
    18  C    0.370513  -0.045364   0.004368  -0.060816   0.357440   4.802222
    19  C    0.339294  -0.069838  -0.003327  -0.003046  -0.011512  -0.056075
    20  O   -0.049025  -0.000597   0.000028   0.002208  -0.045720   0.250606
    21  H   -0.000000  -0.000000   0.000002  -0.000000  -0.000000  -0.000000
    22  H   -0.000038   0.000010  -0.005831  -0.000003   0.000000  -0.000000
    23  H   -0.000001  -0.000059  -0.002406   0.000000   0.000000  -0.000000
    24  H   -0.000003   0.000111   0.004571  -0.000000  -0.000000   0.000000
    25  H   -0.000000  -0.000000  -0.000030   0.000000  -0.000000  -0.000000
    26  H   -0.000000  -0.000000   0.000000   0.000000  -0.000000   0.000000
    27  H    0.000001  -0.000000   0.000008  -0.000001  -0.000000  -0.000000
    28  H    0.000002   0.000000  -0.000007  -0.000008  -0.000000  -0.000000
    29  H   -0.000015  -0.000002   0.000088  -0.000374  -0.000016  -0.000004
    30  H    0.000023  -0.000004  -0.000125   0.003353  -0.000014  -0.000007
    31  H   -0.008164   0.000377  -0.001850  -0.004699   0.000003   0.000035
    32  H   -0.001124  -0.000234  -0.046631  -0.000074   0.000005  -0.000056
    33  H   -0.055060  -0.006417  -0.000797  -0.044143  -0.002175  -0.002484
    34  H   -0.038243   0.377307  -0.035983   0.000043   0.000066  -0.005662
    35  H   -0.035952   0.369636  -0.033659  -0.000219  -0.000016  -0.003456
    36  H   -0.007844  -0.034685   0.381190  -0.000014   0.000002  -0.000043
    37  H    0.004756  -0.034249   0.380574   0.000008   0.000003  -0.000078
    38  H    0.005404  -0.000135  -0.000005   0.378096  -0.026967   0.002410
    39  H   -0.005527   0.000005  -0.000018   0.384128  -0.032760   0.001897
    40  H    0.004044  -0.000139   0.000003  -0.030562   0.378421  -0.027108
    41  H   -0.003596  -0.000125   0.000004  -0.025917   0.371717  -0.031192
    42  H   -0.068554  -0.010311   0.000104   0.003541  -0.052322   0.388791
    43  H   -0.029071   0.004735   0.000046   0.001632   0.003688  -0.005791
    44  H   -0.030700  -0.005360  -0.000580  -0.000187  -0.000015  -0.006246
    45  H   -0.032164  -0.005214   0.001865  -0.000082  -0.000297   0.005035
    46  H   -0.005832   0.002786  -0.000098  -0.000337   0.007013  -0.029755
              19         20         21         22         23         24
     1  C   -0.000000  -0.000000  -0.028744   0.000731  -0.003087   0.003517
     2  O    0.000000   0.000000   0.000931   0.000010   0.000050  -0.000073
     3  C    0.000000   0.000000   0.360577  -0.003597   0.003700  -0.000359
     4  C    0.000001   0.000000  -0.045453  -0.044641  -0.004302   0.004534
     5  C    0.000032  -0.000000   0.004441   0.366025  -0.043086  -0.029939
     6  C    0.000000   0.000000  -0.000411  -0.034985   0.385105   0.376034
     7  C    0.000000   0.000000   0.006211  -0.004874  -0.039730  -0.030489
     8  C   -0.000000  -0.000000  -0.006914   0.001002  -0.000013  -0.000106
     9  C    0.000141   0.000000   0.000204  -0.000540  -0.000033  -0.000007
    10  C   -0.005203  -0.000066  -0.000000  -0.006542   0.000128  -0.000081
    11  C   -0.002590  -0.000003  -0.000076  -0.043775  -0.002752  -0.008599
    12  C   -0.056736   0.003809   0.000000   0.000062  -0.000001  -0.000001
    13  C    0.339294  -0.049025  -0.000000  -0.000038  -0.000001  -0.000003
    14  C   -0.069838  -0.000597  -0.000000   0.000010  -0.000059   0.000111
    15  C   -0.003327   0.000028   0.000002  -0.005831  -0.002406   0.004571
    16  C   -0.003046   0.002208  -0.000000  -0.000003   0.000000  -0.000000
    17  C   -0.011512  -0.045720  -0.000000   0.000000   0.000000  -0.000000
    18  C   -0.056075   0.250606  -0.000000  -0.000000  -0.000000   0.000000
    19  C    5.212709   0.004674   0.000000  -0.000072  -0.000000  -0.000002
    20  O    0.004674   8.277701   0.000000  -0.000000  -0.000000   0.000000
    21  H    0.000000   0.000000   0.530530  -0.000208  -0.000077   0.000012
    22  H   -0.000072  -0.000000  -0.000208   0.591245   0.005489  -0.003616
    23  H   -0.000000  -0.000000  -0.000077   0.005489   0.558220  -0.031012
    24  H   -0.000002   0.000000   0.000012  -0.003616  -0.031012   0.553282
    25  H   -0.000000   0.000000  -0.000172   0.004896   0.004933  -0.004862
    26  H    0.000000  -0.000000  -0.000099  -0.000165  -0.003326  -0.002284
    27  H    0.000000   0.000000   0.004864  -0.000100   0.000000   0.000002
    28  H   -0.000002   0.000000   0.000258   0.001458   0.000002   0.000008
    29  H   -0.000001   0.000000  -0.000006   0.000088  -0.000004   0.000001
    30  H   -0.000006  -0.000000  -0.000007  -0.000014   0.000000   0.000000
    31  H    0.002212  -0.000001  -0.000002   0.006412   0.000007   0.000002
    32  H    0.000060   0.000000  -0.000021   0.006077   0.004715   0.000077
    33  H    0.006526   0.000052  -0.000000   0.000003  -0.000001  -0.000000
    34  H    0.006109  -0.000079  -0.000000   0.000003   0.000004   0.000008
    35  H   -0.006448   0.001283   0.000000  -0.000001   0.000000   0.000004
    36  H    0.003052  -0.000002  -0.000000   0.004633   0.000252   0.001788
    37  H    0.000045   0.000000   0.000000   0.000005   0.001249  -0.000586
    38  H    0.000083  -0.000032  -0.000000   0.000000   0.000000  -0.000000
    39  H    0.002366  -0.000015   0.000000  -0.000002  -0.000000  -0.000000
    40  H    0.000175   0.001750   0.000000  -0.000000  -0.000000   0.000000
    41  H    0.001626   0.003063  -0.000000  -0.000000   0.000000   0.000000
    42  H    0.007888  -0.041423   0.000000  -0.000000  -0.000000   0.000000
    43  H    0.380503  -0.000063  -0.000000   0.000001   0.000000   0.000000
    44  H    0.374181   0.005890   0.000000   0.000001   0.000000  -0.000000
    45  H    0.374557   0.000363  -0.000000   0.000208   0.000000  -0.000004
    46  H   -0.001441   0.242545   0.000000  -0.000000   0.000000   0.000000
              25         26         27         28         29         30
     1  C   -0.028258  -0.025323   0.000264  -0.000144  -0.000000   0.000001
     2  O   -0.000784   0.002709  -0.000001   0.000006  -0.000000  -0.000000
     3  C    0.002065   0.004970  -0.002453  -0.008560  -0.000189  -0.000086
     4  C   -0.001320  -0.000159  -0.039713  -0.039560  -0.002879   0.004028
     5  C   -0.003533   0.004111   0.004043   0.000655   0.000554  -0.000016
     6  C   -0.038159  -0.030525  -0.000143   0.000100   0.000008   0.000010
     7  C    0.367431   0.370201   0.000010  -0.000085  -0.000003  -0.000000
     8  C   -0.000030   0.000008   0.379411   0.377175  -0.035470  -0.031776
     9  C   -0.000002   0.000000  -0.030596  -0.038265   0.379804   0.378813
    10  C    0.000002   0.000001   0.003947  -0.003690  -0.039181  -0.032723
    11  C    0.000018  -0.000067  -0.000157  -0.000792  -0.008763   0.005029
    12  C    0.000000  -0.000000  -0.000098  -0.000034  -0.004685  -0.006031
    13  C   -0.000000  -0.000000   0.000001   0.000002  -0.000015   0.000023
    14  C   -0.000000  -0.000000  -0.000000   0.000000  -0.000002  -0.000004
    15  C   -0.000030   0.000000   0.000008  -0.000007   0.000088  -0.000125
    16  C    0.000000   0.000000  -0.000001  -0.000008  -0.000374   0.003353
    17  C   -0.000000  -0.000000  -0.000000  -0.000000  -0.000016  -0.000014
    18  C   -0.000000   0.000000  -0.000000  -0.000000  -0.000004  -0.000007
    19  C   -0.000000   0.000000   0.000000  -0.000002  -0.000001  -0.000006
    20  O    0.000000  -0.000000   0.000000   0.000000   0.000000  -0.000000
    21  H   -0.000172  -0.000099   0.004864   0.000258  -0.000006  -0.000007
    22  H    0.004896  -0.000165  -0.000100   0.001458   0.000088  -0.000014
    23  H    0.004933  -0.003326   0.000000   0.000002  -0.000004   0.000000
    24  H   -0.004862  -0.002284   0.000002   0.000008   0.000001   0.000000
    25  H    0.534432  -0.020576  -0.000000   0.000010   0.000000   0.000000
    26  H   -0.020576   0.503683   0.000000  -0.000001  -0.000000   0.000000
    27  H   -0.000000   0.000000   0.528370  -0.026220  -0.003648  -0.001232
    28  H    0.000010  -0.000001  -0.026220   0.550294   0.004696  -0.005459
    29  H    0.000000  -0.000000  -0.003648   0.004696   0.565226  -0.031351
    30  H    0.000000   0.000000  -0.001232  -0.005459  -0.031351   0.552492
    31  H   -0.000001   0.000000   0.000020   0.003878   0.005602  -0.002849
    32  H    0.000008  -0.000001  -0.000082   0.000131   0.006629   0.000127
    33  H   -0.000000   0.000000   0.000002   0.000004   0.004944  -0.000073
    34  H    0.000000   0.000000  -0.000000  -0.000000  -0.000007   0.000001
    35  H    0.000000   0.000000   0.000000  -0.000000   0.000000  -0.000000
    36  H    0.000008   0.000001  -0.000000  -0.000001  -0.000001   0.000004
    37  H    0.000008   0.000000  -0.000000   0.000000  -0.000008   0.000002
    38  H    0.000000  -0.000000   0.000001   0.000003   0.000185   0.000813
    39  H   -0.000000   0.000000   0.000001  -0.000002   0.000053   0.000402
    40  H    0.000000   0.000000   0.000000  -0.000000  -0.000000   0.000002
    41  H   -0.000000   0.000000   0.000000   0.000000  -0.000000   0.000001
    42  H   -0.000000   0.000000   0.000000  -0.000000  -0.000003  -0.000000
    43  H    0.000000  -0.000000  -0.000000   0.000000   0.000000   0.000000
    44  H    0.000000  -0.000000   0.000000   0.000000   0.000000  -0.000000
    45  H    0.000000   0.000000  -0.000000  -0.000003  -0.000001   0.000002
    46  H   -0.000000   0.000000   0.000000   0.000000   0.000000   0.000000
              31         32         33         34         35         36
     1  C    0.000004   0.000037   0.000000   0.000000   0.000000   0.000001
     2  O    0.000000  -0.000000   0.000000   0.000000  -0.000000  -0.000000
     3  C   -0.000215   0.000076  -0.000001  -0.000000  -0.000000  -0.000007
     4  C   -0.003980  -0.003530  -0.000064   0.000003   0.000001   0.000206
     5  C   -0.002421  -0.042799   0.000134   0.000043  -0.000109  -0.002806
     6  C    0.000215  -0.004038   0.000002  -0.000028   0.000004  -0.002669
     7  C   -0.000014  -0.000133  -0.000000  -0.000000  -0.000000  -0.000086
     8  C    0.000555  -0.000192   0.000113   0.000000  -0.000000  -0.000011
     9  C   -0.048551  -0.007249  -0.006318  -0.000042   0.000010  -0.000031
    10  C    0.380773  -0.048180  -0.045400  -0.000351  -0.000098  -0.002710
    11  C   -0.050608   0.376487  -0.005268  -0.003446   0.004162  -0.043844
    12  C   -0.043110  -0.003398   0.380792  -0.006495   0.006437  -0.000241
    13  C   -0.008164  -0.001124  -0.055060  -0.038243  -0.035952  -0.007844
    14  C    0.000377  -0.000234  -0.006417   0.377307   0.369636  -0.034685
    15  C   -0.001850  -0.046631  -0.000797  -0.035983  -0.033659   0.381190
    16  C   -0.004699  -0.000074  -0.044143   0.000043  -0.000219  -0.000014
    17  C    0.000003   0.000005  -0.002175   0.000066  -0.000016   0.000002
    18  C    0.000035  -0.000056  -0.002484  -0.005662  -0.003456  -0.000043
    19  C    0.002212   0.000060   0.006526   0.006109  -0.006448   0.003052
    20  O   -0.000001   0.000000   0.000052  -0.000079   0.001283  -0.000002
    21  H   -0.000002  -0.000021  -0.000000  -0.000000   0.000000  -0.000000
    22  H    0.006412   0.006077   0.000003   0.000003  -0.000001   0.004633
    23  H    0.000007   0.004715  -0.000001   0.000004   0.000000   0.000252
    24  H    0.000002   0.000077  -0.000000   0.000008   0.000004   0.001788
    25  H   -0.000001   0.000008  -0.000000   0.000000   0.000000   0.000008
    26  H    0.000000  -0.000001   0.000000   0.000000   0.000000   0.000001
    27  H    0.000020  -0.000082   0.000002  -0.000000   0.000000  -0.000000
    28  H    0.003878   0.000131   0.000004  -0.000000  -0.000000  -0.000001
    29  H    0.005602   0.006629   0.004944  -0.000007   0.000000  -0.000001
    30  H   -0.002849   0.000127  -0.000073   0.000001  -0.000000   0.000004
    31  H    0.610074   0.006085   0.006192   0.000039  -0.000003   0.001215
    32  H    0.006085   0.609906   0.004058   0.002893  -0.000087   0.005566
    33  H    0.006192   0.004058   0.622517   0.005387   0.000027   0.000063
    34  H    0.000039   0.002893   0.005387   0.574404  -0.032302   0.004872
    35  H   -0.000003  -0.000087   0.000027  -0.032302   0.589143  -0.004650
    36  H    0.001215   0.005566   0.000063   0.004872  -0.004650   0.574698
    37  H   -0.000089  -0.006386  -0.000084  -0.004936  -0.001703  -0.033527
    38  H   -0.000142   0.000000  -0.006299  -0.000002   0.000003   0.000000
    39  H    0.004679   0.000003   0.005327  -0.000005   0.000004  -0.000003
    40  H    0.000001  -0.000000   0.000448  -0.000013   0.000001  -0.000000
    41  H   -0.000013  -0.000000  -0.000044   0.000001  -0.000000  -0.000000
    42  H   -0.000012  -0.000006   0.005281   0.006375   0.000024  -0.000003
    43  H    0.000115   0.000001  -0.000059  -0.000130  -0.000023  -0.000014
    44  H   -0.000025   0.000002  -0.000112   0.000049   0.004946   0.000432
    45  H    0.002879  -0.000010   0.000009  -0.000068  -0.000145   0.001338
    46  H    0.000000  -0.000000  -0.000004  -0.000060   0.003397  -0.000002
              37         38         39         40         41         42
     1  C   -0.000011   0.000000   0.000000   0.000000   0.000000   0.000000
     2  O   -0.000000  -0.000000  -0.000000  -0.000000  -0.000000  -0.000000
     3  C    0.000019   0.000000  -0.000000   0.000000  -0.000000  -0.000000
     4  C   -0.000195  -0.000000  -0.000001   0.000000  -0.000000   0.000000
     5  C   -0.006507   0.000001   0.000001  -0.000000  -0.000000  -0.000000
     6  C    0.003224  -0.000000   0.000000   0.000000   0.000000  -0.000000
     7  C    0.000120   0.000000  -0.000000  -0.000000  -0.000000  -0.000000
     8  C   -0.000010  -0.000014  -0.000024  -0.000000  -0.000000  -0.000000
     9  C   -0.000118   0.001170  -0.000446  -0.000003   0.000001   0.000007
    10  C    0.004040  -0.001237  -0.004496  -0.000060  -0.000124  -0.000249
    11  C   -0.029062  -0.000078   0.000077   0.000003   0.000002  -0.000010
    12  C    0.000102  -0.026578  -0.039262   0.001584   0.003229  -0.002706
    13  C    0.004756   0.005404  -0.005527   0.004044  -0.003596  -0.068554
    14  C   -0.034249  -0.000135   0.000005  -0.000139  -0.000125  -0.010311
    15  C    0.380574  -0.000005  -0.000018   0.000003   0.000004   0.000104
    16  C    0.000008   0.378096   0.384128  -0.030562  -0.025917   0.003541
    17  C    0.000003  -0.026967  -0.032760   0.378421   0.371717  -0.052322
    18  C   -0.000078   0.002410   0.001897  -0.027108  -0.031192   0.388791
    19  C    0.000045   0.000083   0.002366   0.000175   0.001626   0.007888
    20  O    0.000000  -0.000032  -0.000015   0.001750   0.003063  -0.041423
    21  H    0.000000  -0.000000   0.000000   0.000000  -0.000000   0.000000
    22  H    0.000005   0.000000  -0.000002  -0.000000  -0.000000  -0.000000
    23  H    0.001249   0.000000  -0.000000  -0.000000   0.000000  -0.000000
    24  H   -0.000586  -0.000000  -0.000000   0.000000   0.000000   0.000000
    25  H    0.000008   0.000000  -0.000000   0.000000  -0.000000  -0.000000
    26  H    0.000000  -0.000000   0.000000   0.000000   0.000000   0.000000
    27  H   -0.000000   0.000001   0.000001   0.000000   0.000000   0.000000
    28  H    0.000000   0.000003  -0.000002  -0.000000   0.000000  -0.000000
    29  H   -0.000008   0.000185   0.000053  -0.000000  -0.000000  -0.000003
    30  H    0.000002   0.000813   0.000402   0.000002   0.000001  -0.000000
    31  H   -0.000089  -0.000142   0.004679   0.000001  -0.000013  -0.000012
    32  H   -0.006386   0.000000   0.000003  -0.000000  -0.000000  -0.000006
    33  H   -0.000084  -0.006299   0.005327   0.000448  -0.000044   0.005281
    34  H   -0.004936  -0.000002  -0.000005  -0.000013   0.000001   0.006375
    35  H   -0.001703   0.000003   0.000004   0.000001  -0.000000   0.000024
    36  H   -0.033527   0.000000  -0.000003  -0.000000  -0.000000  -0.000003
    37  H    0.556108  -0.000000  -0.000000  -0.000000  -0.000000  -0.000005
    38  H   -0.000000   0.549076  -0.034381  -0.006132   0.002379  -0.000128
    39  H   -0.000000  -0.034381   0.565863   0.003455  -0.008867  -0.000169
    40  H   -0.000000  -0.006132   0.003455   0.539429  -0.027853  -0.006787
    41  H   -0.000000   0.002379  -0.008867  -0.027853   0.528868   0.005058
    42  H   -0.000005  -0.000128  -0.000169  -0.006787   0.005058   0.637174
    43  H   -0.000001   0.000026   0.000733  -0.000031   0.000934   0.000053
    44  H   -0.000036  -0.000001   0.000009  -0.000004   0.000081   0.000104
    45  H    0.000052  -0.000017   0.000097  -0.000000   0.000037  -0.000070
    46  H    0.000003   0.000004   0.000004  -0.000208  -0.000057  -0.001488
              43         44         45         46
     1  C   -0.000000   0.000000   0.000000  -0.000000
     2  O    0.000000   0.000000  -0.000000   0.000000
     3  C    0.000000  -0.000000  -0.000000  -0.000000
     4  C    0.000000  -0.000000  -0.000001   0.000000
     5  C   -0.000002  -0.000005   0.000098  -0.000000
     6  C   -0.000000   0.000000   0.000002   0.000000
     7  C    0.000000  -0.000000  -0.000000   0.000000
     8  C   -0.000000  -0.000000   0.000010   0.000000
     9  C   -0.000019   0.000000  -0.000025   0.000000
    10  C   -0.000099  -0.000044   0.002100  -0.000005
    11  C    0.000030   0.000099  -0.000540   0.000001
    12  C   -0.003999   0.005693  -0.006086   0.000414
    13  C   -0.029071  -0.030700  -0.032164  -0.005832
    14  C    0.004735  -0.005360  -0.005214   0.002786
    15  C    0.000046  -0.000580   0.001865  -0.000098
    16  C    0.001632  -0.000187  -0.000082  -0.000337
    17  C    0.003688  -0.000015  -0.000297   0.007013
    18  C   -0.005791  -0.006246   0.005035  -0.029755
    19  C    0.380503   0.374181   0.374557  -0.001441
    20  O   -0.000063   0.005890   0.000363   0.242545
    21  H   -0.000000   0.000000  -0.000000   0.000000
    22  H    0.000001   0.000001   0.000208  -0.000000
    23  H    0.000000   0.000000   0.000000   0.000000
    24  H    0.000000  -0.000000  -0.000004   0.000000
    25  H    0.000000   0.000000   0.000000  -0.000000
    26  H   -0.000000  -0.000000   0.000000   0.000000
    27  H   -0.000000   0.000000  -0.000000   0.000000
    28  H    0.000000   0.000000  -0.000003   0.000000
    29  H    0.000000   0.000000  -0.000001   0.000000
    30  H    0.000000  -0.000000   0.000002   0.000000
    31  H    0.000115  -0.000025   0.002879   0.000000
    32  H    0.000001   0.000002  -0.000010  -0.000000
    33  H   -0.000059  -0.000112   0.000009  -0.000004
    34  H   -0.000130   0.000049  -0.000068  -0.000060
    35  H   -0.000023   0.004946  -0.000145   0.003397
    36  H   -0.000014   0.000432   0.001338  -0.000002
    37  H   -0.000001  -0.000036   0.000052   0.000003
    38  H    0.000026  -0.000001  -0.000017   0.000004
    39  H    0.000733   0.000009   0.000097   0.000004
    40  H   -0.000031  -0.000004  -0.000000  -0.000208
    41  H    0.000934   0.000081   0.000037  -0.000057
    42  H    0.000053   0.000104  -0.000070  -0.001488
    43  H    0.525285  -0.024927  -0.028660   0.000098
    44  H   -0.024927   0.546764  -0.028895   0.001812
    45  H   -0.028660  -0.028895   0.554694  -0.000111
    46  H    0.000098   0.001812  -0.000111   0.374939
 Mulliken charges:
               1
     1  C    0.452368
     2  O   -0.517678
     3  C   -0.267787
     4  C    0.159440
     5  C   -0.181313
     6  C   -0.331777
     7  C   -0.401868
     8  C   -0.385518
     9  C   -0.308268
    10  C   -0.128584
    11  C   -0.114385
    12  C   -0.119831
    13  C   -0.000412
    14  C   -0.311995
    15  C   -0.323236
    16  C   -0.326318
    17  C   -0.345842
    18  C    0.149293
    19  C   -0.499932
    20  O   -0.656946
    21  H    0.174161
    22  H    0.160643
    23  H    0.166036
    24  H    0.168074
    25  H    0.183914
    26  H    0.196841
    27  H    0.183500
    28  H    0.184152
    29  H    0.158733
    30  H    0.166671
    31  H    0.135375
    32  H    0.141286
    33  H    0.132924
    34  H    0.150246
    35  H    0.139791
    36  H    0.153875
    37  H    0.167271
    38  H    0.162495
    39  H    0.156874
    40  H    0.169585
    41  H    0.180786
    42  H    0.129845
    43  H    0.175009
    44  H    0.157074
    45  H    0.159047
    46  H    0.406381
 Sum of Mulliken charges =  -0.00000
 Mulliken charges with hydrogens summed into heavy atoms:
               1
     1  C    0.452368
     2  O   -0.517678
     3  C   -0.093625
     4  C    0.159440
     5  C   -0.020670
     6  C    0.002332
     7  C   -0.021113
     8  C   -0.017866
     9  C    0.017135
    10  C    0.006791
    11  C    0.026901
    12  C    0.013093
    13  C   -0.000412
    14  C   -0.021959
    15  C   -0.002090
    16  C   -0.006949
    17  C    0.004529
    18  C    0.279138
    19  C   -0.008802
    20  O   -0.250564
 Electronic spatial extent (au):  <R**2>=           6871.0041
 Charge=             -0.0000 electrons
 Dipole moment (field-independent basis, Debye):
    X=             -3.4711    Y=             -0.1688    Z=             -0.0353  Tot=              3.4754
 Quadrupole moment (field-independent basis, Debye-Ang):
   XX=           -174.3080   YY=           -111.6557   ZZ=           -119.0131
   XY=              0.4902   XZ=              3.0342   YZ=              0.4785
 Traceless Quadrupole moment (field-independent basis, Debye-Ang):
   XX=            -39.3157   YY=             23.3366   ZZ=             15.9791
   XY=              0.4902   XZ=              3.0342   YZ=              0.4785
 Octapole moment (field-independent basis, Debye-Ang**2):
  XXX=           -191.5893  YYY=            -13.0298  ZZZ=              0.4210  XYY=             -4.5086
  XXY=              3.0694  XXZ=             -4.0384  XZZ=             -0.3601  YZZ=             -1.5997
  YYZ=             -1.7787  XYZ=             -2.5472
 Hexadecapole moment (field-independent basis, Debye-Ang**3):
 XXXX=          -9600.8769 YYYY=          -1401.6483 ZZZZ=           -403.7282 XXXY=            -20.1276
 XXXZ=             40.8472 YYYX=             83.5826 YYYZ=             -2.8059 ZZZX=             10.4491
 ZZZY=              4.2296 XXYY=          -1291.6433 XXZZ=          -1228.1930 YYZZ=           -310.5884
 XXYZ=              5.3321 YYXZ=              2.0121 ZZXY=             -4.9145
 N-N= 1.665405126745D+03 E-N=-5.307602306556D+03  KE= 8.439439173620D+02

 **********************************************************************

            Electrostatic Properties Using The SCF Density.

 **********************************************************************

       Atomic Center    1 is at   4.664302 -0.181313  0.019708
       Atomic Center    2 is at   5.915841 -0.132327 -0.010759
       Atomic Center    3 is at   3.851298  0.974239 -0.174713
       Atomic Center    4 is at   2.506212  0.929419  0.026445
       Atomic Center    5 is at   1.770541 -0.375437  0.241387
       Atomic Center    6 is at   2.602785 -1.577931 -0.203536
       Atomic Center    7 is at   4.013437 -1.495615  0.351111
       Atomic Center    8 is at   1.729077  2.192836  0.162495
       Atomic Center    9 is at   0.284805  2.132778 -0.338393
       Atomic Center   10 is at  -0.420451  0.860085  0.131985
       Atomic Center   11 is at   0.373805 -0.345956 -0.415451
       Atomic Center   12 is at  -1.876355  0.783622 -0.306932
       Atomic Center   13 is at  -2.549682 -0.560707  0.031622
       Atomic Center   14 is at  -1.809625 -1.678009 -0.702862
       Atomic Center   15 is at  -0.332742 -1.707547 -0.296073
       Atomic Center   16 is at  -2.870925  1.825246  0.224103
       Atomic Center   17 is at  -4.258082  1.173584 -0.032557
       Atomic Center   18 is at  -3.967295 -0.271356 -0.493293
       Atomic Center   19 is at  -2.605622 -0.859408  1.540180
       Atomic Center   20 is at  -4.979562 -1.157800 -0.037913
       Atomic Center   21 is at   4.366680  1.918712 -0.326890
       Atomic Center   22 is at   1.622137 -0.439193  1.334047
       Atomic Center   23 is at   2.637865 -1.611271 -1.301780
       Atomic Center   24 is at   2.136254 -2.508649  0.131216
       Atomic Center   25 is at   3.989295 -1.561725  1.449521
       Atomic Center   26 is at   4.647267 -2.309865 -0.015469
       Atomic Center   27 is at   2.273790  3.020184 -0.303139
       Atomic Center   28 is at   1.744402  2.408131  1.248382
       Atomic Center   29 is at   0.268741  2.162809 -1.436483
       Atomic Center   30 is at  -0.247014  3.022709  0.007644
       Atomic Center   31 is at  -0.382038  0.840126  1.232055
       Atomic Center   32 is at   0.520490 -0.159155 -1.492888
       Atomic Center   33 is at  -1.884897  0.860159 -1.407500
       Atomic Center   34 is at  -1.892703 -1.510652 -1.786092
       Atomic Center   35 is at  -2.254977 -2.658915 -0.491331
       Atomic Center   36 is at  -0.243940 -2.086180  0.732237
       Atomic Center   37 is at   0.186415 -2.432272 -0.931723
       Atomic Center   38 is at  -2.760213  2.799087 -0.257868
       Atomic Center   39 is at  -2.704067  1.993126  1.294520
       Atomic Center   40 is at  -4.832369  1.716584 -0.789466
       Atomic Center   41 is at  -4.870710  1.142695  0.873913
       Atomic Center   42 is at  -3.928701 -0.301719 -1.591315
       Atomic Center   43 is at  -3.229477 -0.140849  2.078958
       Atomic Center   44 is at  -3.030845 -1.855330  1.699537
       Atomic Center   45 is at  -1.612825 -0.843073  2.000592
       Atomic Center   46 is at  -4.641693 -2.055642 -0.152662
 -----------------------------------------------------------------

              Electrostatic Properties (Atomic Units)

 -----------------------------------------------------------------
    Center     Electric         -------- Electric Field --------
               Potential          X             Y             Z
 -----------------------------------------------------------------
    1 Atom    -14.673987      0.005966     -0.002989     -0.000502
    2 Atom    -22.356191      0.103130      0.003752     -0.002858
    3 Atom    -14.746069     -0.009859      0.000228      0.001725
    4 Atom    -14.706928      0.012526     -0.000205     -0.002682
    5 Atom    -14.716513     -0.002250     -0.003678     -0.001763
    6 Atom    -14.731764     -0.000076     -0.001092     -0.000060
    7 Atom    -14.740630      0.000946     -0.000668     -0.002305
    8 Atom    -14.723317     -0.001394      0.002590     -0.000699
    9 Atom    -14.730313     -0.002851     -0.001675     -0.000294
   10 Atom    -14.728215     -0.001140     -0.000361     -0.001067
   11 Atom    -14.723288     -0.001795      0.001102      0.000357
   12 Atom    -14.734965     -0.000185     -0.001429      0.002632
   13 Atom    -14.730768     -0.001496      0.002165     -0.002157
   14 Atom    -14.733625     -0.001173      0.004027      0.001389
   15 Atom    -14.732090      0.000080     -0.000275      0.000080
   16 Atom    -14.737813      0.001465     -0.000255      0.000248
   17 Atom    -14.743120     -0.002650     -0.001165      0.000876
   18 Atom    -14.692200      0.018108      0.013377     -0.005371
   19 Atom    -14.745324     -0.000602      0.000722     -0.001205
   20 Atom    -22.313643     -0.101560      0.035450      0.042049
   21 Atom     -1.103995      0.016840      0.028112     -0.005177
   22 Atom     -1.101976     -0.006701     -0.005844      0.030740
   23 Atom     -1.116301      0.000678     -0.001753     -0.029569
   24 Atom     -1.116699     -0.013677     -0.025885      0.007717
   25 Atom     -1.105695      0.001144     -0.005295      0.029372
   26 Atom     -1.116150      0.020078     -0.018555     -0.008366
   27 Atom     -1.106809      0.014779      0.023144     -0.013206
   28 Atom     -1.099093     -0.003251      0.009424      0.025801
   29 Atom     -1.115744     -0.000788      0.002527     -0.029844
   30 Atom     -1.116167     -0.016708      0.025649      0.009174
   31 Atom     -1.117778     -0.000852     -0.000783      0.031165
   32 Atom     -1.117708      0.004236      0.004306     -0.030057
   33 Atom     -1.122030     -0.000088      0.002538     -0.030790
   34 Atom     -1.117275     -0.002807      0.002914     -0.029612
   35 Atom     -1.114521     -0.011011     -0.028111      0.004214
   36 Atom     -1.117470      0.002311     -0.011034      0.026936
   37 Atom     -1.118486      0.014553     -0.020479     -0.015971
   38 Atom     -1.123566      0.001855      0.027185     -0.014561
   39 Atom     -1.124070      0.003394      0.004787      0.029400
   40 Atom     -1.127291     -0.016489      0.014335     -0.019101
   41 Atom     -1.126516     -0.018075     -0.002748      0.023285
   42 Atom     -1.131165     -0.000878     -0.001326     -0.033356
   43 Atom     -1.119775     -0.018568      0.016576      0.015467
   44 Atom     -1.118687     -0.012994     -0.024982      0.008696
   45 Atom     -1.117404      0.025267     -0.000621      0.013696
   46 Atom     -0.997762      0.009983     -0.042889     -0.004654
 -----------------------------------------------------------------
 -----------------------------------------------------
    Center         ---- Electric Field Gradient ----
                     XX            YY            ZZ
 -----------------------------------------------------
    1 Atom     -493.275515   -493.221623   -493.933236
    2 Atom    -1217.251304  -1214.692926  -1217.566113
    3 Atom     -493.095565   -493.161048   -493.393076
    4 Atom     -493.178461   -493.273982   -493.840690
    5 Atom     -492.750550   -492.792776   -492.774101
    6 Atom     -492.615519   -492.601258   -492.590911
    7 Atom     -492.708295   -492.723923   -492.730991
    8 Atom     -492.571233   -492.604259   -492.581662
    9 Atom     -492.669455   -492.613041   -492.623031
   10 Atom     -492.754348   -492.776866   -492.761447
   11 Atom     -492.811032   -492.781291   -492.782545
   12 Atom     -492.897337   -492.911593   -492.893104
   13 Atom     -492.921075   -492.936813   -492.974019
   14 Atom     -492.715902   -492.689778   -492.693838
   15 Atom     -492.630197   -492.625147   -492.591808
   16 Atom     -492.651385   -492.590744   -492.572655
   17 Atom     -492.639438   -492.655294   -492.584144
   18 Atom     -492.848083   -492.822842   -492.662532
   19 Atom     -492.535357   -492.546823   -492.584796
   20 Atom    -1214.426135  -1216.009220  -1212.981151
   21 Atom       -1.702737     -1.945513     -1.598253
   22 Atom       -1.624976     -1.620294     -2.013675
   23 Atom       -1.620323     -1.616409     -2.037296
   24 Atom       -1.711309     -1.943000     -1.667943
   25 Atom       -1.598739     -1.600322     -2.017080
   26 Atom       -1.743687     -1.841526     -1.649519
   27 Atom       -1.727874     -1.863848     -1.691951
   28 Atom       -1.598591     -1.615088     -1.986567
   29 Atom       -1.623440     -1.622486     -2.044049
   30 Atom       -1.733168     -1.917148     -1.669584
   31 Atom       -1.638984     -1.636430     -2.049024
   32 Atom       -1.642577     -1.650068     -2.022318
   33 Atom       -1.645288     -1.641841     -2.044678
   34 Atom       -1.627109     -1.633271     -2.032466
   35 Atom       -1.705532     -1.969304     -1.642561
   36 Atom       -1.628982     -1.672726     -1.992909
   37 Atom       -1.729975     -1.818938     -1.773602
   38 Atom       -1.632528     -1.977082     -1.714320
   39 Atom       -1.635617     -1.634005     -2.036607
   40 Atom       -1.741654     -1.733211     -1.833838
   41 Atom       -1.743510     -1.609237     -1.911182
   42 Atom       -1.678860     -1.678430     -2.088162
   43 Atom       -1.742347     -1.794741     -1.713340
   44 Atom       -1.667998     -1.971759     -1.621637
   45 Atom       -1.973584     -1.607682     -1.688603
   46 Atom       -1.539935     -2.036149     -1.432364
 -----------------------------------------------------
 -----------------------------------------------------
    Center         ---- Electric Field Gradient ----
                     XY            XZ            YZ
 -----------------------------------------------------
    1 Atom       -0.014528     -0.005391     -0.158708
    2 Atom       -0.080650      0.031006     -0.634287
    3 Atom       -0.013649     -0.037324     -0.033955
    4 Atom       -0.006903     -0.086084     -0.024340
    5 Atom       -0.027666     -0.013037     -0.000299
    6 Atom        0.026754     -0.003475     -0.023753
    7 Atom       -0.010524     -0.030861      0.003132
    8 Atom        0.022768     -0.023726     -0.009924
    9 Atom       -0.009567     -0.018508      0.022738
   10 Atom       -0.000589      0.009382     -0.004870
   11 Atom       -0.008213     -0.018566     -0.010727
   12 Atom        0.012039     -0.006372      0.003497
   13 Atom        0.002596      0.006949      0.005775
   14 Atom       -0.015128     -0.007151     -0.010379
   15 Atom       -0.019658     -0.011298      0.012075
   16 Atom       -0.006517      0.002296     -0.018822
   17 Atom       -0.020749     -0.016109     -0.040116
   18 Atom       -0.197078      0.101789      0.109274
   19 Atom       -0.005821     -0.003597      0.014736
   20 Atom       -0.313401      0.782242      0.256059
   21 Atom       -0.179573      0.031022      0.057399
   22 Atom       -0.002733      0.056769      0.025863
   23 Atom        0.002729      0.012242     -0.013148
   24 Atom       -0.156954      0.056858      0.113209
   25 Atom       -0.002774      0.011158      0.026571
   26 Atom        0.183989      0.082605     -0.108664
   27 Atom       -0.159498      0.091799      0.141403
   28 Atom        0.002629     -0.002219     -0.078484
   29 Atom       -0.002334     -0.006467      0.010713
   30 Atom        0.172258      0.067071     -0.114122
   31 Atom       -0.000579     -0.014692      0.009041
   32 Atom       -0.009685      0.052069      0.067070
   33 Atom       -0.000845     -0.002979      0.027345
   34 Atom        0.006604     -0.031326      0.063727
   35 Atom       -0.156028      0.035180      0.073953
   36 Atom        0.009159     -0.032831      0.135420
   37 Atom        0.134032      0.118712     -0.166281
   38 Atom       -0.039858      0.019179      0.175801
   39 Atom       -0.010105     -0.062711     -0.062903
   40 Atom        0.112399     -0.158646      0.149599
   41 Atom       -0.005476      0.199304      0.007853
   42 Atom       -0.005219      0.017021     -0.011341
   43 Atom        0.167795      0.123137     -0.140013
   44 Atom       -0.157535      0.023788      0.056022
   45 Atom       -0.006213     -0.165360     -0.001806
   46 Atom        0.208289      0.046533     -0.069667
 -----------------------------------------------------
 -----------------------------------------------------
    Center         ---- Electric Field Gradient ----
                   ----       Eigenvalues       ----
 -----------------------------------------------------
    1 Atom     -493.967127   -493.277328   -493.185918
    2 Atom    -1217.700328  -1217.253585  -1214.556430
    3 Atom     -493.402867   -493.157176   -493.089647
    4 Atom     -493.852778   -493.273034   -493.167319
    5 Atom     -492.807622   -492.776275   -492.733531
    6 Atom     -492.639421   -492.604768   -492.563498
    7 Atom     -492.752960   -492.726222   -492.684027
    8 Atom     -492.616037   -492.598404   -492.542713
    9 Atom     -492.675974   -492.639453   -492.590099
   10 Atom     -492.778488   -492.766675   -492.747498
   11 Atom     -492.823706   -492.781758   -492.769404
   12 Atom     -492.919914   -492.894814   -492.887306
   13 Atom     -492.975669   -492.936715   -492.919523
   14 Atom     -492.726519   -492.693677   -492.679323
   15 Atom     -492.647496   -492.618200   -492.581455
   16 Atom     -492.652078   -492.602212   -492.560493
   17 Atom     -492.687103   -492.626234   -492.565539
   18 Atom     -493.085464   -492.640876   -492.607117
   19 Atom     -492.589886   -492.545956   -492.531134
   20 Atom    -1216.124648  -1214.656653  -1212.635205
   21 Atom       -2.050294     -1.607385     -1.588824
   22 Atom       -2.023472     -1.619037     -1.616436
   23 Atom       -2.038069     -1.621048     -1.614910
   24 Atom       -2.062869     -1.632091     -1.627292
   25 Atom       -2.019071     -1.600598     -1.596472
   26 Atom       -2.031733     -1.602510     -1.600489
   27 Atom       -2.048871     -1.622625     -1.612177
   28 Atom       -2.002475     -1.601917     -1.595854
   29 Atom       -2.044418     -1.625338     -1.620218
   30 Atom       -2.064776     -1.630127     -1.624998
   31 Atom       -2.049746     -1.638778     -1.635914
   32 Atom       -2.041071     -1.638465     -1.635426
   33 Atom       -2.046547     -1.645465     -1.639794
   34 Atom       -2.044839     -1.625825     -1.622181
   35 Atom       -2.057865     -1.633203     -1.626327
   36 Atom       -2.045276     -1.627761     -1.621580
   37 Atom       -2.060943     -1.633382     -1.628189
   38 Atom       -2.069646     -1.628294     -1.625990
   39 Atom       -2.055808     -1.626171     -1.624251
   40 Atom       -2.060073     -1.626091     -1.622539
   41 Atom       -2.043776     -1.611149     -1.609004
   42 Atom       -2.089169     -1.683824     -1.672458
   43 Atom       -2.043621     -1.608574     -1.598233
   44 Atom       -2.047405     -1.612937     -1.601052
   45 Atom       -2.049470     -1.612976     -1.607423
   46 Atom       -2.121607     -1.472008     -1.414834
 -----------------------------------------------------
 -----------------------------------------------------
    Center         ---- Electric Field Gradient ----
                       ( tensor representation )
                   3XX-RR        3YY-RR        3ZZ-RR
 -----------------------------------------------------
    1 Atom        0.201277      0.255169     -0.456445
    2 Atom       -0.747856      1.810522     -1.062666
    3 Atom        0.120998      0.055515     -0.176513
    4 Atom        0.252583      0.157062     -0.409646
    5 Atom        0.021926     -0.020300     -0.001626
    6 Atom       -0.012956      0.001305      0.011652
    7 Atom        0.012775     -0.002853     -0.009922
    8 Atom        0.014485     -0.018541      0.004056
    9 Atom       -0.034279      0.022134      0.012145
   10 Atom        0.009872     -0.012645      0.002773
   11 Atom       -0.019410      0.010332      0.009078
   12 Atom        0.003341     -0.010915      0.007574
   13 Atom        0.022894      0.007156     -0.030050
   14 Atom       -0.016063      0.010062      0.006001
   15 Atom       -0.014479     -0.009430      0.023909
   16 Atom       -0.046457      0.014184      0.032273
   17 Atom       -0.013146     -0.029002      0.042148
   18 Atom       -0.070264     -0.045023      0.115287
   19 Atom        0.020302      0.008836     -0.029137
   20 Atom        0.046034     -1.537052      1.491018
   21 Atom        0.046097     -0.196679      0.150582
   22 Atom        0.128006      0.132688     -0.260694
   23 Atom        0.137686      0.141600     -0.279286
   24 Atom        0.062775     -0.168916      0.106141
   25 Atom        0.139974      0.138392     -0.278366
   26 Atom        0.001224     -0.096615      0.095392
   27 Atom        0.033351     -0.102624      0.069273
   28 Atom        0.134824      0.118328     -0.253152
   29 Atom        0.139885      0.140839     -0.280724
   30 Atom        0.040132     -0.143847      0.103716
   31 Atom        0.135829      0.138382     -0.274211
   32 Atom        0.129077      0.121587     -0.250664
   33 Atom        0.131981      0.135428     -0.267409
   34 Atom        0.137173      0.131011     -0.268184
   35 Atom        0.066934     -0.196838      0.129905
   36 Atom        0.135890      0.092146     -0.228036
   37 Atom        0.044197     -0.044767      0.000570
   38 Atom        0.142115     -0.202439      0.060323
   39 Atom        0.133126      0.134738     -0.267864
   40 Atom        0.027913      0.036357     -0.064270
   41 Atom        0.011133      0.145406     -0.156539
   42 Atom        0.136291      0.136721     -0.273011
   43 Atom        0.007796     -0.044599      0.036803
   44 Atom        0.085800     -0.217961      0.132161
   45 Atom       -0.216961      0.148941      0.068020
   46 Atom        0.129548     -0.366666      0.237119
 -----------------------------------------------------
 -----------------------------------------------------
    Center         ---- Electric Field Gradient ----
                       ( tensor representation )
                   ----       Eigenvalues       ----
 -----------------------------------------------------
    1 Atom       -0.490336      0.199463      0.290873
    2 Atom       -1.196881     -0.750137      1.947018
    3 Atom       -0.186304      0.059387      0.126917
    4 Atom       -0.421735      0.158010      0.263724
    5 Atom       -0.035146     -0.003799      0.038945
    6 Atom       -0.036859     -0.002205      0.039064
    7 Atom       -0.031890     -0.005153      0.037043
    8 Atom       -0.030319     -0.012686      0.043005
    9 Atom       -0.040798     -0.004278      0.045076
   10 Atom       -0.014268     -0.002454      0.016722
   11 Atom       -0.032084      0.009865      0.022218
   12 Atom       -0.019236      0.005864      0.013372
   13 Atom       -0.031700      0.007254      0.024446
   14 Atom       -0.026679      0.006163      0.020517
   15 Atom       -0.031779     -0.002483      0.034262
   16 Atom       -0.047151      0.002716      0.044434
   17 Atom       -0.060811      0.000058      0.060753
   18 Atom       -0.307645      0.136943      0.170702
   19 Atom       -0.034228      0.009703      0.024525
   20 Atom       -1.652479     -0.184485      1.836964
   21 Atom       -0.301460      0.141449      0.160010
   22 Atom       -0.270490      0.133945      0.136545
   23 Atom       -0.280060      0.136961      0.143099
   24 Atom       -0.288785      0.141993      0.146792
   25 Atom       -0.280358      0.138116      0.142242
   26 Atom       -0.286822      0.142401      0.144422
   27 Atom       -0.287647      0.138599      0.149047
   28 Atom       -0.269060      0.131498      0.137562
   29 Atom       -0.281093      0.137986      0.143107
   30 Atom       -0.291475      0.143173      0.148302
   31 Atom       -0.274934      0.136035      0.138899
   32 Atom       -0.269417      0.133189      0.136228
   33 Atom       -0.269278      0.131804      0.137475
   34 Atom       -0.280557      0.138457      0.142101
   35 Atom       -0.285400      0.139262      0.146138
   36 Atom       -0.280403      0.137111      0.143292
   37 Atom       -0.286772      0.140790      0.145983
   38 Atom       -0.295002      0.146349      0.148653
   39 Atom       -0.287065      0.142572      0.144492
   40 Atom       -0.290505      0.143476      0.147029
   41 Atom       -0.289133      0.143494      0.145639
   42 Atom       -0.274019      0.131326      0.142692
   43 Atom       -0.293478      0.141569      0.151910
   44 Atom       -0.293607      0.140861      0.152746
   45 Atom       -0.292847      0.143647      0.149200
   46 Atom       -0.452124      0.197475      0.254649
 -----------------------------------------------------
 Unable to Open any file for archive entry.
 1\1\GINC-EXP-6-47\SP\RwB97XD\6-31G(d)\C18H26O2\HKLEM\08-Aug-2024\0\\# 
 wb97xd 6-31G(d) prop=efg\\19nt_mm_min_distance_cutoff6_nowat_ligand_co
 nf_1\\0,1\C,0,-3.7209,-0.0564,0.8981\O,0,-4.8775,-0.5138,1.0489\C,0,-2
 .9096,0.3435,2.0008\C,0,-1.7275,0.9889,1.8063\C,0,-1.1001,1.1174,0.435
 2\C,0,-1.6977,0.1225,-0.5596\C,0,-3.2145,0.1448,-0.5033\C,0,-1.0706,1.
 701,2.9377\C,0,0.4578,1.7446,2.8876\C,0,0.9641,2.1007,1.4893\C,0,0.439
 ,1.0259,0.5125\C,0,2.4812,2.2002,1.4077\C,0,3.0064,2.4083,-0.0262\C,0,
 2.5981,1.2061,-0.8768\C,0,1.0746,1.0438,-0.8886\C,0,3.2014,3.29,2.2138
 \C,0,4.597,3.3862,1.5372\C,0,4.5135,2.5079,0.2698\C,0,2.518,3.7139,-0.
 6781\O,0,5.3058,3.0552,-0.7745\H,0,-3.349,0.2596,2.9911\H,0,-1.3555,2.
 1392,0.1025\H,0,-1.3332,-0.8885,-0.3283\H,0,-1.37,0.3572,-1.5762\H,0,-
 3.5878,1.1273,-0.8301\H,0,-3.6611,-0.6126,-1.156\H,0,-1.4224,1.2949,3.
 8913\H,0,-1.4803,2.7284,2.8894\H,0,0.869,0.7676,3.1763\H,0,0.8156,2.46
 63,3.6263\H,0,0.5312,3.0741,1.2116\H,0,0.6887,0.0491,0.9606\H,0,2.8856
 ,1.2299,1.7426\H,0,3.0644,0.3004,-0.4638\H,0,2.9513,1.3097,-1.9111\H,0
 ,0.6259,1.8453,-1.4927\H,0,0.8308,0.1066,-1.3995\H,0,3.258,3.059,3.279
 8\H,0,2.6567,4.2381,2.1349\H,0,5.3979,3.0419,2.1987\H,0,4.8412,4.4123,
 1.2449\H,0,4.8746,1.4966,0.5042\H,0,2.8945,4.5992,-0.1582\H,0,2.8715,3
 .7596,-1.713\H,0,1.4258,3.7824,-0.6954\H,0,5.0454,2.6086,-1.5907\\Vers
 ion=ES64L-G16RevC.01\State=1-A\HF=-851.7904033\RMSD=4.753e-09\Dipole=1
 .2792667,0.4533675,-0.1659134\Quadrupole=-22.3226314,5.7476929,16.5749
 385,-15.2891009,2.8507215,2.9530384\PG=C01 [X(C18H26O2)]\\@
 The archive entry for this job was punched.


 SIGN SEEN IN A RESTAURANT-
 WE RESERVE THE RIGHT TO SERVE REFUSE TO ANYONE.
 Job cpu time:       0 days  0 hours 10 minutes 32.4 seconds.
 Elapsed time:       0 days  0 hours  0 minutes 26.9 seconds.
 File lengths (MBytes):  RWF=     71 Int=      0 D2E=      0 Chk=      8 Scr=      1
 Normal termination of Gaussian 16 at Thu Aug  8 09:10:20 2024.
