 Entering Gaussian System, Link 0=g16
 Initial command:
 /cm/shared/apps/spack/cpu/opt/spack/linux-centos8-zen/gcc-8.3.1/gaussian-16.C.01-po5bqktfeugvmjyga3v7eigbecnokxng/g16/l1.exe "/scratch/hklem/job_32994861/Gau-3488637.inp" -scrdir="/scratch/hklem/job_32994861/"
 Entering Link 1 = /cm/shared/apps/spack/cpu/opt/spack/linux-centos8-zen/gcc-8.3.1/gaussian-16.C.01-po5bqktfeugvmjyga3v7eigbecnokxng/g16/l1.exe PID=   3488638.
  
 Copyright (c) 1988-2019, Gaussian, Inc.  All Rights Reserved.
  
 This is part of the Gaussian(R) 16 program.  It is based on
 the Gaussian(R) 09 system (copyright 2009, Gaussian, Inc.),
 the Gaussian(R) 03 system (copyright 2003, Gaussian, Inc.),
 the Gaussian(R) 98 system (copyright 1998, Gaussian, Inc.),
 the Gaussian(R) 94 system (copyright 1995, Gaussian, Inc.),
 the Gaussian 92(TM) system (copyright 1992, Gaussian, Inc.),
 the Gaussian 90(TM) system (copyright 1990, Gaussian, Inc.),
 the Gaussian 88(TM) system (copyright 1988, Gaussian, Inc.),
 the Gaussian 86(TM) system (copyright 1986, Carnegie Mellon
 University), and the Gaussian 82(TM) system (copyright 1983,
 Carnegie Mellon University). Gaussian is a federally registered
 trademark of Gaussian, Inc.
  
 This software contains proprietary and confidential information,
 including trade secrets, belonging to Gaussian, Inc.
  
 This software is provided under written license and may be
 used, copied, transmitted, or stored only in accord with that
 written license.
  
 The following legend is applicable only to US Government
 contracts under FAR:
  
                    RESTRICTED RIGHTS LEGEND
  
 Use, reproduction and disclosure by the US Government is
 subject to restrictions as set forth in subparagraphs (a)
 and (c) of the Commercial Computer Software - Restricted
 Rights clause in FAR 52.227-19.
  
 Gaussian, Inc.
 340 Quinnipiac St., Bldg. 40, Wallingford CT 06492
  
  
 ---------------------------------------------------------------
 Warning -- This program may not be used in any manner that
 competes with the business of Gaussian, Inc. or will provide
 assistance to any competitor of Gaussian, Inc.  The licensee
 of this program is prohibited from giving any competitor of
 Gaussian, Inc. access to this program.  By using this program,
 the user acknowledges that Gaussian, Inc. is engaged in the
 business of creating and licensing software in the field of
 computational chemistry and represents and warrants to the
 licensee that it is not a competitor of Gaussian, Inc. and that
 it will not use this program in any manner prohibited above.
 ---------------------------------------------------------------
  

 Cite this work as:
 Gaussian 16, Revision C.01,
 M. J. Frisch, G. W. Trucks, H. B. Schlegel, G. E. Scuseria, 
 M. A. Robb, J. R. Cheeseman, G. Scalmani, V. Barone, 
 G. A. Petersson, H. Nakatsuji, X. Li, M. Caricato, A. V. Marenich, 
 J. Bloino, B. G. Janesko, R. Gomperts, B. Mennucci, H. P. Hratchian, 
 J. V. Ortiz, A. F. Izmaylov, J. L. Sonnenberg, D. Williams-Young, 
 F. Ding, F. Lipparini, F. Egidi, J. Goings, B. Peng, A. Petrone, 
 T. Henderson, D. Ranasinghe, V. G. Zakrzewski, J. Gao, N. Rega, 
 G. Zheng, W. Liang, M. Hada, M. Ehara, K. Toyota, R. Fukuda, 
 J. Hasegawa, M. Ishida, T. Nakajima, Y. Honda, O. Kitao, H. Nakai, 
 T. Vreven, K. Throssell, J. A. Montgomery, Jr., J. E. Peralta, 
 F. Ogliaro, M. J. Bearpark, J. J. Heyd, E. N. Brothers, K. N. Kudin, 
 V. N. Staroverov, T. A. Keith, R. Kobayashi, J. Normand, 
 K. Raghavachari, A. P. Rendell, J. C. Burant, S. S. Iyengar, 
 J. Tomasi, M. Cossi, J. M. Millam, M. Klene, C. Adamo, R. Cammi, 
 J. W. Ochterski, R. L. Martin, K. Morokuma, O. Farkas, 
 J. B. Foresman, and D. J. Fox, Gaussian, Inc., Wallingford CT, 2019.
 
 ******************************************
 Gaussian 16:  ES64L-G16RevC.01  3-Jul-2019
                12-Aug-2024 
 ******************************************
 %nprocshared=24
 Will use up to   24 processors via shared memory.
 %mem=48GB
 --------------------------
 # wb97xd 6-31G(d) prop=efg
 --------------------------
 1/38=1,172=1/1;
 2/12=2,17=6,18=5,40=1/2;
 3/5=1,6=6,7=1,11=2,25=1,30=1,74=-58/1,2,3;
 4//1;
 5/5=2,38=5/2;
 6/7=2,8=2,9=2,10=2,14=1,28=1/1,2;
 99/5=1,9=1/99;
 ------------------------------------------
 19nt_mm_min_distance_cutoff3_ligand_conf_1
 ------------------------------------------
 Symbolic Z-matrix:
 Charge =  0 Multiplicity = 1
 C                     3.4778    1.0913   -1.2531 
 O                     4.7046    1.2318   -1.424 
 C                     2.8592   -0.2055   -1.1695 
 C                     1.513    -0.3626   -1.2683 
 C                     0.576     0.8231   -1.2558 
 C                     1.2408    2.0389   -0.6121 
 C                     2.6021    2.3167   -1.2265 
 C                     0.9377   -1.7162   -1.5415 
 C                    -0.4904   -1.9509   -1.0445 
 C                    -1.3903   -0.7478   -1.3286 
 C                    -0.7787    0.4749   -0.6067 
 C                    -2.8351   -0.9689   -0.8984 
 C                    -3.7047    0.294    -1.0331 
 C                    -3.1269    1.3833   -0.139 
 C                    -1.6888    1.7118   -0.5451 
 C                    -3.6773   -2.0536   -1.5912 
 C                    -5.1468   -1.6377   -1.2921 
 C                    -5.0418   -0.2906   -0.5565 
 C                    -3.8213    0.801    -2.4793 
 O                    -6.1964    0.5171   -0.7821 
 H                     3.5214   -1.0671   -1.1792 
 H                     0.3666    1.0433   -2.3156 
 H                     1.3482    1.864     0.4681 
 H                     0.6098    2.9237   -0.7301 
 H                     2.4898    2.6417   -2.2712 
 H                     3.1354    3.1223   -0.7119 
 H                     1.6163   -2.4976   -1.1807 
 H                     0.9276   -1.8092   -2.6398 
 H                    -0.488    -2.1473    0.0364 
 H                    -0.8815   -2.8529   -1.5242 
 H                    -1.376    -0.5511   -2.4082 
 H                    -0.5814    0.1629    0.433 
 H                    -2.8154   -1.2132    0.1775 
 H                    -3.1485    1.048     0.9096 
 H                    -3.7328    2.2956   -0.1941 
 H                    -1.6813    2.2152   -1.5202 
 H                    -1.2782    2.4237    0.181 
 H                    -3.443    -3.0595   -1.2359 
 H                    -3.4913   -2.0457   -2.6709 
 H                    -5.6784   -2.3807   -0.6894 
 H                    -5.7069   -1.4931   -2.2215 
 H                    -4.9661   -0.468     0.5289 
 H                    -2.844     1.0119   -2.9182 
 H                    -4.3404    0.0972   -3.1352 
 H                    -4.3787    1.7423   -2.4989 
 H                    -6.0194    1.3806   -0.3844 
 
                          Input orientation:                          
 ---------------------------------------------------------------------
 Center     Atomic      Atomic             Coordinates (Angstroms)
 Number     Number       Type             X           Y           Z
 ---------------------------------------------------------------------
      1          6           0        3.477800    1.091300   -1.253100
      2          8           0        4.704600    1.231800   -1.424000
      3          6           0        2.859200   -0.205500   -1.169500
      4          6           0        1.513000   -0.362600   -1.268300
      5          6           0        0.576000    0.823100   -1.255800
      6          6           0        1.240800    2.038900   -0.612100
      7          6           0        2.602100    2.316700   -1.226500
      8          6           0        0.937700   -1.716200   -1.541500
      9          6           0       -0.490400   -1.950900   -1.044500
     10          6           0       -1.390300   -0.747800   -1.328600
     11          6           0       -0.778700    0.474900   -0.606700
     12          6           0       -2.835100   -0.968900   -0.898400
     13          6           0       -3.704700    0.294000   -1.033100
     14          6           0       -3.126900    1.383300   -0.139000
     15          6           0       -1.688800    1.711800   -0.545100
     16          6           0       -3.677300   -2.053600   -1.591200
     17          6           0       -5.146800   -1.637700   -1.292100
     18          6           0       -5.041800   -0.290600   -0.556500
     19          6           0       -3.821300    0.801000   -2.479300
     20          8           0       -6.196400    0.517100   -0.782100
     21          1           0        3.521400   -1.067100   -1.179200
     22          1           0        0.366600    1.043300   -2.315600
     23          1           0        1.348200    1.864000    0.468100
     24          1           0        0.609800    2.923700   -0.730100
     25          1           0        2.489800    2.641700   -2.271200
     26          1           0        3.135400    3.122300   -0.711900
     27          1           0        1.616300   -2.497600   -1.180700
     28          1           0        0.927600   -1.809200   -2.639800
     29          1           0       -0.488000   -2.147300    0.036400
     30          1           0       -0.881500   -2.852900   -1.524200
     31          1           0       -1.376000   -0.551100   -2.408200
     32          1           0       -0.581400    0.162900    0.433000
     33          1           0       -2.815400   -1.213200    0.177500
     34          1           0       -3.148500    1.048000    0.909600
     35          1           0       -3.732800    2.295600   -0.194100
     36          1           0       -1.681300    2.215200   -1.520200
     37          1           0       -1.278200    2.423700    0.181000
     38          1           0       -3.443000   -3.059500   -1.235900
     39          1           0       -3.491300   -2.045700   -2.670900
     40          1           0       -5.678400   -2.380700   -0.689400
     41          1           0       -5.706900   -1.493100   -2.221500
     42          1           0       -4.966100   -0.468000    0.528900
     43          1           0       -2.844000    1.011900   -2.918200
     44          1           0       -4.340400    0.097200   -3.135200
     45          1           0       -4.378700    1.742300   -2.498900
     46          1           0       -6.019400    1.380600   -0.384400
 ---------------------------------------------------------------------
                    Distance matrix (angstroms):
                    1          2          3          4          5
     1  C    0.000000
     2  O    1.246589   0.000000
     3  C    1.439217   2.352892   0.000000
     4  C    2.444278   3.571087   1.358932   0.000000
     5  C    2.914169   4.152188   2.505687   1.511294   0.000000
     6  C    2.512568   3.648082   2.822631   2.504375   1.527900
     7  C    1.506374   2.374136   2.535911   2.892496   2.517296
     8  C    3.797017   4.784772   2.472400   1.495942   2.580794
     9  C    5.004509   6.104230   3.779136   2.566397   2.979418
    10  C    5.204458   6.409035   4.286916   2.929363   2.517809
    11  C    4.349204   5.595307   3.743528   2.528045   1.542007
    12  C    6.650033   7.871875   5.751637   4.405723   3.869703
    13  C    7.229965   8.470454   6.584291   5.264108   4.319020
    14  C    6.704368   7.937668   6.278504   5.084502   3.908009
    15  C    5.251670   6.471354   4.974959   3.882998   2.534601
    16  C    7.823053   9.004335   6.805816   5.468360   5.145722
    17  C    9.046142  10.261652   8.134019   6.780810   6.229550
    18  C    8.659012   9.902655   7.925201   6.593728   5.769664
    19  C    7.407071   8.601757   6.881693   5.592427   4.564393
    20  O    9.702664  10.943246   9.092641   7.774645   6.795839
    21  H    2.160105   2.597081   1.086719   2.130242   3.500586
    22  H    3.287974   4.432688   3.014316   2.094666   1.102503
    23  H    2.845135   3.904503   3.041001   2.828426   2.156756
    24  H    3.443348   4.484575   3.878758   3.450391   2.165646
    25  H    2.101526   2.758787   3.075182   3.314478   2.828599
    26  H    2.129577   2.558020   3.370451   3.884107   3.483199
    27  H    4.043591   4.848218   2.607422   2.139292   3.480648
    28  H    4.103579   4.999158   2.909418   2.077584   2.994676
    29  H    5.280048   6.365075   4.053212   2.981845   3.409568
    30  H    5.885041   6.920934   4.596452   3.464204   3.963499
    31  H    5.252724   6.412572   4.426142   3.111467   2.650803
    32  H    4.492434   5.703752   3.813326   2.749015   2.151159
    33  H    6.852861   8.068037   5.918695   4.642080   4.207429
    34  H    6.970437   8.194550   6.479690   5.335037   4.314098
    35  H    7.386784   8.592674   7.117680   5.978156   4.675598
    36  H    5.286852   6.461892   5.157414   4.112427   2.665193
    37  H    5.143099   6.307975   5.084744   4.201754   2.839784
    38  H    8.070124   9.210539   6.918631   5.642363   5.588143
    39  H    7.772984   8.914569   6.780073   5.462887   5.174500
    40  H    9.808595  11.018007   8.823412   7.491601   7.050012
    41  H    9.590393  10.791683   8.725978   7.369775   6.765515
    42  H    8.769629  10.011272   8.011791   6.724565   5.963805
    43  H    6.537891   7.698204   6.088227   4.857455   3.807311
    44  H    8.102764   9.275104   7.469260   6.161089   5.313197
    45  H    7.981254   9.160915   7.612386   6.376293   5.190306
    46  H    9.541234  10.775300   9.053266   7.781843   6.676035
                    6          7          8          9         10
     6  C    0.000000
     7  C    1.519144   0.000000
     8  C    3.880262   4.374212   0.000000
     9  C    4.370644   5.273432   1.530217   0.000000
    10  C    3.898943   5.033969   2.530357   1.529046   0.000000
    11  C    2.554311   3.899511   2.936120   2.481792   1.546024
    12  C    5.073637   6.361286   3.899494   2.546230   1.523616
    13  C    5.261168   6.626043   5.084413   3.920642   2.555213
    14  C    4.441896   5.905534   5.300460   4.346027   2.995416
    15  C    2.948566   4.386574   4.431986   3.885992   2.598578
    16  C    6.472627   7.659203   4.627584   3.235083   2.646591
    17  C    7.401434   8.699830   6.090115   4.673485   3.860641
    18  C    6.700800   8.104080   6.225510   4.869290   3.760136
    19  C    5.535674   6.717657   5.464782   4.552637   3.103652
    20  O    7.593202   8.991644   7.513967   6.222404   4.999723
    21  H    3.894865   3.506772   2.688512   4.110205   4.924334
    22  H    2.158091   2.793769   2.922367   3.363834   2.696091
    23  H    1.099526   2.156124   4.126116   4.496873   4.189154
    24  H    1.093140   2.141056   4.721712   5.007096   4.223567
    25  H    2.162402   1.099834   4.683243   5.610558   5.237593
    26  H    2.184771   1.094629   5.378588   6.244550   5.986648
    27  H    4.587389   4.914406   1.096020   2.180738   3.481856
    28  H    4.360910   4.671661   1.102277   2.139108   2.866788
    29  H    4.575322   5.574130   2.169847   1.098601   2.153130
    30  H    5.409787   6.240902   2.145198   1.093927   2.174530
    31  H    4.096549   5.044400   2.731636   2.145555   1.097466
    32  H    2.816385   4.186582   3.120470   2.580589   2.141712
    33  H    5.258553   6.616700   4.158573   2.728206   2.125052
    34  H    4.750096   6.264337   5.508695   4.458408   3.365368
    35  H    4.997731   6.418509   6.302666   5.410092   4.004582
    36  H    3.065028   4.294657   4.723931   4.359005   2.983414
    37  H    2.668790   4.129072   5.001599   4.610814   3.514238
    38  H    6.951316   8.089923   4.592208   3.159664   3.092916
    39  H    6.581442   7.631930   4.582593   3.414610   2.810785
    40  H    8.210613   9.535236   6.703761   5.217870   4.632790
    41  H    7.958375   9.194786   6.683029   5.367195   4.470546
    42  H    6.790584   8.253098   6.379609   4.970560   4.039176
    43  H    4.801918   5.850159   4.862004   4.222365   2.781477
    44  H    6.425420   7.534429   5.804019   4.836139   3.561028
    45  H    5.935214   7.119024   6.414199   5.556427   4.062110
    46  H    7.293539   8.712960   7.702616   6.488795   5.181715
                   11         12         13         14         15
    11  C    0.000000
    12  C    2.529511   0.000000
    13  C    2.962434   1.539242   0.000000
    14  C    2.560855   2.488911   1.523103   0.000000
    15  C    1.536879   2.936831   2.512400   1.530020   0.000000
    16  C    3.970445   1.538131   2.413183   3.771486   4.384825
    17  C    4.900321   2.438493   2.424500   3.812621   4.871850
    18  C    4.331574   2.333776   1.535168   2.577419   3.905425
    19  C    3.587532   2.569899   1.536925   2.509635   3.019643
    20  O    5.420703   3.676963   2.514228   3.253569   4.669254
    21  H    4.603953   6.363457   7.354622   7.161450   5.938902
    22  H    2.134275   4.038352   4.333791   4.130100   2.793963
    23  H    2.758350   5.233798   5.500027   4.541604   3.205169
    24  H    2.817762   5.200769   5.061822   4.084747   2.605089
    25  H    4.260126   6.578417   6.739170   6.138173   4.615716
    26  H    4.726518   7.240136   7.408739   6.524472   5.028940
    27  H    3.860215   4.715038   6.010645   6.216468   5.389501
    28  H    3.501724   4.230424   5.335086   5.734547   4.861148
    29  H    2.715514   2.787715   4.177432   4.411314   4.083224
    30  H    3.453495   2.785253   4.256127   4.990590   4.737811
    31  H    2.157509   2.140800   2.833362   3.457864   2.947830
    32  H    1.103289   2.851800   3.452773   2.880300   2.140585
    33  H    2.759130   1.103463   2.127924   2.634201   3.216676
    34  H    2.871160   2.726714   2.156840   1.101115   2.165065
    35  H    3.494552   3.458159   2.170510   1.096559   2.154521
    36  H    2.162825   3.443310   2.832388   2.165532   1.097400
    37  H    2.160508   3.885714   3.449284   2.145349   1.096638
    38  H    4.470612   2.203192   3.369804   4.587110   5.130275
    39  H    4.239404   2.175282   2.863935   4.278007   4.678337
    40  H    5.671715   3.181386   3.341802   4.580479   5.717192
    41  H    5.546869   3.205092   2.935102   4.389406   5.406184
    42  H    4.439929   2.613283   2.147468   2.693707   4.079914
    43  H    3.145928   2.829000   2.193123   2.818142   2.730559
    44  H    4.384253   2.899271   2.204919   3.479059   4.043085
    45  H    4.259897   3.506409   2.168045   2.695369   3.324730
    46  H    5.323030   3.990503   2.638057   2.902892   4.346218
                   16         17         18         19         20
    16  C    0.000000
    17  C    1.556234   0.000000
    18  C    2.457770   1.538444   0.000000
    19  C    2.993025   3.018883   2.525544   0.000000
    20  O    3.689039   2.450494   1.427016   2.932949   0.000000
    21  H    7.277651   8.687694   8.620853   7.687347   9.854086
    22  H    5.144771   6.215536   5.841619   4.198096   6.760287
    23  H    6.696563   7.585857   6.820866   6.044904   7.765187
    24  H    6.625272   7.366183   6.504033   5.215381   7.219334
    25  H    7.780833   8.808494   8.262178   6.577345   9.065397
    26  H    8.600930   9.570218   8.862203   7.543727   9.688885
    27  H    5.328025   6.818457   7.042071   6.491118   8.383650
    28  H    4.729101   6.224471   6.502309   5.421343   7.721017
    29  H    3.581829   4.871244   4.953379   5.111957   6.352543
    30  H    2.908585   4.441100   4.980956   4.785982   6.336858
    31  H    2.867225   4.079867   4.115184   2.795125   5.198222
    32  H    4.312175   5.202020   4.591290   4.402910   5.755880
    33  H    2.139496   2.788432   2.519286   3.482445   3.917388
    34  H    4.019148   4.006703   2.743334   3.463858   3.526102
    35  H    4.568425   4.321556   2.921172   2.731996   3.094856
    36  H    4.712930   5.187153   4.301245   2.738510   4.880006
    37  H    5.379832   5.799229   4.698512   4.022152   5.362031
    38  H    1.092231   2.219822   3.268723   4.073403   4.536432
    39  H    1.095632   2.192768   3.155173   2.872161   4.177688
    40  H    2.219153   1.094484   2.188936   4.095824   2.945193
    41  H    2.197889   1.094717   2.158840   2.980745   2.520394
    42  H    2.944479   2.171841   1.102404   3.459797   2.050069
    43  H    3.442762   3.868781   3.479146   1.091892   4.005788
    44  H    2.729392   2.656535   2.700379   1.093162   3.026241
    45  H    3.965443   3.670251   2.888824   1.094132   2.784340
    46  H    4.328456   3.270395   1.943767   3.091308   0.967019
                   21         22         23         24         25
    21  H    0.000000
    22  H    3.962065   0.000000
    23  H    4.003466   3.063670   0.000000
    24  H    4.960402   2.471611   1.761784   0.000000
    25  H    4.001482   2.657975   3.067871   2.447226   0.000000
    26  H    4.233018   3.815802   2.483909   2.533462   1.754763
    27  H    2.382381   3.922719   4.670543   5.532321   5.325842
    28  H    3.067876   2.925164   4.829943   5.113540   4.731474
    29  H    4.326639   4.054895   4.432665   5.244781   6.093179
    30  H    4.763784   4.167066   5.584798   6.018611   6.489553
    31  H    5.075552   2.363756   4.639728   4.339776   5.015690
    32  H    4.576577   3.037863   2.572611   3.223938   4.784289
    33  H    6.482053   4.629521   5.185477   5.446988   7.000109
    34  H    7.302349   4.770520   4.591415   4.509067   6.666918
    35  H    8.056152   4.782687   5.142115   4.420405   6.569237
    36  H    6.160995   2.489961   3.640680   2.524949   4.259575
    37  H    6.088677   3.293005   2.700679   2.155144   4.500959
    38  H    7.244014   5.701910   7.078140   7.244288   8.292988
    39  H    7.236075   4.954952   6.968489   6.729091   7.609536
    40  H    9.306007   7.135147   8.290379   8.226772   9.718338
    41  H    9.296741   6.582521   8.263081   7.850675   9.180683
    42  H    8.678374   6.230000   6.731442   6.646756   8.549926
    43  H    6.918430   3.266813   5.455973   4.513479   5.614649
    44  H    8.184707   4.870595   6.961718   6.186929   7.339796
    45  H    8.487987   4.800007   6.450991   5.423052   6.930877
    46  H    9.881792   6.680142   7.432494   6.815201   8.806638
                   26         27         28         29         30
    26  H    0.000000
    27  H    5.840438   0.000000
    28  H    5.736800   1.754188   0.000000
    29  H    6.438763   2.456038   3.046355   0.000000
    30  H    7.245573   2.546220   2.367850   1.757324   0.000000
    31  H    6.060036   3.774848   2.634962   3.051634   2.514810
    32  H    4.887069   3.809485   3.950742   2.345856   3.607734
    33  H    7.416172   4.809819   4.722546   2.511821   3.053583
    34  H    6.813177   6.296344   6.113626   4.248609   5.126372
    35  H    6.937126   7.249898   6.674591   5.506471   6.033749
    36  H    4.967573   5.761936   4.925003   4.783134   5.130822
    37  H    4.556882   5.869544   5.544358   4.641052   5.559459
    38  H    9.042377   5.090707   4.757765   3.344082   2.585939
    39  H    8.628966   5.339709   4.425334   4.044701   2.962693
    40  H   10.390697   7.312160   6.911578   5.246095   4.891842
    41  H   10.087967   7.464686   6.655185   5.723898   5.061597
    42  H    8.947857   7.097182   6.824601   4.807909   5.156251
    43  H    6.713775   5.935467   4.718165   4.925540   4.553166
    44  H    8.420879   6.784934   5.624198   5.471546   4.823111
    45  H    7.845984   7.460190   6.386691   6.057580   5.856305
    46  H    9.324759   8.601072   7.970098   6.574157   6.754234
                   31         32         33         34         35
    31  H    0.000000
    32  H    3.035392   0.000000
    33  H    3.032506   2.636226   0.000000
    34  H    4.087380   2.756910   2.399990   0.000000
    35  H    4.308184   3.856551   3.645735   1.765238   0.000000
    36  H    2.921330   3.039195   3.990275   3.069032   2.444107
    37  H    3.944991   2.379128   3.948422   2.433399   2.486397
    38  H    3.455264   4.621455   2.408403   4.643432   5.463188
    39  H    2.603331   4.793707   3.043564   4.744309   5.003973
    40  H    4.981200   5.805953   3.211128   4.551173   5.089053
    41  H    4.436092   6.004953   3.767535   4.775603   4.728813
    42  H    4.639211   4.430894   2.303110   2.397261   3.111470
    43  H    2.204108   4.131671   3.812512   3.840062   3.139836
    44  H    3.120335   5.183286   3.875146   4.322621   3.721856
    45  H    3.779433   5.050745   4.282757   3.689623   2.456711
    46  H    5.421106   5.632298   4.160426   3.166564   2.470218
                   36         37         38         39         40
    36  H    0.000000
    37  H    1.760694   0.000000
    38  H    5.568382   6.062957   0.000000
    39  H    4.770270   5.745144   1.757654   0.000000
    40  H    6.147303   6.572794   2.399259   2.970181   0.000000
    41  H    5.518040   6.381748   2.924083   2.327275   1.770869
    42  H    4.710444   4.699316   3.485717   3.860426   2.376983
    43  H    2.180414   3.748326   4.445811   3.135135   4.950869
    44  H    3.763637   5.078076   3.791757   2.351290   3.729902
    45  H    2.908170   4.154428   5.052523   3.894356   4.686431
    46  H    4.561328   4.887403   5.203593   4.833105   3.789021
                   41         42         43         44         45
    41  H    0.000000
    42  H    3.027262   0.000000
    43  H    3.867378   4.309978   0.000000
    44  H    2.287187   3.759864   1.767195   0.000000
    45  H    3.508401   3.794475   1.750600   1.764284   0.000000
    46  H    3.425017   2.315357   4.079123   3.468870   2.700710
                   46
    46  H    0.000000
 Stoichiometry    C18H26O2
 Framework group  C1[X(C18H26O2)]
 Deg. of freedom   132
 Full point group                 C1      NOp   1
 Largest Abelian subgroup         C1      NOp   1
 Largest concise Abelian subgroup C1      NOp   1
                         Standard orientation:                         
 ---------------------------------------------------------------------
 Center     Atomic      Atomic             Coordinates (Angstroms)
 Number     Number       Type             X           Y           Z
 ---------------------------------------------------------------------
      1          6           0        4.676031   -0.191591    0.088677
      2          8           0        5.912520   -0.113286    0.226329
      3          6           0        3.858123    0.965546   -0.163131
      4          6           0        2.506098    0.927053   -0.031828
      5          6           0        1.768975   -0.376029    0.174663
      6          6           0        2.606254   -1.560250   -0.306027
      7          6           0        4.005460   -1.526171    0.284617
      8          6           0        1.728492    2.201824    0.058337
      9          6           0        0.272341    2.133688   -0.407006
     10          6           0       -0.419938    0.865514    0.093460
     11          6           0        0.364479   -0.345802   -0.461153
     12          6           0       -1.889187    0.791937   -0.303146
     13          6           0       -2.544819   -0.553183    0.057496
     14          6           0       -1.818099   -1.666345   -0.685869
     15          6           0       -0.338871   -1.702346   -0.296578
     16          6           0       -2.879890    1.828583    0.253381
     17          6           0       -4.270064    1.150065    0.083402
     18          6           0       -3.966266   -0.262726   -0.444365
     19          6           0       -2.552880   -0.840678    1.567271
     20          8           0       -4.973774   -1.193393   -0.050459
     21          1           0        4.375331    1.909664   -0.311774
     22          1           0        1.616699   -0.458118    1.263509
     23          1           0        2.664649   -1.541236   -1.403836
     24          1           0        2.125876   -2.502323   -0.029094
     25          1           0        3.965384   -1.697927    1.370217
     26          1           0        4.650234   -2.310279   -0.124841
     27          1           0        2.267792    3.012530   -0.444826
     28          1           0        1.723985    2.462003    1.129458
     29          1           0        0.223660    2.157414   -1.504272
     30          1           0       -0.247992    3.028307   -0.052626
     31          1           0       -0.354748    0.843862    1.188774
     32          1           0        0.490618   -0.172873   -1.543480
     33          1           0       -1.928296    0.865842   -1.403436
     34          1           0       -1.911911   -1.505752   -1.771163
     35          1           0       -2.270495   -2.641181   -0.467981
     36          1           0       -0.233666   -2.040575    0.742085
     37          1           0        0.166021   -2.446836   -0.923821
     38          1           0       -2.814699    2.790827   -0.259265
     39          1           0       -2.675150    2.017591    1.312989
     40          1           0       -4.923796    1.699406   -0.601254
     41          1           0       -4.782932    1.067473    1.047016
     42          1           0       -3.939656   -0.246959   -1.546335
     43          1           0       -1.546588   -0.827738    1.990872
     44          1           0       -3.164887   -0.131718    2.131033
     45          1           0       -2.953451   -1.841874    1.752405
     46          1           0       -4.669391   -2.070627   -0.320529
 ---------------------------------------------------------------------
 Rotational constants (GHZ):           0.9128953           0.1760829           0.1554568
 Standard basis: 6-31G(d) (6D, 7F)
 There are   352 symmetry adapted cartesian basis functions of A   symmetry.
 There are   352 symmetry adapted basis functions of A   symmetry.
   352 basis functions,   664 primitive gaussians,   352 cartesian basis functions
    75 alpha electrons       75 beta electrons
       nuclear repulsion energy      1665.1927915722 Hartrees.
 NAtoms=   46 NActive=   46 NUniq=   46 SFac= 1.00D+00 NAtFMM=   60 NAOKFM=F Big=F
 Integral buffers will be    131072 words long.
 Raffenetti 2 integral format.
 Two-electron integral symmetry is turned on.
 Nuclear repulsion after empirical dispersion term =     1665.1439364527 Hartrees.
 One-electron integrals computed using PRISM.
 NBasis=   352 RedAO= T EigKep=  1.24D-03  NBF=   352
 NBsUse=   352 1.00D-06 EigRej= -1.00D+00 NBFU=   352
 ExpMin= 1.61D-01 ExpMax= 5.48D+03 ExpMxC= 8.25D+02 IAcc=3 IRadAn=         5 AccDes= 0.00D+00
 Harris functional with IExCor= 4639 and IRadAn=       5 diagonalized for initial guess.
 HarFok:  IExCor= 4639 AccDes= 0.00D+00 IRadAn=         5 IDoV= 1 UseB2=F ITyADJ=14
 ICtDFT=  3500011 ScaDFX=  1.000000  1.000000  1.000000  1.000000
 FoFCou: FMM=F IPFlag=           0 FMFlag=      100000 FMFlg1=           0
         NFxFlg=           0 DoJE=T BraDBF=F KetDBF=T FulRan=T
         wScrn=  0.000000 ICntrl=       500 IOpCl=  0 I1Cent=   200000004 NGrid=           0
         NMat0=    1 NMatS0=      1 NMatT0=    0 NMatD0=    1 NMtDS0=    0 NMtDT0=    0
 Petite list used in FoFCou.
 Requested convergence on RMS density matrix=1.00D-08 within 128 cycles.
 Requested convergence on MAX density matrix=1.00D-06.
 Requested convergence on             energy=1.00D-06.
 No special actions if energy rises.
 Integral accuracy reduced to 1.0D-05 until final iterations.
 Initial convergence to 1.0D-05 achieved.  Increase integral accuracy.
 SCF Done:  E(RwB97XD) =  -851.790745847     A.U. after   15 cycles
            NFock= 15  Conv=0.66D-08     -V/T= 2.0093

 **********************************************************************

            Population analysis using the SCF Density.

 **********************************************************************

 Orbital symmetries:
       Occupied  (A) (A) (A) (A) (A) (A) (A) (A) (A) (A) (A) (A)
                 (A) (A) (A) (A) (A) (A) (A) (A) (A) (A) (A) (A)
                 (A) (A) (A) (A) (A) (A) (A) (A) (A) (A) (A) (A)
                 (A) (A) (A) (A) (A) (A) (A) (A) (A) (A) (A) (A)
                 (A) (A) (A) (A) (A) (A) (A) (A) (A) (A) (A) (A)
                 (A) (A) (A) (A) (A) (A) (A) (A) (A) (A) (A) (A)
                 (A) (A) (A)
       Virtual   (A) (A) (A) (A) (A) (A) (A) (A) (A) (A) (A) (A)
                 (A) (A) (A) (A) (A) (A) (A) (A) (A) (A) (A) (A)
                 (A) (A) (A) (A) (A) (A) (A) (A) (A) (A) (A) (A)
                 (A) (A) (A) (A) (A) (A) (A) (A) (A) (A) (A) (A)
                 (A) (A) (A) (A) (A) (A) (A) (A) (A) (A) (A) (A)
                 (A) (A) (A) (A) (A) (A) (A) (A) (A) (A) (A) (A)
                 (A) (A) (A) (A) (A) (A) (A) (A) (A) (A) (A) (A)
                 (A) (A) (A) (A) (A) (A) (A) (A) (A) (A) (A) (A)
                 (A) (A) (A) (A) (A) (A) (A) (A) (A) (A) (A) (A)
                 (A) (A) (A) (A) (A) (A) (A) (A) (A) (A) (A) (A)
                 (A) (A) (A) (A) (A) (A) (A) (A) (A) (A) (A) (A)
                 (A) (A) (A) (A) (A) (A) (A) (A) (A) (A) (A) (A)
                 (A) (A) (A) (A) (A) (A) (A) (A) (A) (A) (A) (A)
                 (A) (A) (A) (A) (A) (A) (A) (A) (A) (A) (A) (A)
                 (A) (A) (A) (A) (A) (A) (A) (A) (A) (A) (A) (A)
                 (A) (A) (A) (A) (A) (A) (A) (A) (A) (A) (A) (A)
                 (A) (A) (A) (A) (A) (A) (A) (A) (A) (A) (A) (A)
                 (A) (A) (A) (A) (A) (A) (A) (A) (A) (A) (A) (A)
                 (A) (A) (A) (A) (A) (A) (A) (A) (A) (A) (A) (A)
                 (A) (A) (A) (A) (A) (A) (A) (A) (A) (A) (A) (A)
                 (A) (A) (A) (A) (A) (A) (A) (A) (A) (A) (A) (A)
                 (A) (A) (A) (A) (A) (A) (A) (A) (A) (A) (A) (A)
                 (A) (A) (A) (A) (A) (A) (A) (A) (A) (A) (A) (A)
                 (A)
 The electronic state is 1-A.
 Alpha  occ. eigenvalues --  -19.26640 -19.23402 -10.36895 -10.34214 -10.33282
 Alpha  occ. eigenvalues --  -10.31723 -10.31043 -10.31031 -10.30592 -10.30351
 Alpha  occ. eigenvalues --  -10.30311 -10.30237 -10.30136 -10.30047 -10.30027
 Alpha  occ. eigenvalues --  -10.29647 -10.29585 -10.29452 -10.29183 -10.28751
 Alpha  occ. eigenvalues --   -1.11742  -1.10282  -0.98272  -0.95798  -0.90880
 Alpha  occ. eigenvalues --   -0.90341  -0.87330  -0.84447  -0.82521  -0.81522
 Alpha  occ. eigenvalues --   -0.77924  -0.77585  -0.73744  -0.72275  -0.69709
 Alpha  occ. eigenvalues --   -0.67759  -0.65465  -0.65219  -0.62952  -0.60880
 Alpha  occ. eigenvalues --   -0.59831  -0.58254  -0.56998  -0.55586  -0.55359
 Alpha  occ. eigenvalues --   -0.54412  -0.53417  -0.52849  -0.52048  -0.50773
 Alpha  occ. eigenvalues --   -0.50307  -0.49825  -0.48759  -0.47831  -0.47525
 Alpha  occ. eigenvalues --   -0.46718  -0.46582  -0.46316  -0.45221  -0.44670
 Alpha  occ. eigenvalues --   -0.44111  -0.43764  -0.42984  -0.42472  -0.42081
 Alpha  occ. eigenvalues --   -0.41308  -0.40900  -0.40166  -0.39405  -0.38801
 Alpha  occ. eigenvalues --   -0.37370  -0.36445  -0.34078  -0.32564  -0.30864
 Alpha virt. eigenvalues --    0.02309   0.13140   0.14110   0.15121   0.16163
 Alpha virt. eigenvalues --    0.16844   0.17290   0.18360   0.19092   0.20056
 Alpha virt. eigenvalues --    0.20656   0.20776   0.22098   0.22870   0.23219
 Alpha virt. eigenvalues --    0.23794   0.23936   0.24749   0.24974   0.25122
 Alpha virt. eigenvalues --    0.25393   0.25902   0.26491   0.26909   0.27154
 Alpha virt. eigenvalues --    0.27683   0.28436   0.28894   0.29161   0.30202
 Alpha virt. eigenvalues --    0.30687   0.31256   0.31789   0.32431   0.32871
 Alpha virt. eigenvalues --    0.33542   0.34147   0.35087   0.35457   0.36288
 Alpha virt. eigenvalues --    0.36522   0.37715   0.38559   0.38913   0.40786
 Alpha virt. eigenvalues --    0.41764   0.41956   0.44821   0.45849   0.49836
 Alpha virt. eigenvalues --    0.51415   0.57678   0.58569   0.59268   0.60113
 Alpha virt. eigenvalues --    0.61312   0.61635   0.62319   0.62660   0.65044
 Alpha virt. eigenvalues --    0.65349   0.65896   0.66676   0.67936   0.69187
 Alpha virt. eigenvalues --    0.70456   0.71030   0.72275   0.72559   0.73196
 Alpha virt. eigenvalues --    0.73790   0.74505   0.74694   0.75703   0.76545
 Alpha virt. eigenvalues --    0.77605   0.77861   0.78607   0.79545   0.81287
 Alpha virt. eigenvalues --    0.82333   0.82746   0.83930   0.85066   0.85829
 Alpha virt. eigenvalues --    0.86200   0.87322   0.88870   0.89756   0.90201
 Alpha virt. eigenvalues --    0.91238   0.92727   0.93564   0.93974   0.94459
 Alpha virt. eigenvalues --    0.94941   0.95624   0.95908   0.96648   0.96940
 Alpha virt. eigenvalues --    0.97383   0.97488   0.98119   0.98636   0.98775
 Alpha virt. eigenvalues --    0.98970   1.00283   1.00877   1.01290   1.02134
 Alpha virt. eigenvalues --    1.03097   1.03463   1.04017   1.04288   1.04639
 Alpha virt. eigenvalues --    1.05279   1.06029   1.07155   1.07335   1.07875
 Alpha virt. eigenvalues --    1.08708   1.09940   1.10725   1.11862   1.13297
 Alpha virt. eigenvalues --    1.13635   1.14619   1.16872   1.19309   1.20314
 Alpha virt. eigenvalues --    1.21674   1.23201   1.25102   1.26540   1.28133
 Alpha virt. eigenvalues --    1.29736   1.30821   1.34920   1.35084   1.37434
 Alpha virt. eigenvalues --    1.39073   1.41104   1.43300   1.46397   1.48564
 Alpha virt. eigenvalues --    1.50001   1.53047   1.53606   1.55126   1.57982
 Alpha virt. eigenvalues --    1.60663   1.62486   1.64626   1.66455   1.67209
 Alpha virt. eigenvalues --    1.69807   1.70711   1.73205   1.74627   1.76633
 Alpha virt. eigenvalues --    1.78424   1.79162   1.80414   1.81636   1.82747
 Alpha virt. eigenvalues --    1.84227   1.85569   1.86351   1.88017   1.88734
 Alpha virt. eigenvalues --    1.89438   1.91859   1.93564   1.94343   1.95335
 Alpha virt. eigenvalues --    1.95723   1.96132   1.97592   1.98474   1.99182
 Alpha virt. eigenvalues --    1.99918   2.00893   2.01577   2.02143   2.02759
 Alpha virt. eigenvalues --    2.04371   2.04988   2.05908   2.07084   2.08184
 Alpha virt. eigenvalues --    2.09381   2.09762   2.10447   2.11777   2.12473
 Alpha virt. eigenvalues --    2.12869   2.14552   2.15608   2.16585   2.18043
 Alpha virt. eigenvalues --    2.18899   2.19586   2.21184   2.22312   2.25528
 Alpha virt. eigenvalues --    2.26650   2.28659   2.29583   2.30711   2.33101
 Alpha virt. eigenvalues --    2.34381   2.35268   2.36440   2.38601   2.39827
 Alpha virt. eigenvalues --    2.40563   2.41239   2.41750   2.44012   2.45267
 Alpha virt. eigenvalues --    2.47724   2.48814   2.51030   2.51292   2.52909
 Alpha virt. eigenvalues --    2.53962   2.57134   2.57747   2.60335   2.61126
 Alpha virt. eigenvalues --    2.62209   2.63410   2.64507   2.65532   2.66645
 Alpha virt. eigenvalues --    2.68397   2.70999   2.71922   2.74581   2.76411
 Alpha virt. eigenvalues --    2.78256   2.80061   2.81263   2.83130   2.84185
 Alpha virt. eigenvalues --    2.86265   2.90049   2.94129   2.98122   2.99070
 Alpha virt. eigenvalues --    3.00900   3.01961   3.07165   3.08479   3.09211
 Alpha virt. eigenvalues --    3.20666   3.26130   4.00592   4.07301   4.24125
 Alpha virt. eigenvalues --    4.27201   4.30420   4.33236   4.35674   4.38611
 Alpha virt. eigenvalues --    4.41288   4.42444   4.47543   4.53616   4.55643
 Alpha virt. eigenvalues --    4.64761   4.66200   4.74033   4.77312   4.81555
 Alpha virt. eigenvalues --    4.85641   4.89734
          Condensed to atoms (all electrons):
               1          2          3          4          5          6
     1  C    4.431668   0.520078   0.386226  -0.005250  -0.020114  -0.026632
     2  O    0.520078   8.120158  -0.059782   0.004696   0.000193   0.003532
     3  C    0.386226  -0.059782   5.264173   0.524935  -0.045803   0.008360
     4  C   -0.005250   0.004696   0.524935   4.866048   0.377532  -0.046539
     5  C   -0.020114   0.000193  -0.045803   0.377532   5.084284   0.355352
     6  C   -0.026632   0.003532   0.008360  -0.046539   0.355352   5.148686
     7  C    0.337995  -0.079158  -0.129063   0.000892  -0.035962   0.278059
     8  C    0.003517  -0.000091  -0.038934   0.362026  -0.064405   0.004687
     9  C   -0.000121   0.000000   0.003397  -0.033188  -0.011249  -0.000247
    10  C   -0.000011  -0.000000   0.000388  -0.013978  -0.037787   0.004083
    11  C   -0.000095  -0.000000   0.003555  -0.031566   0.365416  -0.048104
    12  C   -0.000000   0.000000   0.000004   0.000304   0.003490  -0.000129
    13  C   -0.000000   0.000000   0.000000   0.000004   0.000055  -0.000003
    14  C    0.000000  -0.000000   0.000001  -0.000091   0.003677   0.000330
    15  C   -0.000002  -0.000000  -0.000116   0.004469  -0.042220  -0.005121
    16  C   -0.000000  -0.000000  -0.000000  -0.000001  -0.000094   0.000001
    17  C   -0.000000  -0.000000   0.000000   0.000000   0.000001  -0.000000
    18  C    0.000000  -0.000000  -0.000000   0.000000   0.000004   0.000000
    19  C   -0.000000  -0.000000   0.000000   0.000001   0.000036   0.000001
    20  O   -0.000000   0.000000   0.000000   0.000000  -0.000000   0.000000
    21  H   -0.029623   0.001095   0.360866  -0.046445   0.004680  -0.000469
    22  H    0.000801   0.000018  -0.004802  -0.043019   0.367557  -0.034540
    23  H   -0.002880   0.000017   0.003441  -0.003963  -0.043058   0.384310
    24  H    0.003371  -0.000069  -0.000256   0.004642  -0.031661   0.375529
    25  H   -0.026522  -0.001049   0.001755  -0.000751  -0.003687  -0.036872
    26  H   -0.024243   0.001910   0.004468  -0.000197   0.004042  -0.029726
    27  H    0.000214  -0.000001  -0.002408  -0.038192   0.003882  -0.000144
    28  H   -0.000134   0.000007  -0.009293  -0.037695   0.001124   0.000085
    29  H    0.000001  -0.000000  -0.000215  -0.002710   0.000676   0.000006
    30  H    0.000001  -0.000000  -0.000086   0.003983  -0.000008   0.000010
    31  H    0.000005   0.000000  -0.000240  -0.004033  -0.002295   0.000223
    32  H    0.000028  -0.000000  -0.000014  -0.003598  -0.042014  -0.004252
    33  H    0.000000   0.000000  -0.000001  -0.000062   0.000125   0.000002
    34  H    0.000000   0.000000  -0.000000   0.000003   0.000057  -0.000028
    35  H    0.000000  -0.000000  -0.000000   0.000001  -0.000110   0.000004
    36  H    0.000002  -0.000000  -0.000009   0.000211  -0.002971  -0.002399
    37  H   -0.000011  -0.000000   0.000017  -0.000181  -0.006466   0.002326
    38  H    0.000000  -0.000000   0.000000  -0.000000   0.000001  -0.000000
    39  H    0.000000  -0.000000  -0.000000  -0.000001   0.000001   0.000000
    40  H    0.000000  -0.000000   0.000000   0.000000  -0.000000   0.000000
    41  H    0.000000  -0.000000  -0.000000  -0.000000  -0.000000   0.000000
    42  H    0.000000   0.000000  -0.000000   0.000000   0.000000  -0.000000
    43  H    0.000000   0.000000  -0.000000  -0.000002   0.000108   0.000003
    44  H   -0.000000  -0.000000   0.000000   0.000000  -0.000002  -0.000000
    45  H    0.000000   0.000000  -0.000000  -0.000000  -0.000006   0.000000
    46  H   -0.000000   0.000000  -0.000000   0.000000  -0.000000   0.000000
               7          8          9         10         11         12
     1  C    0.337995   0.003517  -0.000121  -0.000011  -0.000095  -0.000000
     2  O   -0.079158  -0.000091   0.000000  -0.000000  -0.000000   0.000000
     3  C   -0.129063  -0.038934   0.003397   0.000388   0.003555   0.000004
     4  C    0.000892   0.362026  -0.033188  -0.013978  -0.031566   0.000304
     5  C   -0.035962  -0.064405  -0.011249  -0.037787   0.365416   0.003490
     6  C    0.278059   0.004687  -0.000247   0.004083  -0.048104  -0.000129
     7  C    5.357897  -0.000082   0.000031  -0.000092   0.004418   0.000002
     8  C   -0.000082   5.150789   0.336643  -0.042110  -0.015682   0.003694
     9  C    0.000031   0.336643   5.098339   0.368198  -0.043423  -0.040654
    10  C   -0.000092  -0.042110   0.368198   5.017100   0.369270   0.365482
    11  C    0.004418  -0.015682  -0.043423   0.369270   5.053182  -0.037003
    12  C    0.000002   0.003694  -0.040654   0.365482  -0.037003   5.104410
    13  C    0.000000  -0.000129   0.004224  -0.027135  -0.011711   0.342800
    14  C   -0.000003  -0.000012  -0.000087  -0.011530  -0.039433  -0.049671
    15  C    0.000229   0.000402   0.004176  -0.038547   0.363933  -0.016603
    16  C   -0.000000   0.000022  -0.002828  -0.031894   0.004003   0.360760
    17  C    0.000000   0.000000   0.000067   0.003834  -0.000156  -0.060629
    18  C   -0.000000   0.000001  -0.000104   0.004145   0.000133  -0.061159
    19  C    0.000000   0.000000   0.000145  -0.005196  -0.002788  -0.057458
    20  O    0.000000  -0.000000   0.000000  -0.000064  -0.000003   0.003822
    21  H    0.006268  -0.006852   0.000219   0.000002  -0.000077   0.000000
    22  H   -0.004837   0.001455  -0.000430  -0.006643  -0.046056   0.000058
    23  H   -0.038604   0.000026  -0.000033   0.000100  -0.003175  -0.000000
    24  H   -0.030023  -0.000112  -0.000007  -0.000053  -0.008761  -0.000002
    25  H    0.367309  -0.000009  -0.000001   0.000002  -0.000010   0.000000
    26  H    0.370063   0.000007   0.000000   0.000001  -0.000067  -0.000000
    27  H    0.000008   0.378456  -0.030568   0.003978  -0.000163  -0.000097
    28  H   -0.000074   0.378516  -0.041496  -0.003785  -0.000844  -0.000047
    29  H   -0.000002  -0.035387   0.379518  -0.038748  -0.008857  -0.004815
    30  H   -0.000000  -0.032118   0.379438  -0.032935   0.005029  -0.005919
    31  H   -0.000014   0.000626  -0.047648   0.380474  -0.051836  -0.043245
    32  H   -0.000100  -0.000082  -0.006990  -0.047956   0.375898  -0.003161
    33  H   -0.000000   0.000122  -0.006321  -0.045639  -0.005247   0.380904
    34  H   -0.000000   0.000000  -0.000048  -0.000408  -0.003756  -0.006549
    35  H   -0.000000  -0.000000   0.000010  -0.000111   0.004258   0.006706
    36  H   -0.000092  -0.000011  -0.000030  -0.003022  -0.044898  -0.000201
    37  H    0.000113  -0.000011  -0.000116   0.004063  -0.029266   0.000076
    38  H    0.000000  -0.000015   0.001110  -0.001030  -0.000078  -0.026242
    39  H   -0.000000  -0.000023  -0.000408  -0.004568   0.000072  -0.038822
    40  H   -0.000000  -0.000000  -0.000003  -0.000056   0.000003   0.001829
    41  H   -0.000000  -0.000000   0.000002  -0.000125   0.000002   0.003175
    42  H   -0.000000  -0.000000   0.000007  -0.000174  -0.000017  -0.002502
    43  H   -0.000000   0.000011  -0.000023   0.002153  -0.000606  -0.006618
    44  H    0.000000  -0.000000  -0.000018  -0.000092   0.000027  -0.003749
    45  H    0.000000  -0.000000   0.000000  -0.000042   0.000117   0.005671
    46  H    0.000000   0.000000   0.000000  -0.000004   0.000001   0.000337
              13         14         15         16         17         18
     1  C   -0.000000   0.000000  -0.000002  -0.000000  -0.000000   0.000000
     2  O    0.000000  -0.000000  -0.000000  -0.000000  -0.000000  -0.000000
     3  C    0.000000   0.000001  -0.000116  -0.000000   0.000000  -0.000000
     4  C    0.000004  -0.000091   0.004469  -0.000001   0.000000   0.000000
     5  C    0.000055   0.003677  -0.042220  -0.000094   0.000001   0.000004
     6  C   -0.000003   0.000330  -0.005121   0.000001  -0.000000   0.000000
     7  C    0.000000  -0.000003   0.000229  -0.000000   0.000000  -0.000000
     8  C   -0.000129  -0.000012   0.000402   0.000022   0.000000   0.000001
     9  C    0.004224  -0.000087   0.004176  -0.002828   0.000067  -0.000104
    10  C   -0.027135  -0.011530  -0.038547  -0.031894   0.003834   0.004145
    11  C   -0.011711  -0.039433   0.363933   0.004003  -0.000156   0.000133
    12  C    0.342800  -0.049671  -0.016603   0.360760  -0.060629  -0.061159
    13  C    5.129598   0.374423  -0.038379  -0.060422  -0.060593   0.358551
    14  C    0.374423   5.130497   0.351909   0.006063   0.006846  -0.044710
    15  C   -0.038379   0.351909   5.095808   0.000194  -0.000229   0.004446
    16  C   -0.060422   0.006063   0.000194   5.115137   0.337977  -0.062536
    17  C   -0.060593   0.006846  -0.000229   0.337977   5.162255   0.360871
    18  C    0.358551  -0.044710   0.004446  -0.062536   0.360871   4.811725
    19  C    0.339567  -0.069248  -0.003982  -0.003698  -0.012175  -0.053802
    20  O   -0.049994  -0.000650   0.000043   0.002232  -0.043065   0.246932
    21  H   -0.000000  -0.000000   0.000002  -0.000000  -0.000000  -0.000000
    22  H   -0.000042   0.000015  -0.006623  -0.000003   0.000000  -0.000000
    23  H   -0.000001  -0.000058  -0.001912   0.000000   0.000000  -0.000000
    24  H   -0.000004   0.000111   0.004475   0.000000  -0.000000   0.000000
    25  H   -0.000000  -0.000000  -0.000031   0.000000   0.000000  -0.000000
    26  H   -0.000000  -0.000000   0.000001   0.000000  -0.000000   0.000000
    27  H    0.000001  -0.000000   0.000008  -0.000001  -0.000000  -0.000000
    28  H    0.000003   0.000000  -0.000006  -0.000009  -0.000000  -0.000000
    29  H   -0.000007  -0.000005   0.000093  -0.000363  -0.000014  -0.000005
    30  H    0.000026  -0.000004  -0.000127   0.003307  -0.000011  -0.000007
    31  H   -0.008275   0.000373  -0.001903  -0.004651  -0.000008   0.000043
    32  H   -0.001115  -0.000360  -0.045856  -0.000076   0.000004  -0.000057
    33  H   -0.055178  -0.006576  -0.000698  -0.043649  -0.002123  -0.002412
    34  H   -0.038416   0.377025  -0.035778   0.000046   0.000073  -0.005320
    35  H   -0.036304   0.367982  -0.033034  -0.000231  -0.000010  -0.003885
    36  H   -0.008267  -0.034581   0.381609  -0.000014   0.000002  -0.000038
    37  H    0.004794  -0.034141   0.380752   0.000008   0.000003  -0.000078
    38  H    0.005221  -0.000144  -0.000004   0.378192  -0.027539   0.002246
    39  H   -0.005162  -0.000008  -0.000016   0.384190  -0.033334   0.002310
    40  H    0.004619  -0.000129   0.000003  -0.029894   0.379346  -0.026838
    41  H   -0.005446  -0.000133   0.000004  -0.028225   0.373067  -0.031343
    42  H   -0.070026  -0.010241   0.000097   0.002853  -0.050463   0.389755
    43  H   -0.032146  -0.005510   0.001847  -0.000049  -0.000273   0.005009
    44  H   -0.028266   0.004673   0.000087   0.001323   0.003956  -0.006061
    45  H   -0.030661  -0.005067  -0.000687  -0.000177  -0.000051  -0.005391
    46  H   -0.006137   0.003177  -0.000080  -0.000321   0.006701  -0.026278
              19         20         21         22         23         24
     1  C   -0.000000  -0.000000  -0.029623   0.000801  -0.002880   0.003371
     2  O   -0.000000   0.000000   0.001095   0.000018   0.000017  -0.000069
     3  C    0.000000   0.000000   0.360866  -0.004802   0.003441  -0.000256
     4  C    0.000001   0.000000  -0.046445  -0.043019  -0.003963   0.004642
     5  C    0.000036  -0.000000   0.004680   0.367557  -0.043058  -0.031661
     6  C    0.000001   0.000000  -0.000469  -0.034540   0.384310   0.375529
     7  C    0.000000   0.000000   0.006268  -0.004837  -0.038604  -0.030023
     8  C    0.000000  -0.000000  -0.006852   0.001455   0.000026  -0.000112
     9  C    0.000145   0.000000   0.000219  -0.000430  -0.000033  -0.000007
    10  C   -0.005196  -0.000064   0.000002  -0.006643   0.000100  -0.000053
    11  C   -0.002788  -0.000003  -0.000077  -0.046056  -0.003175  -0.008761
    12  C   -0.057458   0.003822   0.000000   0.000058  -0.000000  -0.000002
    13  C    0.339567  -0.049994  -0.000000  -0.000042  -0.000001  -0.000004
    14  C   -0.069248  -0.000650  -0.000000   0.000015  -0.000058   0.000111
    15  C   -0.003982   0.000043   0.000002  -0.006623  -0.001912   0.004475
    16  C   -0.003698   0.002232  -0.000000  -0.000003   0.000000   0.000000
    17  C   -0.012175  -0.043065  -0.000000   0.000000   0.000000  -0.000000
    18  C   -0.053802   0.246932  -0.000000  -0.000000  -0.000000   0.000000
    19  C    5.214778   0.004716   0.000000  -0.000087  -0.000000  -0.000002
    20  O    0.004716   8.284386   0.000000  -0.000000  -0.000000   0.000000
    21  H    0.000000   0.000000   0.533513  -0.000221  -0.000091   0.000012
    22  H   -0.000087  -0.000000  -0.000221   0.589461   0.005485  -0.003254
    23  H   -0.000000  -0.000000  -0.000091   0.005485   0.558717  -0.030922
    24  H   -0.000002   0.000000   0.000012  -0.003254  -0.030922   0.554731
    25  H   -0.000000   0.000000  -0.000160   0.004682   0.004819  -0.004806
    26  H    0.000000  -0.000000  -0.000103  -0.000141  -0.003586  -0.002082
    27  H    0.000000   0.000000   0.004824  -0.000097  -0.000002   0.000002
    28  H   -0.000002   0.000000   0.000192   0.001124   0.000002   0.000007
    29  H   -0.000002   0.000000  -0.000009   0.000078  -0.000004   0.000002
    30  H   -0.000006  -0.000000  -0.000007  -0.000008   0.000000   0.000000
    31  H    0.002201  -0.000000  -0.000002   0.006604   0.000007   0.000002
    32  H    0.000057   0.000000  -0.000017   0.006177   0.004818   0.000070
    33  H    0.006594   0.000051  -0.000000   0.000003  -0.000001  -0.000000
    34  H    0.006117  -0.000096  -0.000000   0.000004   0.000003   0.000009
    35  H   -0.006475   0.001735   0.000000  -0.000002   0.000000   0.000005
    36  H    0.003012  -0.000003  -0.000000   0.005322   0.000221   0.001551
    37  H    0.000073   0.000000   0.000000   0.000023   0.001054  -0.000032
    38  H    0.000093  -0.000030  -0.000000   0.000000   0.000000  -0.000000
    39  H    0.002545  -0.000022   0.000000  -0.000002  -0.000000  -0.000000
    40  H    0.000195   0.001603   0.000000  -0.000000  -0.000000  -0.000000
    41  H    0.001883   0.002530  -0.000000  -0.000000   0.000000   0.000000
    42  H    0.007652  -0.042311  -0.000000  -0.000000   0.000000   0.000000
    43  H    0.375240   0.000248  -0.000000   0.000235   0.000000  -0.000004
    44  H    0.379853  -0.000206  -0.000000   0.000002   0.000000   0.000000
    45  H    0.375492   0.005575   0.000000   0.000001   0.000000  -0.000000
    46  H   -0.001053   0.241686   0.000000  -0.000000   0.000000   0.000000
              25         26         27         28         29         30
     1  C   -0.026522  -0.024243   0.000214  -0.000134   0.000001   0.000001
     2  O   -0.001049   0.001910  -0.000001   0.000007  -0.000000  -0.000000
     3  C    0.001755   0.004468  -0.002408  -0.009293  -0.000215  -0.000086
     4  C   -0.000751  -0.000197  -0.038192  -0.037695  -0.002710   0.003983
     5  C   -0.003687   0.004042   0.003882   0.001124   0.000676  -0.000008
     6  C   -0.036872  -0.029726  -0.000144   0.000085   0.000006   0.000010
     7  C    0.367309   0.370063   0.000008  -0.000074  -0.000002  -0.000000
     8  C   -0.000009   0.000007   0.378456   0.378516  -0.035387  -0.032118
     9  C   -0.000001   0.000000  -0.030568  -0.041496   0.379518   0.379438
    10  C    0.000002   0.000001   0.003978  -0.003785  -0.038748  -0.032935
    11  C   -0.000010  -0.000067  -0.000163  -0.000844  -0.008857   0.005029
    12  C    0.000000  -0.000000  -0.000097  -0.000047  -0.004815  -0.005919
    13  C   -0.000000  -0.000000   0.000001   0.000003  -0.000007   0.000026
    14  C   -0.000000  -0.000000  -0.000000   0.000000  -0.000005  -0.000004
    15  C   -0.000031   0.000001   0.000008  -0.000006   0.000093  -0.000127
    16  C    0.000000   0.000000  -0.000001  -0.000009  -0.000363   0.003307
    17  C    0.000000  -0.000000  -0.000000  -0.000000  -0.000014  -0.000011
    18  C   -0.000000   0.000000  -0.000000  -0.000000  -0.000005  -0.000007
    19  C   -0.000000   0.000000   0.000000  -0.000002  -0.000002  -0.000006
    20  O    0.000000  -0.000000   0.000000   0.000000   0.000000  -0.000000
    21  H   -0.000160  -0.000103   0.004824   0.000192  -0.000009  -0.000007
    22  H    0.004682  -0.000141  -0.000097   0.001124   0.000078  -0.000008
    23  H    0.004819  -0.003586  -0.000002   0.000002  -0.000004   0.000000
    24  H   -0.004806  -0.002082   0.000002   0.000007   0.000002   0.000000
    25  H    0.529585  -0.021575  -0.000000   0.000008   0.000000   0.000000
    26  H   -0.021575   0.503600   0.000000  -0.000001  -0.000000   0.000000
    27  H   -0.000000   0.000000   0.527546  -0.025442  -0.003802  -0.001024
    28  H    0.000008  -0.000001  -0.025442   0.549225   0.004970  -0.006239
    29  H    0.000000  -0.000000  -0.003802   0.004970   0.566672  -0.031723
    30  H    0.000000   0.000000  -0.001024  -0.006239  -0.031723   0.554300
    31  H   -0.000001   0.000000   0.000022   0.003960   0.005553  -0.002880
    32  H    0.000008  -0.000001  -0.000078   0.000125   0.006478   0.000121
    33  H   -0.000000   0.000000   0.000002   0.000004   0.004993  -0.000078
    34  H    0.000000   0.000000  -0.000000  -0.000000  -0.000007   0.000001
    35  H    0.000000   0.000000   0.000000  -0.000000   0.000000  -0.000000
    36  H    0.000010   0.000001  -0.000000  -0.000000  -0.000001   0.000004
    37  H    0.000011   0.000001  -0.000000  -0.000000  -0.000007   0.000002
    38  H    0.000000  -0.000000   0.000001   0.000003   0.000166   0.000667
    39  H   -0.000000   0.000000   0.000001  -0.000001   0.000052   0.000410
    40  H    0.000000   0.000000   0.000000   0.000000  -0.000000   0.000002
    41  H   -0.000000   0.000000   0.000000   0.000000  -0.000000   0.000001
    42  H    0.000000   0.000000   0.000000  -0.000000  -0.000003  -0.000000
    43  H    0.000000   0.000000  -0.000000  -0.000003  -0.000001   0.000002
    44  H    0.000000   0.000000  -0.000000   0.000000   0.000000   0.000000
    45  H    0.000000  -0.000000   0.000000   0.000000   0.000000  -0.000000
    46  H    0.000000   0.000000   0.000000   0.000000   0.000000   0.000000
              31         32         33         34         35         36
     1  C    0.000005   0.000028   0.000000   0.000000   0.000000   0.000002
     2  O    0.000000  -0.000000   0.000000   0.000000  -0.000000  -0.000000
     3  C   -0.000240  -0.000014  -0.000001  -0.000000  -0.000000  -0.000009
     4  C   -0.004033  -0.003598  -0.000062   0.000003   0.000001   0.000211
     5  C   -0.002295  -0.042014   0.000125   0.000057  -0.000110  -0.002971
     6  C    0.000223  -0.004252   0.000002  -0.000028   0.000004  -0.002399
     7  C   -0.000014  -0.000100  -0.000000  -0.000000  -0.000000  -0.000092
     8  C    0.000626  -0.000082   0.000122   0.000000  -0.000000  -0.000011
     9  C   -0.047648  -0.006990  -0.006321  -0.000048   0.000010  -0.000030
    10  C    0.380474  -0.047956  -0.045639  -0.000408  -0.000111  -0.003022
    11  C   -0.051836   0.375898  -0.005247  -0.003756   0.004258  -0.044898
    12  C   -0.043245  -0.003161   0.380904  -0.006549   0.006706  -0.000201
    13  C   -0.008275  -0.001115  -0.055178  -0.038416  -0.036304  -0.008267
    14  C    0.000373  -0.000360  -0.006576   0.377025   0.367982  -0.034581
    15  C   -0.001903  -0.045856  -0.000698  -0.035778  -0.033034   0.381609
    16  C   -0.004651  -0.000076  -0.043649   0.000046  -0.000231  -0.000014
    17  C   -0.000008   0.000004  -0.002123   0.000073  -0.000010   0.000002
    18  C    0.000043  -0.000057  -0.002412  -0.005320  -0.003885  -0.000038
    19  C    0.002201   0.000057   0.006594   0.006117  -0.006475   0.003012
    20  O   -0.000000   0.000000   0.000051  -0.000096   0.001735  -0.000003
    21  H   -0.000002  -0.000017  -0.000000  -0.000000   0.000000  -0.000000
    22  H    0.006604   0.006177   0.000003   0.000004  -0.000002   0.005322
    23  H    0.000007   0.004818  -0.000001   0.000003   0.000000   0.000221
    24  H    0.000002   0.000070  -0.000000   0.000009   0.000005   0.001551
    25  H   -0.000001   0.000008  -0.000000   0.000000   0.000000   0.000010
    26  H    0.000000  -0.000001   0.000000   0.000000   0.000000   0.000001
    27  H    0.000022  -0.000078   0.000002  -0.000000   0.000000  -0.000000
    28  H    0.003960   0.000125   0.000004  -0.000000  -0.000000  -0.000000
    29  H    0.005553   0.006478   0.004993  -0.000007   0.000000  -0.000001
    30  H   -0.002880   0.000121  -0.000078   0.000001  -0.000000   0.000004
    31  H    0.609966   0.006121   0.006251   0.000041  -0.000004   0.001280
    32  H    0.006121   0.609347   0.003925   0.003017  -0.000085   0.005596
    33  H    0.006251   0.003925   0.622543   0.005350   0.000033   0.000060
    34  H    0.000041   0.003017   0.005350   0.576942  -0.032936   0.004844
    35  H   -0.000004  -0.000085   0.000033  -0.032936   0.589973  -0.004380
    36  H    0.001280   0.005596   0.000060   0.004844  -0.004380   0.573711
    37  H   -0.000091  -0.006097  -0.000075  -0.004652  -0.001937  -0.032703
    38  H   -0.000141   0.000000  -0.006335  -0.000003   0.000003   0.000000
    39  H    0.004609   0.000003   0.005230  -0.000005   0.000005  -0.000004
    40  H    0.000001  -0.000000   0.000278  -0.000010   0.000000   0.000000
    41  H   -0.000020  -0.000000  -0.000058   0.000001   0.000001  -0.000000
    42  H   -0.000014  -0.000006   0.005592   0.006167   0.000100  -0.000003
    43  H    0.002926  -0.000014   0.000006  -0.000080  -0.000140   0.001318
    44  H    0.000148   0.000001  -0.000058  -0.000127  -0.000031  -0.000007
    45  H   -0.000026   0.000002  -0.000110   0.000051   0.005076   0.000523
    46  H    0.000000  -0.000000  -0.000002  -0.000047   0.003362  -0.000000
              37         38         39         40         41         42
     1  C   -0.000011   0.000000   0.000000   0.000000   0.000000   0.000000
     2  O   -0.000000  -0.000000  -0.000000  -0.000000  -0.000000   0.000000
     3  C    0.000017   0.000000  -0.000000   0.000000  -0.000000  -0.000000
     4  C   -0.000181  -0.000000  -0.000001   0.000000  -0.000000   0.000000
     5  C   -0.006466   0.000001   0.000001  -0.000000  -0.000000   0.000000
     6  C    0.002326  -0.000000   0.000000   0.000000   0.000000  -0.000000
     7  C    0.000113   0.000000  -0.000000  -0.000000  -0.000000  -0.000000
     8  C   -0.000011  -0.000015  -0.000023  -0.000000  -0.000000  -0.000000
     9  C   -0.000116   0.001110  -0.000408  -0.000003   0.000002   0.000007
    10  C    0.004063  -0.001030  -0.004568  -0.000056  -0.000125  -0.000174
    11  C   -0.029266  -0.000078   0.000072   0.000003   0.000002  -0.000017
    12  C    0.000076  -0.026242  -0.038822   0.001829   0.003175  -0.002502
    13  C    0.004794   0.005221  -0.005162   0.004619  -0.005446  -0.070026
    14  C   -0.034141  -0.000144  -0.000008  -0.000129  -0.000133  -0.010241
    15  C    0.380752  -0.000004  -0.000016   0.000003   0.000004   0.000097
    16  C    0.000008   0.378192   0.384190  -0.029894  -0.028225   0.002853
    17  C    0.000003  -0.027539  -0.033334   0.379346   0.373067  -0.050463
    18  C   -0.000078   0.002246   0.002310  -0.026838  -0.031343   0.389755
    19  C    0.000073   0.000093   0.002545   0.000195   0.001883   0.007652
    20  O    0.000000  -0.000030  -0.000022   0.001603   0.002530  -0.042311
    21  H    0.000000  -0.000000   0.000000   0.000000  -0.000000  -0.000000
    22  H    0.000023   0.000000  -0.000002  -0.000000  -0.000000  -0.000000
    23  H    0.001054   0.000000  -0.000000  -0.000000   0.000000   0.000000
    24  H   -0.000032  -0.000000  -0.000000  -0.000000   0.000000   0.000000
    25  H    0.000011   0.000000  -0.000000   0.000000  -0.000000   0.000000
    26  H    0.000001  -0.000000   0.000000   0.000000   0.000000   0.000000
    27  H   -0.000000   0.000001   0.000001   0.000000   0.000000   0.000000
    28  H   -0.000000   0.000003  -0.000001   0.000000   0.000000  -0.000000
    29  H   -0.000007   0.000166   0.000052  -0.000000  -0.000000  -0.000003
    30  H    0.000002   0.000667   0.000410   0.000002   0.000001  -0.000000
    31  H   -0.000091  -0.000141   0.004609   0.000001  -0.000020  -0.000014
    32  H   -0.006097   0.000000   0.000003  -0.000000  -0.000000  -0.000006
    33  H   -0.000075  -0.006335   0.005230   0.000278  -0.000058   0.005592
    34  H   -0.004652  -0.000003  -0.000005  -0.000010   0.000001   0.006167
    35  H   -0.001937   0.000003   0.000005   0.000000   0.000001   0.000100
    36  H   -0.032703   0.000000  -0.000004   0.000000  -0.000000  -0.000003
    37  H    0.556036  -0.000000  -0.000000  -0.000000  -0.000000  -0.000004
    38  H   -0.000000   0.547183  -0.033087  -0.005887   0.002663  -0.000044
    39  H   -0.000000  -0.033087   0.564306   0.003280  -0.009675  -0.000174
    40  H   -0.000000  -0.005887   0.003280   0.535294  -0.027363  -0.006932
    41  H   -0.000000   0.002663  -0.009675  -0.027363   0.532971   0.005225
    42  H   -0.000004  -0.000044  -0.000174  -0.006932   0.005225   0.639962
    43  H    0.000067  -0.000013   0.000061  -0.000001   0.000040  -0.000077
    44  H   -0.000001   0.000029   0.000615  -0.000023   0.001368   0.000020
    45  H   -0.000043  -0.000001   0.000008  -0.000006   0.000145   0.000107
    46  H    0.000003   0.000004   0.000005  -0.000194  -0.000064  -0.002556
              43         44         45         46
     1  C    0.000000  -0.000000   0.000000  -0.000000
     2  O    0.000000  -0.000000   0.000000   0.000000
     3  C   -0.000000   0.000000  -0.000000  -0.000000
     4  C   -0.000002   0.000000  -0.000000   0.000000
     5  C    0.000108  -0.000002  -0.000006  -0.000000
     6  C    0.000003  -0.000000   0.000000   0.000000
     7  C   -0.000000   0.000000   0.000000   0.000000
     8  C    0.000011  -0.000000  -0.000000   0.000000
     9  C   -0.000023  -0.000018   0.000000   0.000000
    10  C    0.002153  -0.000092  -0.000042  -0.000004
    11  C   -0.000606   0.000027   0.000117   0.000001
    12  C   -0.006618  -0.003749   0.005671   0.000337
    13  C   -0.032146  -0.028266  -0.030661  -0.006137
    14  C   -0.005510   0.004673  -0.005067   0.003177
    15  C    0.001847   0.000087  -0.000687  -0.000080
    16  C   -0.000049   0.001323  -0.000177  -0.000321
    17  C   -0.000273   0.003956  -0.000051   0.006701
    18  C    0.005009  -0.006061  -0.005391  -0.026278
    19  C    0.375240   0.379853   0.375492  -0.001053
    20  O    0.000248  -0.000206   0.005575   0.241686
    21  H   -0.000000  -0.000000   0.000000   0.000000
    22  H    0.000235   0.000002   0.000001  -0.000000
    23  H    0.000000   0.000000   0.000000   0.000000
    24  H   -0.000004   0.000000  -0.000000   0.000000
    25  H    0.000000   0.000000   0.000000   0.000000
    26  H    0.000000   0.000000  -0.000000   0.000000
    27  H   -0.000000  -0.000000   0.000000   0.000000
    28  H   -0.000003   0.000000   0.000000   0.000000
    29  H   -0.000001   0.000000   0.000000   0.000000
    30  H    0.000002   0.000000  -0.000000   0.000000
    31  H    0.002926   0.000148  -0.000026   0.000000
    32  H   -0.000014   0.000001   0.000002  -0.000000
    33  H    0.000006  -0.000058  -0.000110  -0.000002
    34  H   -0.000080  -0.000127   0.000051  -0.000047
    35  H   -0.000140  -0.000031   0.005076   0.003362
    36  H    0.001318  -0.000007   0.000523  -0.000000
    37  H    0.000067  -0.000001  -0.000043   0.000003
    38  H   -0.000013   0.000029  -0.000001   0.000004
    39  H    0.000061   0.000615   0.000008   0.000005
    40  H   -0.000001  -0.000023  -0.000006  -0.000194
    41  H    0.000040   0.001368   0.000145  -0.000064
    42  H   -0.000077   0.000020   0.000107  -0.002556
    43  H    0.556433  -0.028031  -0.030902  -0.000066
    44  H   -0.028031   0.526647  -0.024729   0.000072
    45  H   -0.030902  -0.024729   0.540419   0.000799
    46  H   -0.000066   0.000072   0.000799   0.374245
 Mulliken charges:
               1
     1  C    0.451732
     2  O   -0.511555
     3  C   -0.270565
     4  C    0.161714
     5  C   -0.182380
     6  C   -0.330382
     7  C   -0.405177
     8  C   -0.384937
     9  C   -0.309485
    10  C   -0.129537
    11  C   -0.115638
    12  C   -0.118251
    13  C    0.009935
    14  C   -0.314709
    15  C   -0.322635
    16  C   -0.327170
    17  C   -0.344331
    18  C    0.143852
    19  C   -0.504278
    20  O   -0.659119
    21  H    0.172403
    22  H    0.161701
    23  H    0.165267
    24  H    0.167530
    25  H    0.187287
    26  H    0.197627
    27  H    0.183074
    28  H    0.185717
    29  H    0.157429
    30  H    0.165874
    31  H    0.135891
    32  H    0.140132
    33  H    0.132556
    34  H    0.148517
    35  H    0.140420
    36  H    0.154358
    37  H    0.166493
    38  H    0.163011
    39  H    0.157610
    40  H    0.170884
    41  H    0.179373
    42  H    0.128009
    43  H    0.158852
    44  H    0.172582
    45  H    0.163911
    46  H    0.406409
 Sum of Mulliken charges =  -0.00000
 Mulliken charges with hydrogens summed into heavy atoms:
               1
     1  C    0.451732
     2  O   -0.511555
     3  C   -0.098163
     4  C    0.161714
     5  C   -0.020679
     6  C    0.002415
     7  C   -0.020263
     8  C   -0.016146
     9  C    0.013818
    10  C    0.006354
    11  C    0.024494
    12  C    0.014305
    13  C    0.009935
    14  C   -0.025773
    15  C   -0.001784
    16  C   -0.006549
    17  C    0.005926
    18  C    0.271861
    19  C   -0.008933
    20  O   -0.252710
 Electronic spatial extent (au):  <R**2>=           6871.4988
 Charge=             -0.0000 electrons
 Dipole moment (field-independent basis, Debye):
    X=             -3.4242    Y=             -0.2265    Z=             -0.6409  Tot=              3.4910
 Quadrupole moment (field-independent basis, Debye-Ang):
   XX=           -173.0915   YY=           -111.7588   ZZ=           -118.9781
   XY=             -0.3408   XZ=              1.1467   YZ=              0.9595
 Traceless Quadrupole moment (field-independent basis, Debye-Ang):
   XX=            -38.4820   YY=             22.8506   ZZ=             15.6314
   XY=             -0.3408   XZ=              1.1467   YZ=              0.9595
 Octapole moment (field-independent basis, Debye-Ang**2):
  XXX=           -188.2756  YYY=            -13.1724  ZZZ=              1.3454  XYY=             -3.9746
  XXY=              0.8571  XXZ=            -25.2265  XZZ=             -2.1050  YZZ=             -2.2048
  YYZ=             -3.0707  XYZ=             -5.4353
 Hexadecapole moment (field-independent basis, Debye-Ang**3):
 XXXX=          -9539.3238 YYYY=          -1402.4423 ZZZZ=           -408.8921 XXXY=            -38.4631
 XXXZ=            -32.8470 YYYX=             83.0084 YYYZ=             -0.1949 ZZZX=             13.8942
 ZZZY=              4.0994 XXYY=          -1290.4127 XXZZ=          -1228.0960 YYZZ=           -310.1853
 XXYZ=             19.3416 YYXZ=             10.2825 ZZXY=             -2.8086
 N-N= 1.665143936453D+03 E-N=-5.307127315521D+03  KE= 8.439486562641D+02

 **********************************************************************

            Electrostatic Properties Using The SCF Density.

 **********************************************************************

       Atomic Center    1 is at   4.676031 -0.191591  0.088677
       Atomic Center    2 is at   5.912520 -0.113286  0.226329
       Atomic Center    3 is at   3.858123  0.965546 -0.163131
       Atomic Center    4 is at   2.506098  0.927053 -0.031828
       Atomic Center    5 is at   1.768975 -0.376029  0.174663
       Atomic Center    6 is at   2.606254 -1.560250 -0.306027
       Atomic Center    7 is at   4.005460 -1.526171  0.284617
       Atomic Center    8 is at   1.728492  2.201824  0.058337
       Atomic Center    9 is at   0.272341  2.133688 -0.407006
       Atomic Center   10 is at  -0.419938  0.865514  0.093460
       Atomic Center   11 is at   0.364479 -0.345802 -0.461153
       Atomic Center   12 is at  -1.889187  0.791937 -0.303146
       Atomic Center   13 is at  -2.544819 -0.553183  0.057496
       Atomic Center   14 is at  -1.818099 -1.666345 -0.685869
       Atomic Center   15 is at  -0.338871 -1.702346 -0.296578
       Atomic Center   16 is at  -2.879890  1.828583  0.253381
       Atomic Center   17 is at  -4.270064  1.150065  0.083402
       Atomic Center   18 is at  -3.966266 -0.262726 -0.444365
       Atomic Center   19 is at  -2.552880 -0.840678  1.567271
       Atomic Center   20 is at  -4.973774 -1.193393 -0.050459
       Atomic Center   21 is at   4.375331  1.909664 -0.311774
       Atomic Center   22 is at   1.616699 -0.458118  1.263509
       Atomic Center   23 is at   2.664649 -1.541236 -1.403836
       Atomic Center   24 is at   2.125876 -2.502323 -0.029094
       Atomic Center   25 is at   3.965384 -1.697927  1.370217
       Atomic Center   26 is at   4.650234 -2.310279 -0.124841
       Atomic Center   27 is at   2.267792  3.012530 -0.444826
       Atomic Center   28 is at   1.723985  2.462003  1.129458
       Atomic Center   29 is at   0.223660  2.157414 -1.504272
       Atomic Center   30 is at  -0.247992  3.028307 -0.052626
       Atomic Center   31 is at  -0.354748  0.843862  1.188774
       Atomic Center   32 is at   0.490618 -0.172873 -1.543480
       Atomic Center   33 is at  -1.928296  0.865842 -1.403436
       Atomic Center   34 is at  -1.911911 -1.505752 -1.771163
       Atomic Center   35 is at  -2.270495 -2.641181 -0.467981
       Atomic Center   36 is at  -0.233666 -2.040575  0.742085
       Atomic Center   37 is at   0.166021 -2.446836 -0.923821
       Atomic Center   38 is at  -2.814699  2.790827 -0.259265
       Atomic Center   39 is at  -2.675150  2.017591  1.312989
       Atomic Center   40 is at  -4.923796  1.699406 -0.601254
       Atomic Center   41 is at  -4.782932  1.067473  1.047016
       Atomic Center   42 is at  -3.939656 -0.246959 -1.546335
       Atomic Center   43 is at  -1.546588 -0.827738  1.990872
       Atomic Center   44 is at  -3.164887 -0.131718  2.131033
       Atomic Center   45 is at  -2.953451 -1.841874  1.752405
       Atomic Center   46 is at  -4.669391 -2.070627 -0.320529
 -----------------------------------------------------------------

              Electrostatic Properties (Atomic Units)

 -----------------------------------------------------------------
    Center     Electric         -------- Electric Field --------
               Potential          X             Y             Z
 -----------------------------------------------------------------
    1 Atom    -14.671511      0.004309     -0.002136      0.000491
    2 Atom    -22.354338      0.103655      0.006573      0.011345
    3 Atom    -14.745941     -0.009426      0.000027      0.001108
    4 Atom    -14.707832      0.012464     -0.000350     -0.001858
    5 Atom    -14.717765     -0.002591     -0.003274     -0.001952
    6 Atom    -14.731966     -0.000202     -0.001310     -0.000100
    7 Atom    -14.739916      0.000801     -0.000196     -0.001704
    8 Atom    -14.724032     -0.001936      0.002532     -0.000563
    9 Atom    -14.731352     -0.002581     -0.001694     -0.000474
   10 Atom    -14.728901     -0.001118     -0.000206     -0.001185
   11 Atom    -14.724465     -0.001682      0.000867      0.000311
   12 Atom    -14.735498      0.000043     -0.001836      0.002344
   13 Atom    -14.732260     -0.001493      0.002265     -0.002426
   14 Atom    -14.734671     -0.001166      0.003583      0.001558
   15 Atom    -14.732939      0.000066      0.000093     -0.000326
   16 Atom    -14.737534      0.001483     -0.000008      0.000232
   17 Atom    -14.742540     -0.002270     -0.001167      0.000831
   18 Atom    -14.692110      0.017162      0.012936     -0.004975
   19 Atom    -14.746878     -0.000795     -0.000154     -0.001037
   20 Atom    -22.314612     -0.097254      0.031229      0.053106
   21 Atom     -1.105373      0.017495      0.028094     -0.003803
   22 Atom     -1.102746     -0.004853     -0.006376      0.031984
   23 Atom     -1.116411      0.001221      0.000004     -0.029370
   24 Atom     -1.117198     -0.013880     -0.026337      0.006376
   25 Atom     -1.106083      0.000064     -0.006469      0.029227
   26 Atom     -1.113907      0.019743     -0.018722     -0.010736
   27 Atom     -1.106712      0.014433      0.021846     -0.013352
   28 Atom     -1.101863      0.000308      0.010317      0.028134
   29 Atom     -1.117343     -0.001873      0.001851     -0.029825
   30 Atom     -1.117137     -0.016455      0.025098      0.009155
   31 Atom     -1.118553      0.000376      0.000453      0.033392
   32 Atom     -1.118267      0.003269      0.003814     -0.030139
   33 Atom     -1.122948     -0.000773      0.002431     -0.030365
   34 Atom     -1.116877     -0.002904      0.003324     -0.028514
   35 Atom     -1.115900     -0.011153     -0.029033      0.005190
   36 Atom     -1.117262      0.002505     -0.012003      0.027707
   37 Atom     -1.118324      0.013588     -0.020134     -0.014682
   38 Atom     -1.123737      0.001230      0.027045     -0.014419
   39 Atom     -1.124058      0.005674      0.006441      0.028939
   40 Atom     -1.126501     -0.018720      0.014095     -0.016378
   41 Atom     -1.126006     -0.017457     -0.003657      0.023655
   42 Atom     -1.130124      0.000472      0.001773     -0.031384
   43 Atom     -1.118503      0.026966      0.001255      0.013847
   44 Atom     -1.119633     -0.017348      0.016946      0.016119
   45 Atom     -1.121185     -0.014427     -0.025441      0.007153
   46 Atom     -0.999014      0.008912     -0.040634     -0.011127
 -----------------------------------------------------------------
 -----------------------------------------------------
    Center         ---- Electric Field Gradient ----
                     XX            YY            ZZ
 -----------------------------------------------------
    1 Atom     -493.261234   -493.195620   -493.912615
    2 Atom    -1217.216930  -1214.656779  -1217.562209
    3 Atom     -493.083252   -493.158616   -493.387919
    4 Atom     -493.152697   -493.255979   -493.810947
    5 Atom     -492.751179   -492.791239   -492.772194
    6 Atom     -492.613665   -492.594404   -492.590602
    7 Atom     -492.705888   -492.718162   -492.720483
    8 Atom     -492.568063   -492.602934   -492.565405
    9 Atom     -492.670955   -492.616625   -492.624366
   10 Atom     -492.756373   -492.777644   -492.758222
   11 Atom     -492.821137   -492.793683   -492.795404
   12 Atom     -492.901465   -492.909807   -492.892988
   13 Atom     -492.917622   -492.933774   -492.974535
   14 Atom     -492.718374   -492.691360   -492.703371
   15 Atom     -492.639548   -492.633957   -492.603232
   16 Atom     -492.654322   -492.591038   -492.571165
   17 Atom     -492.638616   -492.651090   -492.582912
   18 Atom     -492.861342   -492.857322   -492.676259
   19 Atom     -492.532648   -492.540299   -492.585065
   20 Atom    -1214.387917  -1216.040010  -1213.092804
   21 Atom       -1.705715     -1.945898     -1.599043
   22 Atom       -1.627528     -1.622413     -2.018874
   23 Atom       -1.620229     -1.615633     -2.035788
   24 Atom       -1.718030     -1.953064     -1.656182
   25 Atom       -1.599010     -1.608312     -2.009443
   26 Atom       -1.748508     -1.823754     -1.661443
   27 Atom       -1.721733     -1.848419     -1.700781
   28 Atom       -1.606058     -1.629537     -1.996944
   29 Atom       -1.625047     -1.623504     -2.044916
   30 Atom       -1.728011     -1.917806     -1.671528
   31 Atom       -1.643781     -1.640375     -2.060169
   32 Atom       -1.639869     -1.647385     -2.025750
   33 Atom       -1.646451     -1.642453     -2.044244
   34 Atom       -1.625889     -1.630161     -2.026110
   35 Atom       -1.709850     -1.970661     -1.645499
   36 Atom       -1.632170     -1.665954     -2.007460
   37 Atom       -1.722547     -1.825190     -1.765952
   38 Atom       -1.629495     -1.968851     -1.725032
   39 Atom       -1.641395     -1.637144     -2.030405
   40 Atom       -1.775226     -1.733509     -1.793151
   41 Atom       -1.706769     -1.613840     -1.950795
   42 Atom       -1.675444     -1.676061     -2.077563
   43 Atom       -1.994896     -1.611398     -1.682647
   44 Atom       -1.738084     -1.791338     -1.724092
   45 Atom       -1.658724     -1.974452     -1.622140
   46 Atom       -1.521424     -2.005201     -1.477801
 -----------------------------------------------------
 -----------------------------------------------------
    Center         ---- Electric Field Gradient ----
                     XY            XZ            YZ
 -----------------------------------------------------
    1 Atom        0.005666      0.082555     -0.129612
    2 Atom       -0.077382      0.075356     -0.532722
    3 Atom       -0.008024     -0.026199     -0.037243
    4 Atom       -0.002408     -0.062770     -0.031052
    5 Atom       -0.025411     -0.010636     -0.001749
    6 Atom        0.029446     -0.003811     -0.025018
    7 Atom       -0.008371     -0.026986      0.004696
    8 Atom        0.025036     -0.019105     -0.006971
    9 Atom       -0.008138     -0.015158      0.022806
   10 Atom        0.000953      0.009430     -0.004409
   11 Atom       -0.005617     -0.015493     -0.010021
   12 Atom        0.015807     -0.004597      0.002583
   13 Atom        0.003764      0.005267      0.006492
   14 Atom       -0.015273     -0.008764     -0.009197
   15 Atom       -0.016825     -0.009503      0.012019
   16 Atom       -0.007127      0.007308     -0.017866
   17 Atom       -0.023949     -0.010022     -0.036767
   18 Atom       -0.208347      0.090337      0.104689
   19 Atom        0.000322     -0.003550      0.014480
   20 Atom       -0.464918      0.798598     -0.186205
   21 Atom       -0.180602      0.029681      0.056243
   22 Atom       -0.003867      0.057676      0.033010
   23 Atom        0.002392      0.021233      0.007160
   24 Atom       -0.163956      0.048205      0.095037
   25 Atom       -0.005075      0.017582      0.065583
   26 Atom        0.180698      0.095220     -0.118420
   27 Atom       -0.153041      0.097239      0.148028
   28 Atom        0.003697      0.002395     -0.096305
   29 Atom       -0.002197     -0.019034      0.008076
   30 Atom        0.168065      0.066577     -0.116630
   31 Atom       -0.000233     -0.025547      0.009151
   32 Atom       -0.007703      0.044868      0.062387
   33 Atom       -0.000192     -0.014066      0.026276
   34 Atom        0.006893     -0.035031      0.060702
   35 Atom       -0.158834      0.036283      0.076230
   36 Atom        0.010258     -0.039127      0.124276
   37 Atom        0.132592      0.112138     -0.166180
   38 Atom       -0.023358      0.012042      0.184228
   39 Atom       -0.014352     -0.077243     -0.071238
   40 Atom        0.130010     -0.163234      0.136835
   41 Atom       -0.013697      0.176697      0.026732
   42 Atom       -0.006341      0.013249      0.006477
   43 Atom       -0.006101     -0.156696     -0.001769
   44 Atom        0.163793      0.126064     -0.145143
   45 Atom       -0.149335      0.027195      0.065798
   46 Atom        0.178255      0.078038     -0.169682
 -----------------------------------------------------
 -----------------------------------------------------
    Center         ---- Electric Field Gradient ----
                   ----       Eigenvalues       ----
 -----------------------------------------------------
    1 Atom     -493.945228   -493.252266   -493.171974
    2 Atom    -1217.665066  -1217.211676  -1214.559177
    3 Atom     -493.396169   -493.152920   -493.080698
    4 Atom     -493.818603   -493.254258   -493.146763
    5 Atom     -492.804794   -492.773181   -492.736636
    6 Atom     -492.638377   -492.603172   -492.557123
    7 Atom     -492.741227   -492.720623   -492.682684
    8 Atom     -492.616168   -492.580895   -492.539339
    9 Atom     -492.675488   -492.642455   -492.594003
   10 Atom     -492.779049   -492.765541   -492.747648
   11 Atom     -492.830828   -492.796377   -492.783019
   12 Atom     -492.922778   -492.893246   -492.888236
   13 Atom     -492.975914   -492.933980   -492.916037
   14 Atom     -492.730463   -492.699513   -492.683127
   15 Atom     -492.653815   -492.628847   -492.594076
   16 Atom     -492.655468   -492.601437   -492.559620
   17 Atom     -492.682496   -492.623261   -492.566860
   18 Atom     -493.111388   -492.655574   -492.627961
   19 Atom     -492.589555   -492.536153   -492.532303
   20 Atom    -1216.162040  -1214.687369  -1212.671321
   21 Atom       -2.051627     -1.608930     -1.590099
   22 Atom       -2.029906     -1.620374     -1.618536
   23 Atom       -2.036987     -1.620629     -1.614034
   24 Atom       -2.065042     -1.633875     -1.628359
   25 Atom       -2.020676     -1.600295     -1.595794
   26 Atom       -2.032869     -1.601798     -1.599038
   27 Atom       -2.042498     -1.619592     -1.608844
   28 Atom       -2.020681     -1.608947     -1.602910
   29 Atom       -2.045927     -1.626363     -1.621177
   30 Atom       -2.062088     -1.630214     -1.625043
   31 Atom       -2.061928     -1.642490     -1.639907
   32 Atom       -2.040938     -1.637450     -1.634616
   33 Atom       -2.046447     -1.646184     -1.640518
   34 Atom       -2.038291     -1.623773     -1.620096
   35 Atom       -2.062842     -1.634754     -1.628414
   36 Atom       -2.051783     -1.629620     -1.624181
   37 Atom       -2.055058     -1.631964     -1.626666
   38 Atom       -2.069423     -1.628026     -1.625929
   39 Atom       -2.057736     -1.626837     -1.624370
   40 Atom       -2.057596     -1.623612     -1.620677
   41 Atom       -2.045602     -1.614088     -1.611714
   42 Atom       -2.078110     -1.681621     -1.669337
   43 Atom       -2.060058     -1.617653     -1.611230
   44 Atom       -2.045599     -1.609423     -1.598492
   45 Atom       -2.045856     -1.610256     -1.599204
   46 Atom       -2.117660     -1.471477     -1.415288
 -----------------------------------------------------
 -----------------------------------------------------
    Center         ---- Electric Field Gradient ----
                       ( tensor representation )
                   3XX-RR        3YY-RR        3ZZ-RR
 -----------------------------------------------------
    1 Atom        0.195256      0.260870     -0.456126
    2 Atom       -0.738290      1.821860     -1.083570
    3 Atom        0.126677      0.051313     -0.177990
    4 Atom        0.253844      0.150562     -0.404406
    5 Atom        0.020358     -0.019702     -0.000657
    6 Atom       -0.014108      0.005153      0.008955
    7 Atom        0.008956     -0.003317     -0.005639
    8 Atom        0.010738     -0.024133      0.013395
    9 Atom       -0.033640      0.020690      0.012950
   10 Atom        0.007707     -0.013564      0.005857
   11 Atom       -0.017729      0.009725      0.008004
   12 Atom       -0.000045     -0.008387      0.008432
   13 Atom        0.024355      0.008203     -0.032558
   14 Atom       -0.014006      0.013008      0.000997
   15 Atom       -0.013969     -0.008378      0.022347
   16 Atom       -0.048814      0.014471      0.034343
   17 Atom       -0.014410     -0.026884      0.041294
   18 Atom       -0.063034     -0.059015      0.122049
   19 Atom        0.020023      0.012372     -0.032394
   20 Atom        0.118993     -1.533099      1.414106
   21 Atom        0.044504     -0.195680      0.151176
   22 Atom        0.128743      0.133858     -0.262602
   23 Atom        0.136988      0.141584     -0.278571
   24 Atom        0.057728     -0.177305      0.119577
   25 Atom        0.139912      0.130609     -0.270521
   26 Atom       -0.003940     -0.079186      0.083126
   27 Atom        0.035245     -0.091441      0.056197
   28 Atom        0.138122      0.114642     -0.252764
   29 Atom        0.139442      0.140984     -0.280427
   30 Atom        0.044437     -0.145357      0.100920
   31 Atom        0.137660      0.141067     -0.278727
   32 Atom        0.131132      0.123616     -0.254749
   33 Atom        0.131265      0.135263     -0.266528
   34 Atom        0.134831      0.130559     -0.265390
   35 Atom        0.065487     -0.195324      0.129838
   36 Atom        0.136358      0.102574     -0.238932
   37 Atom        0.048683     -0.053960      0.005277
   38 Atom        0.144965     -0.194392      0.049427
   39 Atom        0.128253      0.132504     -0.260757
   40 Atom       -0.007931      0.033787     -0.025856
   41 Atom        0.050366      0.143294     -0.193660
   42 Atom        0.134245      0.133629     -0.267874
   43 Atom       -0.231916      0.151583      0.080333
   44 Atom        0.013087     -0.040167      0.027080
   45 Atom        0.093048     -0.222680      0.129632
   46 Atom        0.146718     -0.337059      0.190341
 -----------------------------------------------------
 -----------------------------------------------------
    Center         ---- Electric Field Gradient ----
                       ( tensor representation )
                   ----       Eigenvalues       ----
 -----------------------------------------------------
    1 Atom       -0.488739      0.204224      0.284515
    2 Atom       -1.186426     -0.733037      1.919463
    3 Atom       -0.186240      0.057009      0.129231
    4 Atom       -0.412062      0.152283      0.259779
    5 Atom       -0.033257     -0.001644      0.034901
    6 Atom       -0.038819     -0.003615      0.042434
    7 Atom       -0.026383     -0.005778      0.032161
    8 Atom       -0.037368     -0.002094      0.039462
    9 Atom       -0.038173     -0.005140      0.043313
   10 Atom       -0.014970     -0.001461      0.016431
   11 Atom       -0.027420      0.007031      0.020389
   12 Atom       -0.021358      0.008174      0.013184
   13 Atom       -0.033937      0.007997      0.025940
   14 Atom       -0.026095      0.004855      0.021240
   15 Atom       -0.028236     -0.003268      0.031503
   16 Atom       -0.049960      0.004071      0.045889
   17 Atom       -0.058290      0.000944      0.057346
   18 Atom       -0.313080      0.142734      0.170346
   19 Atom       -0.036884      0.016517      0.020367
   20 Atom       -1.655130     -0.180459      1.835589
   21 Atom       -0.301408      0.141288      0.160120
   22 Atom       -0.273634      0.135898      0.137736
   23 Atom       -0.279771      0.136588      0.143183
   24 Atom       -0.289284      0.141884      0.147399
   25 Atom       -0.281754      0.138626      0.143128
   26 Atom       -0.288301      0.142771      0.145530
   27 Atom       -0.285520      0.137386      0.148134
   28 Atom       -0.276502      0.135232      0.141269
   29 Atom       -0.281438      0.138126      0.143312
   30 Atom       -0.289640      0.142234      0.147405
   31 Atom       -0.280486      0.138952      0.141535
   32 Atom       -0.269937      0.133552      0.136385
   33 Atom       -0.268731      0.131532      0.137198
   34 Atom       -0.277571      0.136947      0.140624
   35 Atom       -0.287505      0.140583      0.146923
   36 Atom       -0.283255      0.138908      0.144347
   37 Atom       -0.283828      0.139265      0.144563
   38 Atom       -0.294963      0.146433      0.148530
   39 Atom       -0.288088      0.142811      0.145278
   40 Atom       -0.290301      0.143683      0.146618
   41 Atom       -0.288467      0.143047      0.145420
   42 Atom       -0.268421      0.128069      0.140352
   43 Atom       -0.297078      0.145328      0.151750
   44 Atom       -0.294428      0.141749      0.152679
   45 Atom       -0.294084      0.141516      0.152568
   46 Atom       -0.449518      0.196665      0.252854
 -----------------------------------------------------
 Unable to Open any file for archive entry.
 1\1\GINC-EXP-2-41\SP\RwB97XD\6-31G(d)\C18H26O2\HKLEM\12-Aug-2024\0\\# 
 wb97xd 6-31G(d) prop=efg\\19nt_mm_min_distance_cutoff3_ligand_conf_1\\
 0,1\C,0,3.4778,1.0913,-1.2531\O,0,4.7046,1.2318,-1.424\C,0,2.8592,-0.2
 055,-1.1695\C,0,1.513,-0.3626,-1.2683\C,0,0.576,0.8231,-1.2558\C,0,1.2
 408,2.0389,-0.6121\C,0,2.6021,2.3167,-1.2265\C,0,0.9377,-1.7162,-1.541
 5\C,0,-0.4904,-1.9509,-1.0445\C,0,-1.3903,-0.7478,-1.3286\C,0,-0.7787,
 0.4749,-0.6067\C,0,-2.8351,-0.9689,-0.8984\C,0,-3.7047,0.294,-1.0331\C
 ,0,-3.1269,1.3833,-0.139\C,0,-1.6888,1.7118,-0.5451\C,0,-3.6773,-2.053
 6,-1.5912\C,0,-5.1468,-1.6377,-1.2921\C,0,-5.0418,-0.2906,-0.5565\C,0,
 -3.8213,0.801,-2.4793\O,0,-6.1964,0.5171,-0.7821\H,0,3.5214,-1.0671,-1
 .1792\H,0,0.3666,1.0433,-2.3156\H,0,1.3482,1.864,0.4681\H,0,0.6098,2.9
 237,-0.7301\H,0,2.4898,2.6417,-2.2712\H,0,3.1354,3.1223,-0.7119\H,0,1.
 6163,-2.4976,-1.1807\H,0,0.9276,-1.8092,-2.6398\H,0,-0.488,-2.1473,0.0
 364\H,0,-0.8815,-2.8529,-1.5242\H,0,-1.376,-0.5511,-2.4082\H,0,-0.5814
 ,0.1629,0.433\H,0,-2.8154,-1.2132,0.1775\H,0,-3.1485,1.048,0.9096\H,0,
 -3.7328,2.2956,-0.1941\H,0,-1.6813,2.2152,-1.5202\H,0,-1.2782,2.4237,0
 .181\H,0,-3.443,-3.0595,-1.2359\H,0,-3.4913,-2.0457,-2.6709\H,0,-5.678
 4,-2.3807,-0.6894\H,0,-5.7069,-1.4931,-2.2215\H,0,-4.9661,-0.468,0.528
 9\H,0,-2.844,1.0119,-2.9182\H,0,-4.3404,0.0972,-3.1352\H,0,-4.3787,1.7
 423,-2.4989\H,0,-6.0194,1.3806,-0.3844\\Version=ES64L-G16RevC.01\State
 =1-A\HF=-851.7907458\RMSD=6.597e-09\Dipole=-1.3328405,-0.1647737,0.287
 6996\Quadrupole=-27.6154969,15.6285859,11.986911,-6.7006147,-0.2921431
 ,1.469262\PG=C01 [X(C18H26O2)]\\@
 The archive entry for this job was punched.


 FROM THE ASHES OF OUR DESPAIR GROW THE FLOWERS OF TOMORROW.
 Job cpu time:       0 days  0 hours 10 minutes 35.9 seconds.
 Elapsed time:       0 days  0 hours  0 minutes 29.3 seconds.
 File lengths (MBytes):  RWF=     71 Int=      0 D2E=      0 Chk=      8 Scr=      1
 Normal termination of Gaussian 16 at Mon Aug 12 07:11:18 2024.
