 Entering Gaussian System, Link 0=g16
 Initial command:
 /cm/shared/apps/spack/cpu/opt/spack/linux-centos8-zen/gcc-8.3.1/gaussian-16.C.01-po5bqktfeugvmjyga3v7eigbecnokxng/g16/l1.exe "/scratch/hklem/job_32994900/Gau-2643746.inp" -scrdir="/scratch/hklem/job_32994900/"
 Entering Link 1 = /cm/shared/apps/spack/cpu/opt/spack/linux-centos8-zen/gcc-8.3.1/gaussian-16.C.01-po5bqktfeugvmjyga3v7eigbecnokxng/g16/l1.exe PID=   2643755.
  
 Copyright (c) 1988-2019, Gaussian, Inc.  All Rights Reserved.
  
 This is part of the Gaussian(R) 16 program.  It is based on
 the Gaussian(R) 09 system (copyright 2009, Gaussian, Inc.),
 the Gaussian(R) 03 system (copyright 2003, Gaussian, Inc.),
 the Gaussian(R) 98 system (copyright 1998, Gaussian, Inc.),
 the Gaussian(R) 94 system (copyright 1995, Gaussian, Inc.),
 the Gaussian 92(TM) system (copyright 1992, Gaussian, Inc.),
 the Gaussian 90(TM) system (copyright 1990, Gaussian, Inc.),
 the Gaussian 88(TM) system (copyright 1988, Gaussian, Inc.),
 the Gaussian 86(TM) system (copyright 1986, Carnegie Mellon
 University), and the Gaussian 82(TM) system (copyright 1983,
 Carnegie Mellon University). Gaussian is a federally registered
 trademark of Gaussian, Inc.
  
 This software contains proprietary and confidential information,
 including trade secrets, belonging to Gaussian, Inc.
  
 This software is provided under written license and may be
 used, copied, transmitted, or stored only in accord with that
 written license.
  
 The following legend is applicable only to US Government
 contracts under FAR:
  
                    RESTRICTED RIGHTS LEGEND
  
 Use, reproduction and disclosure by the US Government is
 subject to restrictions as set forth in subparagraphs (a)
 and (c) of the Commercial Computer Software - Restricted
 Rights clause in FAR 52.227-19.
  
 Gaussian, Inc.
 340 Quinnipiac St., Bldg. 40, Wallingford CT 06492
  
  
 ---------------------------------------------------------------
 Warning -- This program may not be used in any manner that
 competes with the business of Gaussian, Inc. or will provide
 assistance to any competitor of Gaussian, Inc.  The licensee
 of this program is prohibited from giving any competitor of
 Gaussian, Inc. access to this program.  By using this program,
 the user acknowledges that Gaussian, Inc. is engaged in the
 business of creating and licensing software in the field of
 computational chemistry and represents and warrants to the
 licensee that it is not a competitor of Gaussian, Inc. and that
 it will not use this program in any manner prohibited above.
 ---------------------------------------------------------------
  

 Cite this work as:
 Gaussian 16, Revision C.01,
 M. J. Frisch, G. W. Trucks, H. B. Schlegel, G. E. Scuseria, 
 M. A. Robb, J. R. Cheeseman, G. Scalmani, V. Barone, 
 G. A. Petersson, H. Nakatsuji, X. Li, M. Caricato, A. V. Marenich, 
 J. Bloino, B. G. Janesko, R. Gomperts, B. Mennucci, H. P. Hratchian, 
 J. V. Ortiz, A. F. Izmaylov, J. L. Sonnenberg, D. Williams-Young, 
 F. Ding, F. Lipparini, F. Egidi, J. Goings, B. Peng, A. Petrone, 
 T. Henderson, D. Ranasinghe, V. G. Zakrzewski, J. Gao, N. Rega, 
 G. Zheng, W. Liang, M. Hada, M. Ehara, K. Toyota, R. Fukuda, 
 J. Hasegawa, M. Ishida, T. Nakajima, Y. Honda, O. Kitao, H. Nakai, 
 T. Vreven, K. Throssell, J. A. Montgomery, Jr., J. E. Peralta, 
 F. Ogliaro, M. J. Bearpark, J. J. Heyd, E. N. Brothers, K. N. Kudin, 
 V. N. Staroverov, T. A. Keith, R. Kobayashi, J. Normand, 
 K. Raghavachari, A. P. Rendell, J. C. Burant, S. S. Iyengar, 
 J. Tomasi, M. Cossi, J. M. Millam, M. Klene, C. Adamo, R. Cammi, 
 J. W. Ochterski, R. L. Martin, K. Morokuma, O. Farkas, 
 J. B. Foresman, and D. J. Fox, Gaussian, Inc., Wallingford CT, 2019.
 
 ******************************************
 Gaussian 16:  ES64L-G16RevC.01  3-Jul-2019
                12-Aug-2024 
 ******************************************
 %nprocshared=24
 Will use up to   24 processors via shared memory.
 %mem=48GB
 --------------------------
 # wb97xd 6-31G(d) prop=efg
 --------------------------
 1/38=1,172=1/1;
 2/12=2,17=6,18=5,40=1/2;
 3/5=1,6=6,7=1,11=2,25=1,30=1,74=-58/1,2,3;
 4//1;
 5/5=2,38=5/2;
 6/7=2,8=2,9=2,10=2,14=1,28=1/1,2;
 99/5=1,9=1/99;
 ----------------------------------------------------
 19nt_mm_min_distance_cutoff4_nowat_xtb_ligand_conf_1
 ----------------------------------------------------
 Symbolic Z-matrix:
 Charge =  0 Multiplicity = 1
 C                     41.9018   41.9066   31.3424 
 O                     41.8308   40.7573   31.8447 
 C                     42.5044   43.0095   31.9853 
 C                     42.6677   44.2115   31.3632 
 C                     42.4274   44.3993   29.9117 
 C                     42.2012   43.0688   29.1926 
 C                     41.2632   42.1966   30.0144 
 C                     42.9778   45.4312   32.1333 
 C                     43.9876   46.3663   31.4735 
 C                     43.6627   46.5882   29.9981 
 C                     43.5723   45.2245   29.2916 
 C                     44.7463   47.4148   29.3148 
 C                     44.4804   47.6229   27.8179 
 C                     44.4658   46.2538   27.1493 
 C                     43.3941   45.3634   27.7765 
 C                     45.0477   48.8272   29.8199 
 C                     45.7935   49.486    28.6418 
 C                     45.6893   48.5127   27.4481 
 C                     43.1919   48.3895   27.5178 
 O                     45.5787   49.2249   26.2429 
 H                     42.8036   42.8941   33.0174 
 H                     41.4948   45.0052   29.8489 
 H                     43.1577   42.5506   29.0584 
 H                     41.7583   43.2343   28.2109 
 H                     40.3403   42.7545   30.2023 
 H                     41.0041   41.274    29.4934 
 H                     43.289    45.1867   33.1484 
 H                     41.9972   45.9417   32.1948 
 H                     44.9881   45.9303   31.5631 
 H                     43.9912   47.3216   32.0012 
 H                     42.6962   47.0915   29.9292 
 H                     44.516    44.6884   29.47 
 H                     45.6799   46.8375   29.3871 
 H                     45.444    45.7829   27.2858 
 H                     44.291    46.347    26.0775 
 H                     42.4015   45.7643   27.571 
 H                     43.4569   44.3772   27.3116 
 H                     45.656    48.8179   30.7235 
 H                     44.1241   49.3537   30.0562 
 H                     46.8385   49.6764   28.8859 
 H                     45.3457   50.4357   28.3526 
 H                     46.5921   47.8781   27.4145 
 H                     43.2295   49.3876   27.9408 
 H                     43.078    48.4901   26.4403 
 H                     42.3193   47.8817   27.914 
 H                     45.5281   48.587    25.5131 
 
                          Input orientation:                          
 ---------------------------------------------------------------------
 Center     Atomic      Atomic             Coordinates (Angstroms)
 Number     Number       Type             X           Y           Z
 ---------------------------------------------------------------------
      1          6           0       41.901800   41.906600   31.342400
      2          8           0       41.830800   40.757300   31.844700
      3          6           0       42.504400   43.009500   31.985300
      4          6           0       42.667700   44.211500   31.363200
      5          6           0       42.427400   44.399300   29.911700
      6          6           0       42.201200   43.068800   29.192600
      7          6           0       41.263200   42.196600   30.014400
      8          6           0       42.977800   45.431200   32.133300
      9          6           0       43.987600   46.366300   31.473500
     10          6           0       43.662700   46.588200   29.998100
     11          6           0       43.572300   45.224500   29.291600
     12          6           0       44.746300   47.414800   29.314800
     13          6           0       44.480400   47.622900   27.817900
     14          6           0       44.465800   46.253800   27.149300
     15          6           0       43.394100   45.363400   27.776500
     16          6           0       45.047700   48.827200   29.819900
     17          6           0       45.793500   49.486000   28.641800
     18          6           0       45.689300   48.512700   27.448100
     19          6           0       43.191900   48.389500   27.517800
     20          8           0       45.578700   49.224900   26.242900
     21          1           0       42.803600   42.894100   33.017400
     22          1           0       41.494800   45.005200   29.848900
     23          1           0       43.157700   42.550600   29.058400
     24          1           0       41.758300   43.234300   28.210900
     25          1           0       40.340300   42.754500   30.202300
     26          1           0       41.004100   41.274000   29.493400
     27          1           0       43.289000   45.186700   33.148400
     28          1           0       41.997200   45.941700   32.194800
     29          1           0       44.988100   45.930300   31.563100
     30          1           0       43.991200   47.321600   32.001200
     31          1           0       42.696200   47.091500   29.929200
     32          1           0       44.516000   44.688400   29.470000
     33          1           0       45.679900   46.837500   29.387100
     34          1           0       45.444000   45.782900   27.285800
     35          1           0       44.291000   46.347000   26.077500
     36          1           0       42.401500   45.764300   27.571000
     37          1           0       43.456900   44.377200   27.311600
     38          1           0       45.656000   48.817900   30.723500
     39          1           0       44.124100   49.353700   30.056200
     40          1           0       46.838500   49.676400   28.885900
     41          1           0       45.345700   50.435700   28.352600
     42          1           0       46.592100   47.878100   27.414500
     43          1           0       43.229500   49.387600   27.940800
     44          1           0       43.078000   48.490100   26.440300
     45          1           0       42.319300   47.881700   27.914000
     46          1           0       45.528100   48.587000   25.513100
 ---------------------------------------------------------------------
                    Distance matrix (angstroms):
                    1          2          3          4          5
     1  C    0.000000
     2  O    1.256279   0.000000
     3  C    1.411678   2.354976   0.000000
     4  C    2.428909   3.586606   1.363261   0.000000
     5  C    2.921765   4.166123   2.497457   1.483194   0.000000
     6  C    2.462111   3.537494   2.809737   2.496976   1.529216
     7  C    1.501830   2.396613   2.466948   2.802089   2.493551
     8  C    3.769099   4.821228   2.471971   1.475427   2.510630
     9  C    4.925106   6.020835   3.705392   2.529321   2.956777
    10  C    5.179314   6.384762   4.254141   2.915858   2.514898
    11  C    4.243208   5.432036   3.647281   2.477094   1.541517
    12  C    6.522470   7.695638   5.618216   4.333319   3.850562
    13  C    7.193564   8.388800   6.523439   5.243347   4.357798
    14  C    6.561580   7.694252   6.144873   5.016085   3.901935
    15  C    5.185756   6.341160   4.903714   3.836528   2.534379
    16  C    7.753025   8.920288   6.708425   5.417644   5.145940
    17  C    8.937890  10.107016   7.996388   6.707980   6.230393
    18  C    8.552853   9.714131   7.811209   6.554265   5.799084
    19  C    7.636748   8.878352   7.026778   5.702418   4.715603
    20  O    9.647902  10.822531   9.003204   7.734699   6.832071
    21  H    2.143368   2.624401   1.080772   2.119054   3.471675
    22  H    3.463743   4.705398   3.092946   2.073345   1.113913
    23  H    2.684898   3.569322   3.033832   2.882844   2.163134
    24  H    3.404361   4.398328   3.853997   3.423291   2.167404
    25  H    2.111171   2.984606   2.815571   2.981162   2.673163
    26  H    2.150546   2.545393   3.387097   3.859096   3.459517
    27  H    3.993121   4.842062   2.590096   2.126962   3.440724
    28  H    4.125254   5.198871   2.983109   2.033401   2.788658
    29  H    5.075837   6.066941   3.857213   2.894562   3.410025
    30  H    5.841390   6.912442   4.561253   3.439683   3.918076
    31  H    5.432439   6.673841   4.574610   3.217385   2.705642
    32  H    4.251862   5.320061   3.632076   2.688467   2.154281
    33  H    6.512374   7.604223   5.611419   4.458048   4.098632
    34  H    6.635427   7.687356   6.198249   5.177097   4.231971
    35  H    7.290034   8.399877   7.016619   5.927401   4.686964
    36  H    5.418026   6.607591   5.204379   4.106438   2.709755
    37  H    4.976902   6.024689   4.961989   4.131072   2.796583
    38  H    7.889431   8.992359   6.727721   5.527936   5.532351
    39  H    7.877324   9.075023   6.825960   5.501961   5.238869
    40  H    9.527602  10.648094   8.534533   7.307374   6.953981
    41  H    9.671861  10.872935   8.741736   7.414584   6.883705
    42  H    8.549042   9.643777   7.829736   6.666116   5.973507
    43  H    8.324604   9.574909   7.587088   6.230606   5.423186
    44  H    8.291954   9.516262   7.817482   6.535267   5.404493
    45  H    6.901453   8.151448   6.352014   5.048637   4.016167
    46  H    9.579068  10.726760   9.063147   7.845416   6.819007
                    6          7          8          9         10
     6  C    0.000000
     7  C    1.521819   0.000000
     8  C    3.851202   4.229921   0.000000
     9  C    4.389446   5.190157   1.526252   0.000000
    10  C    3.894995   5.004400   2.523255   1.526959   0.000000
    11  C    2.556709   3.875895   2.910569   2.497372   1.538503
    12  C    5.037875   6.312768   3.873784   2.516935   1.524584
    13  C    5.274882   6.679799   5.067942   3.896833   2.548040
    14  C    4.409956   5.909849   5.266030   4.352015   2.978667
    15  C    2.948481   4.424653   4.377169   3.876320   2.551037
    16  C    6.454087   7.637089   4.600991   3.148688   2.638769
    17  C    7.374853   8.691548   6.046498   4.583921   3.844100
    18  C    6.696728   8.128307   6.228882   4.868949   3.783293
    19  C    5.665359   6.950173   5.486367   4.513761   3.101326
    20  O    7.616154   9.068889   7.473530   6.169471   4.972401
    21  H    3.875887   3.446353   2.692370   3.980158   4.847742
    22  H    2.163186   2.822988   2.756673   3.271998   2.688483
    23  H    1.096099   2.151368   4.217254   4.591406   4.176156
    24  H    1.089626   2.138822   4.658194   5.042198   4.250820
    25  H    2.140380   1.094670   4.224913   5.288085   5.077135
    26  H    2.178264   1.090763   5.305363   6.225238   5.963522
    27  H    4.617051   4.781895   1.089520   2.164437   3.468176
    28  H    4.160334   4.395301   1.107235   2.159225   2.831491
    29  H    4.644810   5.496714   2.148380   1.095045   2.153774
    30  H    5.401726   6.136366   2.148963   1.091365   2.158286
    31  H    4.119432   5.101058   2.773797   2.139741   1.091870
    32  H    2.838724   4.133539   3.164013   2.666190   2.148546
    33  H    5.132473   6.437290   4.101297   2.727448   2.122397
    34  H    4.638747   6.147023   5.450146   4.471945   3.343368
    35  H    4.981737   6.472447   6.263856   5.404557   3.977945
    36  H    3.152051   4.471511   4.610603   4.255305   2.856615
    37  H    2.612825   4.107610   4.958754   4.643229   3.485421
    38  H    6.879786   7.977539   4.542029   3.058823   3.077501
    39  H    6.628976   7.707826   4.584142   3.309370   2.804328
    40  H    8.078304   9.397068   6.593355   5.077407   4.567239
    41  H    8.053862   9.344044   6.704153   5.305136   4.510368
    42  H    6.750630   8.211948   6.427873   5.054151   4.113419
    43  H    6.523162   7.737999   5.770053   4.709877   3.500969
    44  H    6.142835   7.461624   6.463525   5.538141   4.076400
    45  H    4.981242   6.152023   4.923522   4.213040   2.796666
    46  H    7.420075   8.904397   7.764673   6.544541   5.252632
                   11         12         13         14         15
    11  C    0.000000
    12  C    2.485202   0.000000
    13  C    2.957830   1.534509   0.000000
    14  C    2.539144   2.473053   1.523704   0.000000
    15  C    1.531854   2.898802   2.507409   1.527983   0.000000
    16  C    3.928785   1.529981   2.404199   3.754078   4.348309
    17  C    4.849366   2.416490   2.423672   3.799666   4.847855
    18  C    4.323476   2.362034   1.545942   2.586284   3.910739
    19  C    3.648054   2.568153   1.529041   2.513927   3.043861
    20  O    5.415110   3.661410   2.500658   3.299628   4.694208
    21  H    4.461306   6.157926   7.225511   6.963124   5.823501
    22  H    2.162101   4.082118   4.459946   4.204008   2.833812
    23  H    2.715882   5.123459   5.386706   4.366861   3.100161
    24  H    2.901621   5.255789   5.179198   4.192247   2.719855
    25  H    4.168465   6.474480   6.821078   6.211736   4.692181
    26  H    4.716230   7.193426   7.429703   6.502044   5.038158
    27  H    3.867376   4.667402   5.980697   6.205865   5.375833
    28  H    3.379924   4.245230   5.305654   5.625697   4.669811
    29  H    2.768096   2.705007   4.141156   4.456353   4.147355
    30  H    3.451846   2.792061   4.222570   4.990629   4.694589
    31  H    2.158651   2.164468   2.814843   3.400157   2.847369
    32  H    1.099909   2.740508   3.367787   2.799758   2.140614
    33  H    2.655723   1.100051   2.125569   2.611990   3.160994
    34  H    2.799697   2.695686   2.144121   1.094191   2.149153
    35  H    3.479508   3.439129   2.166284   1.089953   2.158356
    36  H    2.150028   3.356051   2.799496   2.163048   1.090049
    37  H    2.156765   3.860360   3.440706   2.136785   1.092093
    38  H    4.393708   2.186476   3.354485   4.556983   5.072925
    39  H    4.235492   2.167058   2.851772   4.263356   4.653217
    40  H    5.536431   3.110642   3.304258   4.512170   5.629976
    41  H    5.584199   3.226600   2.991069   4.439644   5.465241
    42  H    4.436698   2.689380   2.164979   2.688835   4.084356
    43  H    4.390168   2.842622   2.166569   3.460580   4.030915
    44  H    4.363300   3.493171   2.148614   2.725749   3.414909
    45  H    3.244765   2.840874   2.178661   2.800408   2.741521
    46  H    5.422972   4.054403   2.709108   3.041291   4.479792
                   16         17         18         19         20
    16  C    0.000000
    17  C    1.542127   0.000000
    18  C    2.477094   1.543726   0.000000
    19  C    2.989187   3.038752   2.501408   0.000000
    20  O    3.638002   2.422609   1.404268   2.831974   0.000000
    21  H    7.103638   8.458045   8.420988   7.784330   9.678536
    22  H    5.218393   6.325621   5.971618   4.446084   6.891106
    23  H    6.599067   7.431068   6.674481   6.038822   7.637707
    24  H    6.685025   7.453339   6.625416   5.395524   7.372636
    25  H    7.693083   8.802593   8.327922   6.862317   9.218664
    26  H    8.573688   9.544659   8.861892   7.701935   9.731882
    27  H    5.236905   6.713117   7.022616   6.478504   8.320800
    28  H    4.824086   6.292676   6.540092   5.412334   7.683206
    29  H    3.381468   4.671795   4.908533   5.063443   6.285517
    30  H    2.853260   4.383889   5.003297   4.677624   6.269029
    31  H    2.924748   4.121201   4.139362   2.783051   5.142860
    32  H    4.187458   5.033377   4.482185   4.388903   5.667745
    33  H    2.132111   2.753712   2.562441   3.477518   3.949166
    34  H    3.980764   3.959020   2.745600   3.452556   3.599048
    35  H    4.552971   4.322784   2.919597   2.730255   3.157188
    36  H    4.630473   5.148138   4.287008   2.742123   4.882028
    37  H    5.350207   5.773125   4.701553   4.026325   5.398551
    38  H    1.089316   2.190602   3.289757   4.065935   4.499711
    39  H    1.089072   2.192014   3.155839   2.870915   4.083345
    40  H    2.190995   1.089891   2.177643   4.101890   2.962498
    41  H    2.197509   1.089078   2.152698   3.085884   2.443596
    42  H    3.011961   2.174711   1.104035   3.439994   2.052680
    43  H    2.674120   2.659921   2.656844   1.084687   2.903115
    44  H    3.926201   3.634881   2.799118   1.088164   2.613886
    45  H    3.459854   3.895322   3.460076   1.084558   3.901339
    46  H    4.340162   3.266099   1.943124   3.084746   0.970611
                   21         22         23         24         25
    21  H    0.000000
    22  H    4.026052   0.000000
    23  H    3.989619   3.068418   0.000000
    24  H    4.930601   2.426636   1.773139   0.000000
    25  H    3.743277   2.554097   3.047593   2.491306   0.000000
    26  H    4.275687   3.780082   2.541048   2.460975   1.770607
    27  H    2.347081   3.760159   4.867686   5.525741   4.825965
    28  H    3.258039   2.575400   4.762701   4.822712   4.107751
    29  H    4.013171   3.999680   4.587620   5.379337   5.791332
    30  H    4.695297   4.028662   5.667207   6.004851   6.117476
    31  H    5.212167   2.408829   4.646617   4.325529   4.943118
    32  H    4.328495   3.061303   2.566044   3.362239   4.659689
    33  H    6.082975   4.591911   4.984681   5.453938   6.771024
    34  H    6.940325   4.771842   4.337861   4.575539   6.612483
    35  H    7.892851   4.882891   4.958103   4.544762   6.747449
    36  H    6.169522   2.566548   3.621059   2.687765   4.497909
    37  H    5.931487   3.268350   2.545054   2.236113   4.550000
    38  H    6.963445   5.711146   6.949324   7.258224   8.080417
    39  H    7.227645   5.085828   6.943465   6.815365   7.608412
    40  H    8.907823   7.162584   8.022161   8.231932   9.584999
    41  H    9.224877   6.823392   8.213422   8.046719   9.352874
    42  H    8.401516   6.337375   6.548264   6.750167   8.550328
    43  H    8.253411   5.084826   6.928113   6.332494   7.580229
    44  H    8.639951   5.125388   6.491414   5.700883   7.385442
    45  H    7.152300   3.563410   5.516629   4.690543   5.953229
    46  H    9.805434   6.920691   7.390945   7.081025   9.106038
                   26         27         28         29         30
    26  H    0.000000
    27  H    5.821427   0.000000
    28  H    5.483724   1.774296   0.000000
    29  H    6.468156   2.439889   3.056903   0.000000
    30  H    7.196200   2.523282   2.432620   1.766765   0.000000
    31  H    6.074243   3.787205   2.635068   3.044802   2.454212
    32  H    4.898175   3.909534   3.916586   2.479166   3.690004
    33  H    7.268214   4.752780   4.716770   2.456944   3.149536
    34  H    6.701969   6.274517   6.000327   4.304052   5.168484
    35  H    6.943156   7.235187   6.545773   5.545394   6.010819
    36  H    5.080467   5.677030   4.644831   4.759718   4.957721
    37  H    4.517337   5.895059   5.331419   4.778278   5.563031
    38  H    8.947835   4.966734   4.880990   3.080463   2.577400
    39  H    8.679441   5.255757   4.554016   3.838868   2.816046
    40  H   10.247419   7.136194   6.952337   4.962323   4.832938
    41  H   10.202336   7.401467   6.794924   5.543809   4.984433
    42  H    8.897286   7.143648   6.907534   4.855679   5.302093
    43  H    8.555319   6.691054   5.611533   5.307227   4.619025
    44  H    8.105219   7.480346   6.385667   6.036898   5.755253
    45  H    6.919968   5.966765   4.710902   4.924062   4.451311
    46  H    9.475723   8.652943   8.006871   6.629642   6.786659
                   31         32         33         34         35
    31  H    0.000000
    32  H    3.049168   0.000000
    33  H    3.043165   2.445438   0.000000
    34  H    4.031179   2.613397   2.362899   0.000000
    35  H    4.234768   3.782940   3.622580   1.762841   0.000000
    36  H    2.722024   3.038893   3.898446   3.055895   2.477961
    37  H    3.846806   2.424300   3.911842   2.434178   2.469582
    38  H    3.517355   4.463590   2.389251   4.590637   5.436349
    39  H    2.678167   4.718288   3.033063   4.708276   4.989805
    40  H    4.992878   5.533112   3.106913   4.434444   5.045966
    41  H    4.548537   5.913412   3.758846   4.774544   4.796451
    42  H    4.703243   4.325443   2.409587   2.392605   3.070325
    43  H    3.083864   5.106468   3.820897   4.280993   3.720742
    44  H    3.778131   5.069502   4.264341   3.693475   2.489151
    45  H    2.197157   4.176577   3.814972   3.816195   3.100909
    46  H    5.455100   5.646281   4.253430   3.318511   2.620413
                   36         37         38         39         40
    36  H    0.000000
    37  H    1.762159   0.000000
    38  H    5.463927   6.016388   0.000000
    39  H    4.693332   5.722197   1.754733   0.000000
    40  H    6.059741   6.480367   2.347787   2.973500   0.000000
    41  H    5.576844   6.430915   2.886993   2.359085   1.757668
    42  H    4.696144   4.700677   3.564967   3.904740   2.336582
    43  H    3.735055   5.054870   3.735757   2.297036   3.741858
    44  H    3.027560   4.221217   5.009924   3.861977   4.640003
    45  H    2.146576   3.733435   4.461315   3.164350   4.958700
    46  H    4.688093   5.024628   5.217082   4.816514   3.778852
                   41         42         43         44         45
    41  H    0.000000
    42  H    2.995807   0.000000
    43  H    2.397164   3.723259   0.000000
    44  H    3.547494   3.697636   1.754981   0.000000
    45  H    3.984267   4.301899   1.759806   1.765664   0.000000
    46  H    3.393188   2.291279   3.437768   2.621465   4.069173
                   46
    46  H    0.000000
 Stoichiometry    C18H26O2
 Framework group  C1[X(C18H26O2)]
 Deg. of freedom   132
 Full point group                 C1      NOp   1
 Largest Abelian subgroup         C1      NOp   1
 Largest concise Abelian subgroup C1      NOp   1
                         Standard orientation:                         
 ---------------------------------------------------------------------
 Center     Atomic      Atomic             Coordinates (Angstroms)
 Number     Number       Type             X           Y           Z
 ---------------------------------------------------------------------
      1          6           0        4.635857   -0.162482   -0.223894
      2          8           0        5.808660   -0.174910   -0.674022
      3          6           0        3.792137    0.968749   -0.259788
      4          6           0        2.487176    0.913178    0.130682
      5          6           0        1.792669   -0.365529    0.417794
      6          6           0        2.634595   -1.576734    0.014500
      7          6           0        4.073474   -1.372214    0.465866
      8          6           0        1.723061    2.144122    0.409587
      9          6           0        0.276322    2.124288   -0.076207
     10          6           0       -0.422179    0.820076    0.301595
     11          6           0        0.397503   -0.364904   -0.237788
     12          6           0       -1.821756    0.751944   -0.299152
     13          6           0       -2.542318   -0.564839    0.019582
     14          6           0       -1.731983   -1.702354   -0.589592
     15          6           0       -0.310689   -1.707033   -0.028670
     16          6           0       -2.853969    1.818496    0.072124
     17          6           0       -4.201544    1.171444   -0.306719
     18          6           0       -3.904642   -0.301219   -0.661968
     19          6           0       -2.773486   -0.799404    1.512736
     20          8           0       -4.963615   -1.127541   -0.252409
     21          1           0        4.219945    1.911407   -0.570345
     22          1           0        1.652457   -0.376799    1.522789
     23          1           0        2.607932   -1.703126   -1.073961
     24          1           0        2.246410   -2.484098    0.476331
     25          1           0        4.078466   -1.175232    1.542655
     26          1           0        4.688428   -2.253147    0.277311
     27          1           0        2.242221    3.023589    0.030027
     28          1           0        1.733512    2.197315    1.515494
     29          1           0        0.264702    2.239872   -1.165074
     30          1           0       -0.259475    2.971552    0.355236
     31          1           0       -0.469104    0.756321    1.390591
     32          1           0        0.528195   -0.220359   -1.320297
     33          1           0       -1.700720    0.783110   -1.392080
     34          1           0       -1.685956   -1.562879   -1.673881
     35          1           0       -2.209359   -2.663772   -0.400425
     36          1           0       -0.325163   -1.938716    1.036374
     37          1           0        0.250985   -2.496368   -0.532792
     38          1           0       -2.691973    2.750695   -0.467663
     39          1           0       -2.802140    2.046514    1.135796
     40          1           0       -4.665844    1.679355   -1.151890
     41          1           0       -4.912059    1.190712    0.518440
     42          1           0       -3.771945   -0.393787   -1.754084
     43          1           0       -3.403453   -0.022418    1.932236
     44          1           0       -3.283739   -1.750548    1.650819
     45          1           0       -1.841107   -0.821174    2.066327
     46          1           0       -4.752947   -2.041929   -0.500600
 ---------------------------------------------------------------------
 Rotational constants (GHZ):           0.9212884           0.1773503           0.1575497
 Standard basis: 6-31G(d) (6D, 7F)
 There are   352 symmetry adapted cartesian basis functions of A   symmetry.
 There are   352 symmetry adapted basis functions of A   symmetry.
   352 basis functions,   664 primitive gaussians,   352 cartesian basis functions
    75 alpha electrons       75 beta electrons
       nuclear repulsion energy      1673.1753035525 Hartrees.
 NAtoms=   46 NActive=   46 NUniq=   46 SFac= 1.00D+00 NAtFMM=   60 NAOKFM=F Big=F
 Integral buffers will be    131072 words long.
 Raffenetti 2 integral format.
 Two-electron integral symmetry is turned on.
 Nuclear repulsion after empirical dispersion term =     1673.1260437207 Hartrees.
 One-electron integrals computed using PRISM.
 NBasis=   352 RedAO= T EigKep=  1.21D-03  NBF=   352
 NBsUse=   352 1.00D-06 EigRej= -1.00D+00 NBFU=   352
 ExpMin= 1.61D-01 ExpMax= 5.48D+03 ExpMxC= 8.25D+02 IAcc=3 IRadAn=         5 AccDes= 0.00D+00
 Harris functional with IExCor= 4639 and IRadAn=       5 diagonalized for initial guess.
 HarFok:  IExCor= 4639 AccDes= 0.00D+00 IRadAn=         5 IDoV= 1 UseB2=F ITyADJ=14
 ICtDFT=  3500011 ScaDFX=  1.000000  1.000000  1.000000  1.000000
 FoFCou: FMM=F IPFlag=           0 FMFlag=      100000 FMFlg1=           0
         NFxFlg=           0 DoJE=T BraDBF=F KetDBF=T FulRan=T
         wScrn=  0.000000 ICntrl=       500 IOpCl=  0 I1Cent=   200000004 NGrid=           0
         NMat0=    1 NMatS0=      1 NMatT0=    0 NMatD0=    1 NMtDS0=    0 NMtDT0=    0
 Petite list used in FoFCou.
 Requested convergence on RMS density matrix=1.00D-08 within 128 cycles.
 Requested convergence on MAX density matrix=1.00D-06.
 Requested convergence on             energy=1.00D-06.
 No special actions if energy rises.
 Integral accuracy reduced to 1.0D-05 until final iterations.
 Initial convergence to 1.0D-05 achieved.  Increase integral accuracy.
 SCF Done:  E(RwB97XD) =  -851.787972511     A.U. after   15 cycles
            NFock= 15  Conv=0.50D-08     -V/T= 2.0088

 **********************************************************************

            Population analysis using the SCF Density.

 **********************************************************************

 Orbital symmetries:
       Occupied  (A) (A) (A) (A) (A) (A) (A) (A) (A) (A) (A) (A)
                 (A) (A) (A) (A) (A) (A) (A) (A) (A) (A) (A) (A)
                 (A) (A) (A) (A) (A) (A) (A) (A) (A) (A) (A) (A)
                 (A) (A) (A) (A) (A) (A) (A) (A) (A) (A) (A) (A)
                 (A) (A) (A) (A) (A) (A) (A) (A) (A) (A) (A) (A)
                 (A) (A) (A) (A) (A) (A) (A) (A) (A) (A) (A) (A)
                 (A) (A) (A)
       Virtual   (A) (A) (A) (A) (A) (A) (A) (A) (A) (A) (A) (A)
                 (A) (A) (A) (A) (A) (A) (A) (A) (A) (A) (A) (A)
                 (A) (A) (A) (A) (A) (A) (A) (A) (A) (A) (A) (A)
                 (A) (A) (A) (A) (A) (A) (A) (A) (A) (A) (A) (A)
                 (A) (A) (A) (A) (A) (A) (A) (A) (A) (A) (A) (A)
                 (A) (A) (A) (A) (A) (A) (A) (A) (A) (A) (A) (A)
                 (A) (A) (A) (A) (A) (A) (A) (A) (A) (A) (A) (A)
                 (A) (A) (A) (A) (A) (A) (A) (A) (A) (A) (A) (A)
                 (A) (A) (A) (A) (A) (A) (A) (A) (A) (A) (A) (A)
                 (A) (A) (A) (A) (A) (A) (A) (A) (A) (A) (A) (A)
                 (A) (A) (A) (A) (A) (A) (A) (A) (A) (A) (A) (A)
                 (A) (A) (A) (A) (A) (A) (A) (A) (A) (A) (A) (A)
                 (A) (A) (A) (A) (A) (A) (A) (A) (A) (A) (A) (A)
                 (A) (A) (A) (A) (A) (A) (A) (A) (A) (A) (A) (A)
                 (A) (A) (A) (A) (A) (A) (A) (A) (A) (A) (A) (A)
                 (A) (A) (A) (A) (A) (A) (A) (A) (A) (A) (A) (A)
                 (A) (A) (A) (A) (A) (A) (A) (A) (A) (A) (A) (A)
                 (A) (A) (A) (A) (A) (A) (A) (A) (A) (A) (A) (A)
                 (A) (A) (A) (A) (A) (A) (A) (A) (A) (A) (A) (A)
                 (A) (A) (A) (A) (A) (A) (A) (A) (A) (A) (A) (A)
                 (A) (A) (A) (A) (A) (A) (A) (A) (A) (A) (A) (A)
                 (A) (A) (A) (A) (A) (A) (A) (A) (A) (A) (A) (A)
                 (A) (A) (A) (A) (A) (A) (A) (A) (A) (A) (A) (A)
                 (A)
 The electronic state is 1-A.
 Alpha  occ. eigenvalues --  -19.26990 -19.23342 -10.36502 -10.34161 -10.33020
 Alpha  occ. eigenvalues --  -10.31555 -10.30942 -10.30834 -10.30400 -10.30228
 Alpha  occ. eigenvalues --  -10.30198 -10.29907 -10.29792 -10.29756 -10.29595
 Alpha  occ. eigenvalues --  -10.29249 -10.29205 -10.29175 -10.28823 -10.28245
 Alpha  occ. eigenvalues --   -1.12577  -1.09624  -0.98691  -0.96073  -0.91166
 Alpha  occ. eigenvalues --   -0.90466  -0.87322  -0.84592  -0.82894  -0.81546
 Alpha  occ. eigenvalues --   -0.78140  -0.77454  -0.73747  -0.72215  -0.69642
 Alpha  occ. eigenvalues --   -0.67824  -0.65715  -0.65370  -0.63020  -0.61127
 Alpha  occ. eigenvalues --   -0.60455  -0.58333  -0.57367  -0.55731  -0.55394
 Alpha  occ. eigenvalues --   -0.54408  -0.53515  -0.53153  -0.51693  -0.50811
 Alpha  occ. eigenvalues --   -0.50368  -0.49619  -0.48646  -0.47966  -0.47515
 Alpha  occ. eigenvalues --   -0.46913  -0.46818  -0.46665  -0.45207  -0.44590
 Alpha  occ. eigenvalues --   -0.43981  -0.43473  -0.42847  -0.42627  -0.41940
 Alpha  occ. eigenvalues --   -0.41742  -0.40863  -0.40142  -0.39614  -0.38422
 Alpha  occ. eigenvalues --   -0.37554  -0.36297  -0.33895  -0.32307  -0.30757
 Alpha virt. eigenvalues --    0.02040   0.13215   0.14097   0.15141   0.16630
 Alpha virt. eigenvalues --    0.17059   0.17871   0.18588   0.19537   0.20390
 Alpha virt. eigenvalues --    0.20640   0.21067   0.22371   0.22875   0.23523
 Alpha virt. eigenvalues --    0.23915   0.24364   0.24746   0.24821   0.25090
 Alpha virt. eigenvalues --    0.25356   0.26063   0.26531   0.26925   0.27121
 Alpha virt. eigenvalues --    0.27370   0.28642   0.29204   0.29674   0.30932
 Alpha virt. eigenvalues --    0.30984   0.31390   0.32169   0.32695   0.33337
 Alpha virt. eigenvalues --    0.33850   0.34409   0.35259   0.35857   0.36172
 Alpha virt. eigenvalues --    0.37039   0.37407   0.39092   0.39261   0.40835
 Alpha virt. eigenvalues --    0.41790   0.42451   0.44748   0.45471   0.49968
 Alpha virt. eigenvalues --    0.52397   0.58175   0.58628   0.59431   0.60036
 Alpha virt. eigenvalues --    0.61794   0.62042   0.62310   0.63528   0.65297
 Alpha virt. eigenvalues --    0.65813   0.66378   0.66399   0.68232   0.69616
 Alpha virt. eigenvalues --    0.70456   0.70876   0.72468   0.72618   0.72912
 Alpha virt. eigenvalues --    0.73500   0.74461   0.75266   0.75624   0.76767
 Alpha virt. eigenvalues --    0.77502   0.77974   0.78768   0.79871   0.81373
 Alpha virt. eigenvalues --    0.82220   0.82927   0.84616   0.85005   0.85838
 Alpha virt. eigenvalues --    0.86779   0.87898   0.88930   0.90188   0.90247
 Alpha virt. eigenvalues --    0.91461   0.93278   0.93568   0.94425   0.95026
 Alpha virt. eigenvalues --    0.95227   0.96010   0.96173   0.96589   0.96800
 Alpha virt. eigenvalues --    0.97487   0.97680   0.98117   0.98735   0.99168
 Alpha virt. eigenvalues --    0.99295   1.00203   1.00867   1.01503   1.02713
 Alpha virt. eigenvalues --    1.03251   1.03514   1.03798   1.04619   1.04803
 Alpha virt. eigenvalues --    1.05816   1.06084   1.06596   1.07554   1.08410
 Alpha virt. eigenvalues --    1.08638   1.10110   1.10932   1.11641   1.13343
 Alpha virt. eigenvalues --    1.13580   1.15795   1.16687   1.19292   1.20947
 Alpha virt. eigenvalues --    1.21984   1.24070   1.26329   1.27430   1.28230
 Alpha virt. eigenvalues --    1.30275   1.30748   1.33852   1.36815   1.39570
 Alpha virt. eigenvalues --    1.41346   1.43074   1.45114   1.49175   1.50105
 Alpha virt. eigenvalues --    1.51447   1.53295   1.54233   1.56623   1.58510
 Alpha virt. eigenvalues --    1.61734   1.62566   1.64168   1.66557   1.67432
 Alpha virt. eigenvalues --    1.69941   1.71260   1.73541   1.75265   1.76725
 Alpha virt. eigenvalues --    1.77277   1.79416   1.80770   1.82303   1.83571
 Alpha virt. eigenvalues --    1.85520   1.87054   1.87369   1.88091   1.88922
 Alpha virt. eigenvalues --    1.90375   1.92428   1.93575   1.94532   1.95439
 Alpha virt. eigenvalues --    1.96416   1.97035   1.97516   1.98933   2.00243
 Alpha virt. eigenvalues --    2.00942   2.02291   2.02472   2.03693   2.04558
 Alpha virt. eigenvalues --    2.05479   2.06802   2.07129   2.08101   2.08477
 Alpha virt. eigenvalues --    2.09193   2.09950   2.11069   2.11825   2.13105
 Alpha virt. eigenvalues --    2.13694   2.14309   2.15761   2.16600   2.19506
 Alpha virt. eigenvalues --    2.19619   2.21190   2.23105   2.23393   2.25536
 Alpha virt. eigenvalues --    2.26937   2.28066   2.30486   2.31503   2.33400
 Alpha virt. eigenvalues --    2.35369   2.36313   2.37768   2.40096   2.41159
 Alpha virt. eigenvalues --    2.41723   2.42541   2.43722   2.45815   2.46923
 Alpha virt. eigenvalues --    2.49211   2.49801   2.51427   2.52262   2.53390
 Alpha virt. eigenvalues --    2.54122   2.57081   2.59220   2.62579   2.63535
 Alpha virt. eigenvalues --    2.64071   2.64688   2.66006   2.66959   2.68616
 Alpha virt. eigenvalues --    2.69268   2.70747   2.73059   2.75918   2.77299
 Alpha virt. eigenvalues --    2.79492   2.80457   2.81630   2.83522   2.85024
 Alpha virt. eigenvalues --    2.87173   2.90727   2.93997   2.97306   2.99316
 Alpha virt. eigenvalues --    3.01683   3.02487   3.07055   3.08994   3.10703
 Alpha virt. eigenvalues --    3.20693   3.28058   4.00665   4.09598   4.25952
 Alpha virt. eigenvalues --    4.26902   4.31631   4.35054   4.37017   4.39529
 Alpha virt. eigenvalues --    4.42879   4.43691   4.48553   4.54723   4.56464
 Alpha virt. eigenvalues --    4.65893   4.68210   4.75836   4.78167   4.82552
 Alpha virt. eigenvalues --    4.86857   4.91972
          Condensed to atoms (all electrons):
               1          2          3          4          5          6
     1  C    4.452063   0.530952   0.344233   0.005147  -0.025004  -0.024640
     2  O    0.530952   8.114138  -0.062201   0.005056   0.000456   0.001060
     3  C    0.344233  -0.062201   5.320814   0.521958  -0.043207  -0.001278
     4  C    0.005147   0.005056   0.521958   4.866033   0.378615  -0.044528
     5  C   -0.025004   0.000456  -0.043207   0.378615   5.113882   0.341358
     6  C   -0.024640   0.001060  -0.001278  -0.044528   0.341358   5.155881
     7  C    0.344583  -0.075901  -0.141417   0.002542  -0.036537   0.294741
     8  C    0.004059  -0.000092  -0.036745   0.362510  -0.073632   0.006220
     9  C   -0.000144   0.000000   0.002112  -0.034885  -0.011532  -0.000269
    10  C   -0.000024   0.000000   0.000546  -0.015175  -0.039070   0.004155
    11  C   -0.000233   0.000002   0.001589  -0.034314   0.364213  -0.047531
    12  C   -0.000000   0.000000   0.000002   0.000152   0.004122  -0.000142
    13  C   -0.000000   0.000000   0.000000   0.000001   0.000050  -0.000001
    14  C    0.000000   0.000000   0.000001  -0.000105   0.004185   0.000168
    15  C   -0.000002  -0.000000  -0.000089   0.004665  -0.046017  -0.004997
    16  C   -0.000000  -0.000000   0.000000  -0.000003  -0.000111   0.000001
    17  C    0.000000  -0.000000  -0.000000   0.000000   0.000002  -0.000000
    18  C    0.000000   0.000000  -0.000000   0.000000   0.000005  -0.000000
    19  C   -0.000000   0.000000  -0.000000  -0.000000   0.000057   0.000001
    20  O   -0.000000   0.000000   0.000000   0.000000  -0.000000   0.000000
    21  H   -0.029539   0.000004   0.360477  -0.044495   0.004947  -0.000404
    22  H    0.000990   0.000001  -0.001495  -0.046938   0.362820  -0.032852
    23  H   -0.002999   0.000264   0.004385  -0.004922  -0.042034   0.386126
    24  H    0.003711  -0.000076  -0.000319   0.004498  -0.027718   0.378076
    25  H   -0.031365   0.000643   0.004364  -0.004485  -0.002887  -0.042047
    26  H   -0.025602   0.003743   0.006360  -0.000028   0.004196  -0.029592
    27  H    0.000226  -0.000001  -0.002849  -0.039730   0.004736  -0.000155
    28  H   -0.000061   0.000002  -0.006765  -0.045830  -0.001557   0.000198
    29  H   -0.000001  -0.000000  -0.000043  -0.003094   0.000092   0.000013
    30  H    0.000002  -0.000000  -0.000080   0.004261  -0.000055   0.000012
    31  H    0.000003  -0.000000  -0.000143  -0.003164  -0.002466   0.000139
    32  H    0.000066  -0.000001   0.000422  -0.002691  -0.043088  -0.003669
    33  H    0.000000   0.000000  -0.000003  -0.000083   0.000224  -0.000000
    34  H   -0.000000   0.000000  -0.000000   0.000003   0.000078  -0.000029
    35  H    0.000000  -0.000000  -0.000000   0.000002  -0.000117   0.000003
    36  H    0.000000  -0.000000  -0.000005   0.000192  -0.002619  -0.001910
    37  H   -0.000014  -0.000000   0.000020  -0.000141  -0.008167   0.004559
    38  H    0.000000  -0.000000   0.000000  -0.000001   0.000000  -0.000000
    39  H    0.000000   0.000000  -0.000000  -0.000001   0.000001   0.000000
    40  H    0.000000   0.000000   0.000000   0.000000  -0.000000   0.000000
    41  H    0.000000  -0.000000   0.000000  -0.000000  -0.000000   0.000000
    42  H    0.000000  -0.000000   0.000000   0.000000  -0.000000   0.000000
    43  H   -0.000000   0.000000   0.000000   0.000000  -0.000003  -0.000000
    44  H    0.000000  -0.000000  -0.000000   0.000000  -0.000003   0.000000
    45  H    0.000000  -0.000000  -0.000000   0.000000   0.000062   0.000003
    46  H   -0.000000  -0.000000   0.000000   0.000000  -0.000000   0.000000
               7          8          9         10         11         12
     1  C    0.344583   0.004059  -0.000144  -0.000024  -0.000233  -0.000000
     2  O   -0.075901  -0.000092   0.000000   0.000000   0.000002   0.000000
     3  C   -0.141417  -0.036745   0.002112   0.000546   0.001589   0.000002
     4  C    0.002542   0.362510  -0.034885  -0.015175  -0.034314   0.000152
     5  C   -0.036537  -0.073632  -0.011532  -0.039070   0.364213   0.004122
     6  C    0.294741   0.006220  -0.000269   0.004155  -0.047531  -0.000142
     7  C    5.346642  -0.000409   0.000047  -0.000098   0.004839   0.000002
     8  C   -0.000409   5.160149   0.333656  -0.043587  -0.016125   0.004075
     9  C    0.000047   0.333656   5.099246   0.371712  -0.044600  -0.045075
    10  C   -0.000098  -0.043587   0.371712   5.016225   0.372911   0.366427
    11  C    0.004839  -0.016125  -0.044600   0.372911   5.047969  -0.039207
    12  C    0.000002   0.004075  -0.045075   0.366427  -0.039207   5.108795
    13  C    0.000000  -0.000136   0.004475  -0.027031  -0.013444   0.349335
    14  C   -0.000004  -0.000013  -0.000028  -0.012401  -0.039939  -0.051038
    15  C    0.000331   0.000354   0.004452  -0.041029   0.371619  -0.018301
    16  C   -0.000000   0.000082  -0.003773  -0.032982   0.004347   0.357670
    17  C    0.000000  -0.000001   0.000094   0.004074  -0.000172  -0.060507
    18  C   -0.000000   0.000002  -0.000115   0.004128   0.000119  -0.062434
    19  C    0.000000   0.000000   0.000128  -0.005927  -0.002246  -0.059043
    20  O    0.000000  -0.000000   0.000000  -0.000067  -0.000003   0.003807
    21  H    0.006646  -0.008033   0.000187  -0.000000  -0.000096  -0.000000
    22  H   -0.005199  -0.000611  -0.000931  -0.006256  -0.040946   0.000098
    23  H   -0.043479  -0.000070  -0.000030   0.000161  -0.002207  -0.000001
    24  H   -0.032365  -0.000126  -0.000007  -0.000088  -0.007569  -0.000002
    25  H    0.367598  -0.000163  -0.000002   0.000001   0.000143   0.000000
    26  H    0.367462   0.000009   0.000000   0.000002  -0.000071  -0.000000
    27  H    0.000016   0.379659  -0.031297   0.004061  -0.000124  -0.000110
    28  H   -0.000121   0.379428  -0.041029  -0.003697  -0.000919  -0.000025
    29  H   -0.000003  -0.037506   0.381250  -0.039466  -0.006868  -0.004865
    30  H   -0.000000  -0.031927   0.379065  -0.031744   0.004981  -0.006746
    31  H   -0.000010   0.000146  -0.045684   0.380042  -0.048285  -0.039525
    32  H   -0.000195  -0.000313  -0.005197  -0.045564   0.377252  -0.004173
    33  H    0.000000   0.000076  -0.006323  -0.045505  -0.006755   0.382651
    34  H   -0.000000  -0.000000  -0.000032  -0.000516  -0.004800  -0.007057
    35  H   -0.000000  -0.000000   0.000011  -0.000150   0.004395   0.006942
    36  H   -0.000065  -0.000021   0.000013  -0.004357  -0.043989  -0.000490
    37  H    0.000119  -0.000010  -0.000134   0.004418  -0.031287   0.000090
    38  H    0.000000  -0.000007   0.001679  -0.001590  -0.000085  -0.026906
    39  H   -0.000000  -0.000027  -0.000804  -0.004127   0.000083  -0.039062
    40  H   -0.000000  -0.000000  -0.000005  -0.000065   0.000004   0.001592
    41  H   -0.000000  -0.000000   0.000003  -0.000136   0.000002   0.003567
    42  H   -0.000000  -0.000000   0.000008  -0.000233  -0.000015  -0.001191
    43  H    0.000000   0.000000  -0.000026  -0.000095   0.000036  -0.005157
    44  H    0.000000  -0.000000   0.000001  -0.000014   0.000063   0.005972
    45  H    0.000000   0.000010  -0.000039   0.001628  -0.000392  -0.005465
    46  H    0.000000   0.000000   0.000000  -0.000002   0.000001   0.000238
              13         14         15         16         17         18
     1  C   -0.000000   0.000000  -0.000002  -0.000000   0.000000   0.000000
     2  O    0.000000   0.000000  -0.000000  -0.000000  -0.000000   0.000000
     3  C    0.000000   0.000001  -0.000089   0.000000  -0.000000  -0.000000
     4  C    0.000001  -0.000105   0.004665  -0.000003   0.000000   0.000000
     5  C    0.000050   0.004185  -0.046017  -0.000111   0.000002   0.000005
     6  C   -0.000001   0.000168  -0.004997   0.000001  -0.000000  -0.000000
     7  C    0.000000  -0.000004   0.000331  -0.000000   0.000000  -0.000000
     8  C   -0.000136  -0.000013   0.000354   0.000082  -0.000001   0.000002
     9  C    0.004475  -0.000028   0.004452  -0.003773   0.000094  -0.000115
    10  C   -0.027031  -0.012401  -0.041029  -0.032982   0.004074   0.004128
    11  C   -0.013444  -0.039939   0.371619   0.004347  -0.000172   0.000119
    12  C    0.349335  -0.051038  -0.018301   0.357670  -0.060507  -0.062434
    13  C    5.126096   0.374827  -0.037116  -0.059097  -0.070963   0.363816
    14  C    0.374827   5.121565   0.356821   0.006377   0.006874  -0.043657
    15  C   -0.037116   0.356821   5.088076   0.000185  -0.000251   0.004460
    16  C   -0.059097   0.006377   0.000185   5.110441   0.342259  -0.063655
    17  C   -0.070963   0.006874  -0.000251   0.342259   5.169914   0.360572
    18  C    0.363816  -0.043657   0.004460  -0.063655   0.360572   4.817584
    19  C    0.348012  -0.068680  -0.004751  -0.003077  -0.010670  -0.056408
    20  O   -0.053922  -0.000168   0.000014   0.002183  -0.044856   0.248354
    21  H   -0.000000  -0.000000   0.000002   0.000000  -0.000000  -0.000000
    22  H   -0.000031   0.000039  -0.005755  -0.000001   0.000000  -0.000000
    23  H   -0.000002  -0.000057  -0.002527   0.000000   0.000000  -0.000000
    24  H   -0.000003   0.000053   0.003217  -0.000000   0.000000   0.000000
    25  H   -0.000000  -0.000000  -0.000033   0.000000   0.000000  -0.000000
    26  H   -0.000000  -0.000000  -0.000002   0.000000  -0.000000  -0.000000
    27  H    0.000001  -0.000000   0.000010  -0.000001  -0.000000  -0.000000
    28  H    0.000004   0.000001  -0.000020  -0.000009  -0.000000  -0.000000
    29  H    0.000068  -0.000011   0.000036  -0.000695  -0.000025  -0.000006
    30  H   -0.000028  -0.000005  -0.000134   0.003743   0.000006  -0.000006
    31  H   -0.008275   0.000287  -0.003251  -0.003499  -0.000019   0.000058
    32  H   -0.001345  -0.001326  -0.045168  -0.000020   0.000003  -0.000067
    33  H   -0.053814  -0.006909  -0.001067  -0.044459  -0.001791  -0.002202
    34  H   -0.038604   0.377755  -0.037814   0.000049   0.000092  -0.005689
    35  H   -0.037218   0.370023  -0.033115  -0.000248   0.000012  -0.003804
    36  H   -0.008088  -0.035139   0.381741  -0.000018   0.000000  -0.000025
    37  H    0.004811  -0.034795   0.380971   0.000009   0.000003  -0.000083
    38  H    0.005418  -0.000158  -0.000005   0.379150  -0.029580   0.002665
    39  H   -0.005226  -0.000003  -0.000020   0.386053  -0.033338   0.002167
    40  H    0.004311  -0.000147   0.000004  -0.031636   0.379010  -0.027251
    41  H   -0.003410  -0.000129   0.000004  -0.026865   0.373382  -0.032292
    42  H   -0.069806  -0.009492   0.000113   0.003199  -0.047991   0.388704
    43  H   -0.031230   0.005130   0.000063   0.002272   0.004008  -0.005929
    44  H   -0.030171  -0.005213  -0.000347  -0.000245   0.000105  -0.007704
    45  H   -0.033488  -0.005702   0.001630  -0.000126  -0.000287   0.005359
    46  H   -0.004062   0.002258  -0.000066  -0.000318   0.007229  -0.026154
              19         20         21         22         23         24
     1  C   -0.000000  -0.000000  -0.029539   0.000990  -0.002999   0.003711
     2  O    0.000000   0.000000   0.000004   0.000001   0.000264  -0.000076
     3  C   -0.000000   0.000000   0.360477  -0.001495   0.004385  -0.000319
     4  C   -0.000000   0.000000  -0.044495  -0.046938  -0.004922   0.004498
     5  C    0.000057  -0.000000   0.004947   0.362820  -0.042034  -0.027718
     6  C    0.000001   0.000000  -0.000404  -0.032852   0.386126   0.378076
     7  C    0.000000   0.000000   0.006646  -0.005199  -0.043479  -0.032365
     8  C    0.000000  -0.000000  -0.008033  -0.000611  -0.000070  -0.000126
     9  C    0.000128   0.000000   0.000187  -0.000931  -0.000030  -0.000007
    10  C   -0.005927  -0.000067  -0.000000  -0.006256   0.000161  -0.000088
    11  C   -0.002246  -0.000003  -0.000096  -0.040946  -0.002207  -0.007569
    12  C   -0.059043   0.003807  -0.000000   0.000098  -0.000001  -0.000002
    13  C    0.348012  -0.053922  -0.000000  -0.000031  -0.000002  -0.000003
    14  C   -0.068680  -0.000168  -0.000000   0.000039  -0.000057   0.000053
    15  C   -0.004751   0.000014   0.000002  -0.005755  -0.002527   0.003217
    16  C   -0.003077   0.002183   0.000000  -0.000001   0.000000  -0.000000
    17  C   -0.010670  -0.044856  -0.000000   0.000000   0.000000   0.000000
    18  C   -0.056408   0.248354  -0.000000  -0.000000  -0.000000   0.000000
    19  C    5.204013   0.001878   0.000000  -0.000053  -0.000000  -0.000001
    20  O    0.001878   8.275126   0.000000  -0.000000  -0.000000   0.000000
    21  H    0.000000   0.000000   0.531853  -0.000203  -0.000087   0.000013
    22  H   -0.000053  -0.000000  -0.000203   0.596064   0.005084  -0.003552
    23  H   -0.000000  -0.000000  -0.000087   0.005084   0.551699  -0.029399
    24  H   -0.000001   0.000000   0.000013  -0.003552  -0.029399   0.547051
    25  H   -0.000000  -0.000000  -0.000157   0.005240   0.005315  -0.004069
    26  H    0.000000  -0.000000  -0.000104  -0.000189  -0.002127  -0.003415
    27  H    0.000000   0.000000   0.005474  -0.000097   0.000002   0.000002
    28  H   -0.000003   0.000000   0.000177   0.003363   0.000001   0.000013
    29  H   -0.000002   0.000000  -0.000002   0.000107  -0.000004   0.000001
    30  H   -0.000003  -0.000000  -0.000009  -0.000031   0.000000   0.000000
    31  H    0.002358  -0.000001  -0.000001   0.006030   0.000006   0.000000
    32  H    0.000044   0.000000  -0.000036   0.005868   0.004518   0.000082
    33  H    0.006604   0.000047  -0.000000   0.000001  -0.000002  -0.000000
    34  H    0.006192  -0.000062  -0.000000   0.000002   0.000005   0.000007
    35  H   -0.006092   0.001692   0.000000   0.000000   0.000001   0.000005
    36  H    0.002749  -0.000003  -0.000000   0.004442   0.000206   0.001148
    37  H    0.000071   0.000001   0.000000   0.000016   0.001334  -0.000129
    38  H    0.000135  -0.000035  -0.000000   0.000000   0.000000  -0.000000
    39  H    0.002001  -0.000007   0.000000  -0.000002  -0.000000  -0.000000
    40  H    0.000182   0.001843   0.000000  -0.000000  -0.000000   0.000000
    41  H    0.001511   0.002612   0.000000  -0.000000   0.000000   0.000000
    42  H    0.007635  -0.040793   0.000000  -0.000000  -0.000000   0.000000
    43  H    0.381364  -0.000068  -0.000000   0.000001   0.000000   0.000000
    44  H    0.374829   0.008748   0.000000   0.000001   0.000000   0.000000
    45  H    0.375116   0.000401  -0.000000   0.000010  -0.000000  -0.000002
    46  H   -0.001178   0.242349   0.000000   0.000000   0.000000   0.000000
              25         26         27         28         29         30
     1  C   -0.031365  -0.025602   0.000226  -0.000061  -0.000001   0.000002
     2  O    0.000643   0.003743  -0.000001   0.000002  -0.000000  -0.000000
     3  C    0.004364   0.006360  -0.002849  -0.006765  -0.000043  -0.000080
     4  C   -0.004485  -0.000028  -0.039730  -0.045830  -0.003094   0.004261
     5  C   -0.002887   0.004196   0.004736  -0.001557   0.000092  -0.000055
     6  C   -0.042047  -0.029592  -0.000155   0.000198   0.000013   0.000012
     7  C    0.367598   0.367462   0.000016  -0.000121  -0.000003  -0.000000
     8  C   -0.000163   0.000009   0.379659   0.379428  -0.037506  -0.031927
     9  C   -0.000002   0.000000  -0.031297  -0.041029   0.381250   0.379065
    10  C    0.000001   0.000002   0.004061  -0.003697  -0.039466  -0.031744
    11  C    0.000143  -0.000071  -0.000124  -0.000919  -0.006868   0.004981
    12  C    0.000000  -0.000000  -0.000110  -0.000025  -0.004865  -0.006746
    13  C   -0.000000  -0.000000   0.000001   0.000004   0.000068  -0.000028
    14  C   -0.000000  -0.000000  -0.000000   0.000001  -0.000011  -0.000005
    15  C   -0.000033  -0.000002   0.000010  -0.000020   0.000036  -0.000134
    16  C    0.000000   0.000000  -0.000001  -0.000009  -0.000695   0.003743
    17  C    0.000000  -0.000000  -0.000000  -0.000000  -0.000025   0.000006
    18  C   -0.000000  -0.000000  -0.000000  -0.000000  -0.000006  -0.000006
    19  C   -0.000000   0.000000   0.000000  -0.000003  -0.000002  -0.000003
    20  O   -0.000000  -0.000000   0.000000   0.000000   0.000000  -0.000000
    21  H   -0.000157  -0.000104   0.005474   0.000177  -0.000002  -0.000009
    22  H    0.005240  -0.000189  -0.000097   0.003363   0.000107  -0.000031
    23  H    0.005315  -0.002127   0.000002   0.000001  -0.000004   0.000000
    24  H   -0.004069  -0.003415   0.000002   0.000013   0.000001   0.000000
    25  H    0.547679  -0.022848   0.000001   0.000025  -0.000000  -0.000000
    26  H   -0.022848   0.510886  -0.000000  -0.000002  -0.000000   0.000000
    27  H    0.000001  -0.000000   0.528687  -0.023986  -0.003585  -0.001672
    28  H    0.000025  -0.000002  -0.023986   0.559394   0.005073  -0.005367
    29  H   -0.000000  -0.000000  -0.003585   0.005073   0.564402  -0.029797
    30  H   -0.000000   0.000000  -0.001672  -0.005367  -0.029797   0.550243
    31  H   -0.000002  -0.000000  -0.000032   0.003993   0.005498  -0.003628
    32  H    0.000012  -0.000002  -0.000065   0.000169   0.005041   0.000044
    33  H   -0.000000   0.000000   0.000002   0.000002   0.005098  -0.000016
    34  H    0.000000   0.000000  -0.000000  -0.000000  -0.000013   0.000001
    35  H    0.000000   0.000000   0.000000  -0.000000   0.000000  -0.000000
    36  H    0.000006   0.000000  -0.000000  -0.000002  -0.000001   0.000004
    37  H    0.000006   0.000002  -0.000000   0.000000  -0.000001   0.000002
    38  H    0.000000  -0.000000   0.000001   0.000003   0.000385   0.000181
    39  H   -0.000000   0.000000   0.000001  -0.000001   0.000089   0.000747
    40  H    0.000000   0.000000   0.000000   0.000000  -0.000000   0.000003
    41  H   -0.000000   0.000000   0.000000   0.000000   0.000000   0.000000
    42  H   -0.000000   0.000000   0.000000  -0.000000  -0.000002  -0.000000
    43  H    0.000000   0.000000  -0.000000   0.000000   0.000000  -0.000001
    44  H    0.000000  -0.000000   0.000000   0.000000   0.000000  -0.000000
    45  H    0.000000   0.000000  -0.000000  -0.000003  -0.000001   0.000002
    46  H   -0.000000   0.000000   0.000000   0.000000   0.000000  -0.000000
              31         32         33         34         35         36
     1  C    0.000003   0.000066   0.000000  -0.000000   0.000000   0.000000
     2  O   -0.000000  -0.000001   0.000000   0.000000  -0.000000  -0.000000
     3  C   -0.000143   0.000422  -0.000003  -0.000000  -0.000000  -0.000005
     4  C   -0.003164  -0.002691  -0.000083   0.000003   0.000002   0.000192
     5  C   -0.002466  -0.043088   0.000224   0.000078  -0.000117  -0.002619
     6  C    0.000139  -0.003669  -0.000000  -0.000029   0.000003  -0.001910
     7  C   -0.000010  -0.000195   0.000000  -0.000000  -0.000000  -0.000065
     8  C    0.000146  -0.000313   0.000076  -0.000000  -0.000000  -0.000021
     9  C   -0.045684  -0.005197  -0.006323  -0.000032   0.000011   0.000013
    10  C    0.380042  -0.045564  -0.045505  -0.000516  -0.000150  -0.004357
    11  C   -0.048285   0.377252  -0.006755  -0.004800   0.004395  -0.043989
    12  C   -0.039525  -0.004173   0.382651  -0.007057   0.006942  -0.000490
    13  C   -0.008275  -0.001345  -0.053814  -0.038604  -0.037218  -0.008088
    14  C    0.000287  -0.001326  -0.006909   0.377755   0.370023  -0.035139
    15  C   -0.003251  -0.045168  -0.001067  -0.037814  -0.033115   0.381741
    16  C   -0.003499  -0.000020  -0.044459   0.000049  -0.000248  -0.000018
    17  C   -0.000019   0.000003  -0.001791   0.000092   0.000012   0.000000
    18  C    0.000058  -0.000067  -0.002202  -0.005689  -0.003804  -0.000025
    19  C    0.002358   0.000044   0.006604   0.006192  -0.006092   0.002749
    20  O   -0.000001   0.000000   0.000047  -0.000062   0.001692  -0.000003
    21  H   -0.000001  -0.000036  -0.000000  -0.000000   0.000000  -0.000000
    22  H    0.006030   0.005868   0.000001   0.000002   0.000000   0.004442
    23  H    0.000006   0.004518  -0.000002   0.000005   0.000001   0.000206
    24  H    0.000000   0.000082  -0.000000   0.000007   0.000005   0.001148
    25  H   -0.000002   0.000012  -0.000000   0.000000   0.000000   0.000006
    26  H   -0.000000  -0.000002   0.000000   0.000000   0.000000   0.000000
    27  H   -0.000032  -0.000065   0.000002  -0.000000   0.000000  -0.000000
    28  H    0.003993   0.000169   0.000002  -0.000000  -0.000000  -0.000002
    29  H    0.005498   0.005041   0.005098  -0.000013   0.000000  -0.000001
    30  H   -0.003628   0.000044  -0.000016   0.000001  -0.000000   0.000004
    31  H    0.600363   0.005769   0.005860   0.000042  -0.000010   0.002021
    32  H    0.005769   0.599944   0.005106   0.003844  -0.000047   0.005569
    33  H    0.005860   0.005106   0.620921   0.005532   0.000040   0.000085
    34  H    0.000042   0.003844   0.005532   0.579023  -0.032203   0.005014
    35  H   -0.000010  -0.000047   0.000040  -0.032203   0.587952  -0.003532
    36  H    0.002021   0.005569   0.000085   0.005014  -0.003532   0.571350
    37  H   -0.000058  -0.004544  -0.000081  -0.004058  -0.002531  -0.030969
    38  H   -0.000125  -0.000002  -0.006522  -0.000003   0.000003   0.000000
    39  H    0.003703   0.000004   0.005305  -0.000007   0.000005  -0.000006
    40  H    0.000001  -0.000000   0.000470  -0.000015   0.000000   0.000000
    41  H   -0.000010  -0.000000  -0.000054   0.000000   0.000000  -0.000000
    42  H   -0.000011  -0.000010   0.004784   0.006287   0.000113  -0.000003
    43  H    0.000149   0.000002  -0.000051  -0.000146  -0.000036  -0.000044
    44  H   -0.000037   0.000002  -0.000115   0.000031   0.004960   0.000331
    45  H    0.002997  -0.000023  -0.000020  -0.000066  -0.000163   0.002084
    46  H    0.000000   0.000000  -0.000005  -0.000023   0.002281   0.000001
              37         38         39         40         41         42
     1  C   -0.000014   0.000000   0.000000   0.000000   0.000000   0.000000
     2  O   -0.000000  -0.000000   0.000000   0.000000  -0.000000  -0.000000
     3  C    0.000020   0.000000  -0.000000   0.000000   0.000000   0.000000
     4  C   -0.000141  -0.000001  -0.000001   0.000000  -0.000000   0.000000
     5  C   -0.008167   0.000000   0.000001  -0.000000  -0.000000  -0.000000
     6  C    0.004559  -0.000000   0.000000   0.000000   0.000000   0.000000
     7  C    0.000119   0.000000  -0.000000  -0.000000  -0.000000  -0.000000
     8  C   -0.000010  -0.000007  -0.000027  -0.000000  -0.000000  -0.000000
     9  C   -0.000134   0.001679  -0.000804  -0.000005   0.000003   0.000008
    10  C    0.004418  -0.001590  -0.004127  -0.000065  -0.000136  -0.000233
    11  C   -0.031287  -0.000085   0.000083   0.000004   0.000002  -0.000015
    12  C    0.000090  -0.026906  -0.039062   0.001592   0.003567  -0.001191
    13  C    0.004811   0.005418  -0.005226   0.004311  -0.003410  -0.069806
    14  C   -0.034795  -0.000158  -0.000003  -0.000147  -0.000129  -0.009492
    15  C    0.380971  -0.000005  -0.000020   0.000004   0.000004   0.000113
    16  C    0.000009   0.379150   0.386053  -0.031636  -0.026865   0.003199
    17  C    0.000003  -0.029580  -0.033338   0.379010   0.373382  -0.047991
    18  C   -0.000083   0.002665   0.002167  -0.027251  -0.032292   0.388704
    19  C    0.000071   0.000135   0.002001   0.000182   0.001511   0.007635
    20  O    0.000001  -0.000035  -0.000007   0.001843   0.002612  -0.040793
    21  H    0.000000  -0.000000   0.000000   0.000000   0.000000   0.000000
    22  H    0.000016   0.000000  -0.000002  -0.000000  -0.000000  -0.000000
    23  H    0.001334   0.000000  -0.000000  -0.000000   0.000000  -0.000000
    24  H   -0.000129  -0.000000  -0.000000   0.000000   0.000000   0.000000
    25  H    0.000006   0.000000  -0.000000   0.000000  -0.000000  -0.000000
    26  H    0.000002  -0.000000   0.000000   0.000000   0.000000   0.000000
    27  H   -0.000000   0.000001   0.000001   0.000000   0.000000   0.000000
    28  H    0.000000   0.000003  -0.000001   0.000000   0.000000  -0.000000
    29  H   -0.000001   0.000385   0.000089  -0.000000   0.000000  -0.000002
    30  H    0.000002   0.000181   0.000747   0.000003   0.000000  -0.000000
    31  H   -0.000058  -0.000125   0.003703   0.000001  -0.000010  -0.000011
    32  H   -0.004544  -0.000002   0.000004  -0.000000  -0.000000  -0.000010
    33  H   -0.000081  -0.006522   0.005305   0.000470  -0.000054   0.004784
    34  H   -0.004058  -0.000003  -0.000007  -0.000015   0.000000   0.006287
    35  H   -0.002531   0.000003   0.000005   0.000000   0.000000   0.000113
    36  H   -0.030969   0.000000  -0.000006   0.000000  -0.000000  -0.000003
    37  H    0.554352  -0.000000  -0.000000  -0.000000  -0.000000  -0.000004
    38  H   -0.000000   0.550777  -0.032921  -0.006836   0.002556  -0.000086
    39  H   -0.000000  -0.032921   0.561462   0.003601  -0.008994  -0.000174
    40  H   -0.000000  -0.006836   0.003601   0.540574  -0.026872  -0.007250
    41  H   -0.000000   0.002556  -0.008994  -0.026872   0.527378   0.005115
    42  H   -0.000004  -0.000086  -0.000174  -0.007250   0.005115   0.639440
    43  H   -0.000000   0.000024   0.000907  -0.000023   0.000685   0.000036
    44  H   -0.000031  -0.000001   0.000005  -0.000006   0.000116   0.000198
    45  H    0.000026  -0.000015   0.000108  -0.000000   0.000040  -0.000077
    46  H    0.000002   0.000004   0.000003  -0.000234  -0.000101  -0.004164
              43         44         45         46
     1  C   -0.000000   0.000000   0.000000  -0.000000
     2  O    0.000000  -0.000000  -0.000000  -0.000000
     3  C    0.000000  -0.000000  -0.000000   0.000000
     4  C    0.000000   0.000000   0.000000   0.000000
     5  C   -0.000003  -0.000003   0.000062  -0.000000
     6  C   -0.000000   0.000000   0.000003   0.000000
     7  C    0.000000   0.000000   0.000000   0.000000
     8  C    0.000000  -0.000000   0.000010   0.000000
     9  C   -0.000026   0.000001  -0.000039   0.000000
    10  C   -0.000095  -0.000014   0.001628  -0.000002
    11  C    0.000036   0.000063  -0.000392   0.000001
    12  C   -0.005157   0.005972  -0.005465   0.000238
    13  C   -0.031230  -0.030171  -0.033488  -0.004062
    14  C    0.005130  -0.005213  -0.005702   0.002258
    15  C    0.000063  -0.000347   0.001630  -0.000066
    16  C    0.002272  -0.000245  -0.000126  -0.000318
    17  C    0.004008   0.000105  -0.000287   0.007229
    18  C   -0.005929  -0.007704   0.005359  -0.026154
    19  C    0.381364   0.374829   0.375116  -0.001178
    20  O   -0.000068   0.008748   0.000401   0.242349
    21  H   -0.000000   0.000000  -0.000000   0.000000
    22  H    0.000001   0.000001   0.000010   0.000000
    23  H    0.000000   0.000000  -0.000000   0.000000
    24  H    0.000000   0.000000  -0.000002   0.000000
    25  H    0.000000   0.000000   0.000000  -0.000000
    26  H    0.000000  -0.000000   0.000000   0.000000
    27  H   -0.000000   0.000000  -0.000000   0.000000
    28  H    0.000000   0.000000  -0.000003   0.000000
    29  H    0.000000   0.000000  -0.000001   0.000000
    30  H   -0.000001  -0.000000   0.000002  -0.000000
    31  H    0.000149  -0.000037   0.002997   0.000000
    32  H    0.000002   0.000002  -0.000023   0.000000
    33  H   -0.000051  -0.000115  -0.000020  -0.000005
    34  H   -0.000146   0.000031  -0.000066  -0.000023
    35  H   -0.000036   0.004960  -0.000163   0.002281
    36  H   -0.000044   0.000331   0.002084   0.000001
    37  H   -0.000000  -0.000031   0.000026   0.000002
    38  H    0.000024  -0.000001  -0.000015   0.000004
    39  H    0.000907   0.000005   0.000108   0.000003
    40  H   -0.000023  -0.000006  -0.000000  -0.000234
    41  H    0.000685   0.000116   0.000040  -0.000101
    42  H    0.000036   0.000198  -0.000077  -0.004164
    43  H    0.529258  -0.024681  -0.028199   0.000075
    44  H   -0.024681   0.536633  -0.028296   0.000866
    45  H   -0.028199  -0.028296   0.555591  -0.000074
    46  H    0.000075   0.000866  -0.000074   0.374249
 Mulliken charges:
               1
     1  C    0.453594
     2  O   -0.518051
     3  C   -0.270643
     4  C    0.168979
     5  C   -0.178280
     6  C   -0.338669
     7  C   -0.399765
     8  C   -0.380883
     9  C   -0.306176
    10  C   -0.129492
    11  C   -0.122350
    12  C   -0.119015
    13  C    0.005282
    14  C   -0.311251
    15  C   -0.316889
    16  C   -0.327182
    17  C   -0.347187
    18  C    0.139490
    19  C   -0.496745
    20  O   -0.649072
    21  H    0.173385
    22  H    0.154965
    23  H    0.170837
    24  H    0.170961
    25  H    0.177025
    26  H    0.191322
    27  H    0.180822
    28  H    0.177550
    29  H    0.158838
    30  H    0.167953
    31  H    0.138771
    32  H    0.143783
    33  H    0.132970
    34  H    0.147182
    35  H    0.140825
    36  H    0.154327
    37  H    0.166226
    38  H    0.161895
    39  H    0.158477
    40  H    0.168746
    41  H    0.181891
    42  H    0.125672
    43  H    0.171678
    44  H    0.164004
    45  H    0.157374
    46  H    0.406826
 Sum of Mulliken charges =  -0.00000
 Mulliken charges with hydrogens summed into heavy atoms:
               1
     1  C    0.453594
     2  O   -0.518051
     3  C   -0.097258
     4  C    0.168979
     5  C   -0.023315
     6  C    0.003129
     7  C   -0.031418
     8  C   -0.022510
     9  C    0.020615
    10  C    0.009280
    11  C    0.021433
    12  C    0.013954
    13  C    0.005282
    14  C   -0.023244
    15  C    0.003664
    16  C   -0.006810
    17  C    0.003450
    18  C    0.265162
    19  C   -0.003689
    20  O   -0.242246
 Electronic spatial extent (au):  <R**2>=           6806.3658
 Charge=             -0.0000 electrons
 Dipole moment (field-independent basis, Debye):
    X=             -3.7426    Y=             -0.1913    Z=              0.9134  Tot=              3.8572
 Quadrupole moment (field-independent basis, Debye-Ang):
   XX=           -170.2551   YY=           -112.1072   ZZ=           -119.3322
   XY=              2.5076   XZ=             10.3336   YZ=              0.8368
 Traceless Quadrupole moment (field-independent basis, Debye-Ang):
   XX=            -36.3569   YY=             21.7910   ZZ=             14.5659
   XY=              2.5076   XZ=             10.3336   YZ=              0.8368
 Octapole moment (field-independent basis, Debye-Ang**2):
  XXX=           -190.1200  YYY=            -14.2946  ZZZ=             -2.6356  XYY=             -8.6997
  XXY=             -1.8212  XXZ=             34.0466  XZZ=             -7.4099  YZZ=             -1.3936
  YYZ=             -4.8793  XYZ=             -7.8131
 Hexadecapole moment (field-independent basis, Debye-Ang**3):
 XXXX=          -9267.9497 YYYY=          -1367.1294 ZZZZ=           -428.2870 XXXY=             57.1543
 XXXZ=            289.9983 YYYX=             85.4597 YYYZ=              2.3000 ZZZX=              9.2783
 ZZZY=              5.8660 XXYY=          -1267.8990 XXZZ=          -1248.8649 YYZZ=           -305.8353
 XXYZ=              9.0608 YYXZ=              8.2278 ZZXY=              0.4661
 N-N= 1.673126043721D+03 E-N=-5.323428480769D+03  KE= 8.443160682487D+02

 **********************************************************************

            Electrostatic Properties Using The SCF Density.

 **********************************************************************

       Atomic Center    1 is at   4.635857 -0.162482 -0.223894
       Atomic Center    2 is at   5.808660 -0.174910 -0.674022
       Atomic Center    3 is at   3.792137  0.968749 -0.259788
       Atomic Center    4 is at   2.487176  0.913178  0.130682
       Atomic Center    5 is at   1.792669 -0.365529  0.417794
       Atomic Center    6 is at   2.634595 -1.576734  0.014500
       Atomic Center    7 is at   4.073474 -1.372214  0.465866
       Atomic Center    8 is at   1.723061  2.144122  0.409587
       Atomic Center    9 is at   0.276322  2.124288 -0.076207
       Atomic Center   10 is at  -0.422179  0.820076  0.301595
       Atomic Center   11 is at   0.397503 -0.364904 -0.237788
       Atomic Center   12 is at  -1.821756  0.751944 -0.299152
       Atomic Center   13 is at  -2.542318 -0.564839  0.019582
       Atomic Center   14 is at  -1.731983 -1.702354 -0.589592
       Atomic Center   15 is at  -0.310689 -1.707033 -0.028670
       Atomic Center   16 is at  -2.853969  1.818496  0.072124
       Atomic Center   17 is at  -4.201544  1.171444 -0.306719
       Atomic Center   18 is at  -3.904642 -0.301219 -0.661968
       Atomic Center   19 is at  -2.773486 -0.799404  1.512736
       Atomic Center   20 is at  -4.963615 -1.127541 -0.252409
       Atomic Center   21 is at   4.219945  1.911407 -0.570345
       Atomic Center   22 is at   1.652457 -0.376799  1.522789
       Atomic Center   23 is at   2.607932 -1.703126 -1.073961
       Atomic Center   24 is at   2.246410 -2.484098  0.476331
       Atomic Center   25 is at   4.078466 -1.175232  1.542655
       Atomic Center   26 is at   4.688428 -2.253147  0.277311
       Atomic Center   27 is at   2.242221  3.023589  0.030027
       Atomic Center   28 is at   1.733512  2.197315  1.515494
       Atomic Center   29 is at   0.264702  2.239872 -1.165074
       Atomic Center   30 is at  -0.259475  2.971552  0.355236
       Atomic Center   31 is at  -0.469104  0.756321  1.390591
       Atomic Center   32 is at   0.528195 -0.220359 -1.320297
       Atomic Center   33 is at  -1.700720  0.783110 -1.392080
       Atomic Center   34 is at  -1.685956 -1.562879 -1.673881
       Atomic Center   35 is at  -2.209359 -2.663772 -0.400425
       Atomic Center   36 is at  -0.325163 -1.938716  1.036374
       Atomic Center   37 is at   0.250985 -2.496368 -0.532792
       Atomic Center   38 is at  -2.691973  2.750695 -0.467663
       Atomic Center   39 is at  -2.802140  2.046514  1.135796
       Atomic Center   40 is at  -4.665844  1.679355 -1.151890
       Atomic Center   41 is at  -4.912059  1.190712  0.518440
       Atomic Center   42 is at  -3.771945 -0.393787 -1.754084
       Atomic Center   43 is at  -3.403453 -0.022418  1.932236
       Atomic Center   44 is at  -3.283739 -1.750548  1.650819
       Atomic Center   45 is at  -1.841107 -0.821174  2.066327
       Atomic Center   46 is at  -4.752947 -2.041929 -0.500600
 -----------------------------------------------------------------

              Electrostatic Properties (Atomic Units)

 -----------------------------------------------------------------
    Center     Electric         -------- Electric Field --------
               Potential          X             Y             Z
 -----------------------------------------------------------------
    1 Atom    -14.676057      0.005697     -0.004566     -0.001462
    2 Atom    -22.354880      0.095967     -0.001615     -0.036840
    3 Atom    -14.749309     -0.010150      0.001513      0.002572
    4 Atom    -14.711568      0.012942      0.000174     -0.004184
    5 Atom    -14.719976     -0.001978     -0.004236     -0.001736
    6 Atom    -14.732330     -0.000054     -0.000741      0.000649
    7 Atom    -14.744075      0.002055     -0.001585     -0.002589
    8 Atom    -14.726676     -0.001838      0.002481     -0.000793
    9 Atom    -14.732752     -0.002494     -0.002085      0.000144
   10 Atom    -14.731184     -0.000935      0.000194     -0.003704
   11 Atom    -14.725929     -0.002470      0.000244      0.001953
   12 Atom    -14.738807     -0.000947     -0.001879      0.003887
   13 Atom    -14.737037     -0.001468      0.001628     -0.003083
   14 Atom    -14.739325     -0.001570      0.004160      0.001876
   15 Atom    -14.736748     -0.000017      0.000311     -0.001207
   16 Atom    -14.741925      0.001562     -0.000237     -0.000534
   17 Atom    -14.746589     -0.002580     -0.001362      0.000444
   18 Atom    -14.692410      0.020757      0.013683     -0.004478
   19 Atom    -14.752475     -0.000825      0.000094     -0.002026
   20 Atom    -22.310758     -0.095249      0.038571      0.052860
   21 Atom     -1.106524      0.017332      0.032149     -0.009241
   22 Atom     -1.100318     -0.005918     -0.005997      0.025677
   23 Atom     -1.115634     -0.001826     -0.006074     -0.030854
   24 Atom     -1.116969     -0.013364     -0.028076      0.010995
   25 Atom     -1.108122      0.003201      0.002530      0.033873
   26 Atom     -1.121069      0.022196     -0.021340     -0.007068
   27 Atom     -1.108874      0.016974      0.027446     -0.009052
   28 Atom     -1.098549     -0.001763      0.010238      0.027280
   29 Atom     -1.116445     -0.002289      0.005484     -0.031760
   30 Atom     -1.116909     -0.016864      0.026318      0.010240
   31 Atom     -1.116519     -0.004442     -0.002223      0.035705
   32 Atom     -1.116027      0.004568      0.004191     -0.031647
   33 Atom     -1.123148      0.003709      0.001666     -0.032088
   34 Atom     -1.119737      0.000110      0.001597     -0.033356
   35 Atom     -1.119203     -0.013450     -0.032702      0.005012
   36 Atom     -1.118149      0.000099     -0.011496      0.033050
   37 Atom     -1.120488      0.017176     -0.023945     -0.011712
   38 Atom     -1.126072      0.004987      0.029034     -0.014868
   39 Atom     -1.124943      0.000596      0.008288      0.033371
   40 Atom     -1.128772     -0.016207      0.015189     -0.023169
   41 Atom     -1.127590     -0.023756     -0.000421      0.023585
   42 Atom     -1.129509      0.003821     -0.002117     -0.030228
   43 Atom     -1.123408     -0.022032      0.022121      0.017174
   44 Atom     -1.123700     -0.017917     -0.026984      0.007683
   45 Atom     -1.120821      0.027920     -0.001573      0.021181
   46 Atom     -0.994462      0.004627     -0.038181     -0.009461
 -----------------------------------------------------------------
 -----------------------------------------------------
    Center         ---- Electric Field Gradient ----
                     XX            YY            ZZ
 -----------------------------------------------------
    1 Atom     -493.396516   -493.303285   -493.851618
    2 Atom    -1217.283942  -1214.861332  -1217.365314
    3 Atom     -493.145835   -493.178330   -493.395397
    4 Atom     -493.288404   -493.321625   -493.883535
    5 Atom     -492.791111   -492.822960   -492.839552
    6 Atom     -492.655374   -492.625684   -492.611525
    7 Atom     -492.732331   -492.736586   -492.749404
    8 Atom     -492.611965   -492.638715   -492.642497
    9 Atom     -492.689393   -492.633265   -492.639017
   10 Atom     -492.782605   -492.803770   -492.790283
   11 Atom     -492.867151   -492.821077   -492.838754
   12 Atom     -492.925870   -492.935875   -492.933825
   13 Atom     -492.968086   -492.972201   -493.004788
   14 Atom     -492.736941   -492.708835   -492.725897
   15 Atom     -492.657393   -492.652173   -492.629861
   16 Atom     -492.661039   -492.605853   -492.588574
   17 Atom     -492.655793   -492.688750   -492.615046
   18 Atom     -492.852282   -492.785690   -492.658870
   19 Atom     -492.561661   -492.566315   -492.612177
   20 Atom    -1214.293234  -1215.829067  -1212.970796
   21 Atom       -1.684440     -1.969091     -1.635502
   22 Atom       -1.614180     -1.611204     -1.985317
   23 Atom       -1.622202     -1.623431     -2.040517
   24 Atom       -1.691371     -1.940233     -1.709490
   25 Atom       -1.608107     -1.622476     -2.029451
   26 Atom       -1.749143     -1.898976     -1.622449
   27 Atom       -1.729736     -1.915258     -1.674561
   28 Atom       -1.600378     -1.605015     -2.003147
   29 Atom       -1.627515     -1.629851     -2.051957
   30 Atom       -1.737269     -1.895997     -1.696552
   31 Atom       -1.644060     -1.644851     -2.076119
   32 Atom       -1.641555     -1.642653     -2.035020
   33 Atom       -1.655587     -1.645109     -2.052975
   34 Atom       -1.632830     -1.637447     -2.056769
   35 Atom       -1.727634     -1.985491     -1.647977
   36 Atom       -1.633942     -1.652330     -2.057116
   37 Atom       -1.751904     -1.862322     -1.723406
   38 Atom       -1.643394     -1.961132     -1.743420
   39 Atom       -1.633782     -1.650260     -2.061198
   40 Atom       -1.710002     -1.729877     -1.900233
   41 Atom       -1.804028     -1.615646     -1.876011
   42 Atom       -1.679695     -1.677061     -2.063535
   43 Atom       -1.766506     -1.853820     -1.689427
   44 Atom       -1.702823     -1.959215     -1.621618
   45 Atom       -1.969326     -1.620388     -1.745386
   46 Atom       -1.481308     -2.023798     -1.463789
 -----------------------------------------------------
 -----------------------------------------------------
    Center         ---- Electric Field Gradient ----
                     XY            XZ            YZ
 -----------------------------------------------------
    1 Atom       -0.096909     -0.197728     -0.222489
    2 Atom       -0.290151     -0.040812     -0.923515
    3 Atom       -0.023687     -0.079936     -0.036893
    4 Atom       -0.006410     -0.173032     -0.027273
    5 Atom       -0.010994     -0.011265     -0.003162
    6 Atom        0.019015     -0.005082     -0.022902
    7 Atom       -0.015756     -0.039010      0.003858
    8 Atom        0.020596     -0.019684     -0.011075
    9 Atom       -0.005067     -0.018919      0.018803
   10 Atom       -0.001533      0.006704     -0.005470
   11 Atom       -0.007751     -0.020459     -0.007151
   12 Atom        0.015809     -0.012675      0.003585
   13 Atom        0.002501      0.009824      0.002853
   14 Atom       -0.013711     -0.012073     -0.010931
   15 Atom       -0.019557     -0.011108      0.012728
   16 Atom       -0.004056     -0.006796     -0.014682
   17 Atom       -0.014514     -0.020663     -0.037054
   18 Atom       -0.196337      0.096833      0.097314
   19 Atom       -0.001648      0.001684      0.012144
   20 Atom       -0.588676      0.782127     -0.177349
   21 Atom       -0.155765      0.055975      0.116469
   22 Atom        0.000087      0.050811      0.007081
   23 Atom       -0.000211     -0.012341     -0.050387
   24 Atom       -0.132271      0.067374      0.156614
   25 Atom       -0.001231     -0.001114     -0.075675
   26 Atom        0.200092      0.041779     -0.062609
   27 Atom       -0.168922      0.074648      0.125480
   28 Atom        0.003095     -0.001248     -0.023054
   29 Atom       -0.002059     -0.006013      0.044994
   30 Atom        0.167125      0.084846     -0.136248
   31 Atom       -0.002207      0.018877      0.026786
   32 Atom       -0.007025      0.047914      0.054126
   33 Atom       -0.001465      0.045097      0.011056
   34 Atom       -0.001113      0.017283      0.055016
   35 Atom       -0.173768      0.034014      0.068596
   36 Atom       -0.003081      0.005080      0.092536
   37 Atom        0.162341      0.103401     -0.146371
   38 Atom       -0.058059      0.032382      0.191044
   39 Atom       -0.004853     -0.019678     -0.091158
   40 Atom        0.087522     -0.148169      0.161492
   41 Atom        0.006844      0.220457     -0.008846
   42 Atom       -0.002803      0.051243     -0.033950
   43 Atom        0.194793      0.104568     -0.126465
   44 Atom       -0.187591      0.028734      0.049223
   45 Atom        0.008107     -0.202275      0.005116
   46 Atom        0.122197      0.055466     -0.158110
 -----------------------------------------------------
 -----------------------------------------------------
    Center         ---- Electric Field Gradient ----
                   ----       Eigenvalues       ----
 -----------------------------------------------------
    1 Atom     -494.008792   -493.324012   -493.218615
    2 Atom    -1217.710475  -1217.267705  -1214.532409
    3 Atom     -493.425965   -493.174062   -493.119536
    4 Atom     -493.931472   -493.320350   -493.241741
    5 Atom     -492.843627   -492.824138   -492.785857
    6 Atom     -492.665347   -492.636438   -492.590798
    7 Atom     -492.781909   -492.740818   -492.695595
    8 Atom     -492.652420   -492.649859   -492.590898
    9 Atom     -492.695730   -492.652411   -492.613534
   10 Atom     -492.805741   -492.792868   -492.778049
   11 Atom     -492.879631   -492.828813   -492.818538
   12 Atom     -492.953458   -492.931127   -492.910986
   13 Atom     -493.007385   -492.973327   -492.964362
   14 Atom     -492.751794   -492.718295   -492.701584
   15 Atom     -492.674513   -492.649549   -492.615365
   16 Atom     -492.662214   -492.613263   -492.579989
   17 Atom     -492.712431   -492.650822   -492.596335
   18 Atom     -493.064302   -492.628050   -492.604492
   19 Atom     -492.615272   -492.563909   -492.560972
   20 Atom    -1216.031281  -1214.506603  -1212.555213
   21 Atom       -2.075661     -1.616634     -1.596738
   22 Atom       -1.992276     -1.611341     -1.607084
   23 Atom       -2.046873     -1.622176     -1.617101
   24 Atom       -2.076584     -1.634219     -1.630291
   25 Atom       -2.043070     -1.609564     -1.607399
   26 Atom       -2.050934     -1.611263     -1.608371
   27 Atom       -2.069227     -1.629793     -1.620535
   28 Atom       -2.004480     -1.605598     -1.598462
   29 Atom       -2.056777     -1.629192     -1.623353
   30 Atom       -2.070529     -1.631857     -1.627431
   31 Atom       -2.078605     -1.644249     -1.642177
   32 Atom       -2.048117     -1.636132     -1.634979
   33 Atom       -2.058330     -1.650542     -1.644799
   34 Atom       -2.064559     -1.632666     -1.629820
   35 Atom       -2.086311     -1.640223     -1.634568
   36 Atom       -2.077339     -1.635132     -1.630918
   37 Atom       -2.070983     -1.635859     -1.630790
   38 Atom       -2.082224     -1.634112     -1.631609
   39 Atom       -2.081429     -1.633075     -1.630737
   40 Atom       -2.078083     -1.633058     -1.628970
   41 Atom       -2.063674     -1.616826     -1.615186
   42 Atom       -2.073059     -1.680815     -1.666417
   43 Atom       -2.078911     -1.620856     -1.609986
   44 Atom       -2.065534     -1.614842     -1.603280
   45 Atom       -2.088750     -1.626173     -1.620178
   46 Atom       -2.093952     -1.464313     -1.410630
 -----------------------------------------------------
 -----------------------------------------------------
    Center         ---- Electric Field Gradient ----
                       ( tensor representation )
                   3XX-RR        3YY-RR        3ZZ-RR
 -----------------------------------------------------
    1 Atom        0.120624      0.213855     -0.334479
    2 Atom       -0.780413      1.642198     -0.861785
    3 Atom        0.094019      0.061524     -0.155543
    4 Atom        0.209451      0.176229     -0.385680
    5 Atom        0.026763     -0.005086     -0.021678
    6 Atom       -0.024513      0.005177      0.019336
    7 Atom        0.007109      0.002855     -0.009964
    8 Atom        0.019094     -0.007656     -0.011438
    9 Atom       -0.035501      0.020627      0.014875
   10 Atom        0.009615     -0.011551      0.001936
   11 Atom       -0.024824      0.021250      0.003574
   12 Atom        0.005987     -0.004018     -0.001968
   13 Atom        0.013606      0.009491     -0.023097
   14 Atom       -0.013050      0.015056     -0.002006
   15 Atom       -0.010917     -0.005697      0.016615
   16 Atom       -0.042550      0.012635      0.029915
   17 Atom       -0.002597     -0.035554      0.038151
   18 Atom       -0.086668     -0.020076      0.106744
   19 Atom        0.018390      0.013736     -0.032126
   20 Atom        0.071131     -1.464701      1.393569
   21 Atom        0.078571     -0.206080      0.127509
   22 Atom        0.122720      0.125696     -0.248416
   23 Atom        0.139848      0.138619     -0.278467
   24 Atom        0.088994     -0.159868      0.070874
   25 Atom        0.145238      0.130868     -0.276106
   26 Atom        0.007713     -0.142120      0.134407
   27 Atom        0.043449     -0.142073      0.098624
   28 Atom        0.135802      0.131165     -0.266967
   29 Atom        0.142259      0.139923     -0.282182
   30 Atom        0.039337     -0.119391      0.080054
   31 Atom        0.144283      0.143492     -0.287775
   32 Atom        0.131521      0.130424     -0.261944
   33 Atom        0.128970      0.139448     -0.268418
   34 Atom        0.142852      0.138235     -0.281087
   35 Atom        0.059400     -0.198457      0.139057
   36 Atom        0.147187      0.128800     -0.275987
   37 Atom        0.027306     -0.083111      0.055805
   38 Atom        0.139254     -0.178483      0.039229
   39 Atom        0.147965      0.131487     -0.279451
   40 Atom        0.070035      0.050160     -0.120196
   41 Atom       -0.038800      0.149582     -0.110782
   42 Atom        0.127068      0.129703     -0.256771
   43 Atom        0.003412     -0.083903      0.080491
   44 Atom        0.058396     -0.197997      0.139601
   45 Atom       -0.190959      0.157979      0.032981
   46 Atom        0.174991     -0.367500      0.192509
 -----------------------------------------------------
 -----------------------------------------------------
    Center         ---- Electric Field Gradient ----
                       ( tensor representation )
                   ----       Eigenvalues       ----
 -----------------------------------------------------
    1 Atom       -0.491652      0.193127      0.298525
    2 Atom       -1.206945     -0.764176      1.971121
    3 Atom       -0.186111      0.065792      0.120318
    4 Atom       -0.433618      0.177505      0.256113
    5 Atom       -0.025753     -0.006264      0.032017
    6 Atom       -0.034486     -0.005577      0.040063
    7 Atom       -0.042468     -0.001377      0.043846
    8 Atom       -0.021361     -0.018801      0.040161
    9 Atom       -0.041839      0.001481      0.040358
   10 Atom       -0.013522     -0.000649      0.014170
   11 Atom       -0.037304      0.013514      0.023789
   12 Atom       -0.021601      0.000730      0.020871
   13 Atom       -0.025694      0.008365      0.017329
   14 Atom       -0.027903      0.005596      0.022307
   15 Atom       -0.028037     -0.003073      0.031111
   16 Atom       -0.043726      0.005226      0.038500
   17 Atom       -0.059235      0.002374      0.056861
   18 Atom       -0.298687      0.137564      0.161123
   19 Atom       -0.035221      0.016142      0.019079
   20 Atom       -1.666916     -0.142237      1.809153
   21 Atom       -0.312649      0.146377      0.166273
   22 Atom       -0.255376      0.125560      0.129816
   23 Atom       -0.284823      0.139874      0.144949
   24 Atom       -0.296219      0.146145      0.150074
   25 Atom       -0.289726      0.143780      0.145946
   26 Atom       -0.294078      0.145593      0.148485
   27 Atom       -0.296042      0.143392      0.152650
   28 Atom       -0.268300      0.130582      0.137718
   29 Atom       -0.287003      0.140582      0.146421
   30 Atom       -0.293924      0.144749      0.149175
   31 Atom       -0.290261      0.144095      0.146166
   32 Atom       -0.275041      0.136944      0.138097
   33 Atom       -0.273772      0.134015      0.139758
   34 Atom       -0.288877      0.143015      0.145862
   35 Atom       -0.299277      0.146811      0.152466
   36 Atom       -0.296209      0.145997      0.150212
   37 Atom       -0.291772      0.143352      0.148420
   38 Atom       -0.299576      0.148536      0.151039
   39 Atom       -0.299682      0.148672      0.151010
   40 Atom       -0.298046      0.146979      0.151068
   41 Atom       -0.298445      0.148403      0.150042
   42 Atom       -0.266295      0.125948      0.140347
   43 Atom       -0.308994      0.149062      0.159932
   44 Atom       -0.304316      0.146377      0.157939
   45 Atom       -0.310383      0.152194      0.158189
   46 Atom       -0.437654      0.191986      0.245668
 -----------------------------------------------------
 Unable to Open any file for archive entry.
 1\1\GINC-EXP-3-13\SP\RwB97XD\6-31G(d)\C18H26O2\HKLEM\12-Aug-2024\0\\# 
 wb97xd 6-31G(d) prop=efg\\19nt_mm_min_distance_cutoff4_nowat_xtb_ligan
 d_conf_1\\0,1\C,0,41.9018,41.9066,31.3424\O,0,41.8308,40.7573,31.8447\
 C,0,42.5044,43.0095,31.9853\C,0,42.6677,44.2115,31.3632\C,0,42.4274,44
 .3993,29.9117\C,0,42.2012,43.0688,29.1926\C,0,41.2632,42.1966,30.0144\
 C,0,42.9778,45.4312,32.1333\C,0,43.9876,46.3663,31.4735\C,0,43.6627,46
 .5882,29.9981\C,0,43.5723,45.2245,29.2916\C,0,44.7463,47.4148,29.3148\
 C,0,44.4804,47.6229,27.8179\C,0,44.4658,46.2538,27.1493\C,0,43.3941,45
 .3634,27.7765\C,0,45.0477,48.8272,29.8199\C,0,45.7935,49.486,28.6418\C
 ,0,45.6893,48.5127,27.4481\C,0,43.1919,48.3895,27.5178\O,0,45.5787,49.
 2249,26.2429\H,0,42.8036,42.8941,33.0174\H,0,41.4948,45.0052,29.8489\H
 ,0,43.1577,42.5506,29.0584\H,0,41.7583,43.2343,28.2109\H,0,40.3403,42.
 7545,30.2023\H,0,41.0041,41.274,29.4934\H,0,43.289,45.1867,33.1484\H,0
 ,41.9972,45.9417,32.1948\H,0,44.9881,45.9303,31.5631\H,0,43.9912,47.32
 16,32.0012\H,0,42.6962,47.0915,29.9292\H,0,44.516,44.6884,29.47\H,0,45
 .6799,46.8375,29.3871\H,0,45.444,45.7829,27.2858\H,0,44.291,46.347,26.
 0775\H,0,42.4015,45.7643,27.571\H,0,43.4569,44.3772,27.3116\H,0,45.656
 ,48.8179,30.7235\H,0,44.1241,49.3537,30.0562\H,0,46.8385,49.6764,28.88
 59\H,0,45.3457,50.4357,28.3526\H,0,46.5921,47.8781,27.4145\H,0,43.2295
 ,49.3876,27.9408\H,0,43.078,48.4901,26.4403\H,0,42.3193,47.8817,27.914
 \H,0,45.5281,48.587,25.5131\\Version=ES64L-G16RevC.01\State=1-A\HF=-85
 1.7879725\RMSD=5.047e-09\Dipole=0.2542162,1.3147957,-0.7138992\Quadrup
 ole=9.9335398,-19.2684295,9.3348897,-8.3989983,3.6348921,15.9933261\PG
 =C01 [X(C18H26O2)]\\@
 The archive entry for this job was punched.


 NEVER LISTEN TO CRITICISM
 OR YOU'LL BE DOIN' EVERYBODY ELSE'S THING BUT BUT YOUR OWN.

                                               -- ANDY CAPP
 Job cpu time:       0 days  0 hours 10 minutes 53.1 seconds.
 Elapsed time:       0 days  0 hours  0 minutes 27.6 seconds.
 File lengths (MBytes):  RWF=     71 Int=      0 D2E=      0 Chk=      8 Scr=      1
 Normal termination of Gaussian 16 at Mon Aug 12 07:19:57 2024.
