 Entering Gaussian System, Link 0=g16
 Input=cutoff8_ligand.com
 Output=cutoff8_ligand.log
 Initial command:
 /usr/local/packages/license/gaussian/g16-c01/g16/l1.exe "/work/arkanil/gauss_scratch/Gau-3263444.inp" -scrdir="/work/arkanil/gauss_scratch/"
 Entering Link 1 = /usr/local/packages/license/gaussian/g16-c01/g16/l1.exe PID=   3263445.
  
 Copyright (c) 1988-2019, Gaussian, Inc.  All Rights Reserved.
  
 This is part of the Gaussian(R) 16 program.  It is based on
 the Gaussian(R) 09 system (copyright 2009, Gaussian, Inc.),
 the Gaussian(R) 03 system (copyright 2003, Gaussian, Inc.),
 the Gaussian(R) 98 system (copyright 1998, Gaussian, Inc.),
 the Gaussian(R) 94 system (copyright 1995, Gaussian, Inc.),
 the Gaussian 92(TM) system (copyright 1992, Gaussian, Inc.),
 the Gaussian 90(TM) system (copyright 1990, Gaussian, Inc.),
 the Gaussian 88(TM) system (copyright 1988, Gaussian, Inc.),
 the Gaussian 86(TM) system (copyright 1986, Carnegie Mellon
 University), and the Gaussian 82(TM) system (copyright 1983,
 Carnegie Mellon University). Gaussian is a federally registered
 trademark of Gaussian, Inc.
  
 This software contains proprietary and confidential information,
 including trade secrets, belonging to Gaussian, Inc.
  
 This software is provided under written license and may be
 used, copied, transmitted, or stored only in accord with that
 written license.
  
 The following legend is applicable only to US Government
 contracts under FAR:
  
                    RESTRICTED RIGHTS LEGEND
  
 Use, reproduction and disclosure by the US Government is
 subject to restrictions as set forth in subparagraphs (a)
 and (c) of the Commercial Computer Software - Restricted
 Rights clause in FAR 52.227-19.
  
 Gaussian, Inc.
 340 Quinnipiac St., Bldg. 40, Wallingford CT 06492
  
  
 ---------------------------------------------------------------
 Warning -- This program may not be used in any manner that
 competes with the business of Gaussian, Inc. or will provide
 assistance to any competitor of Gaussian, Inc.  The licensee
 of this program is prohibited from giving any competitor of
 Gaussian, Inc. access to this program.  By using this program,
 the user acknowledges that Gaussian, Inc. is engaged in the
 business of creating and licensing software in the field of
 computational chemistry and represents and warrants to the
 licensee that it is not a competitor of Gaussian, Inc. and that
 it will not use this program in any manner prohibited above.
 ---------------------------------------------------------------
  

 Cite this work as:
 Gaussian 16, Revision C.01,
 M. J. Frisch, G. W. Trucks, H. B. Schlegel, G. E. Scuseria, 
 M. A. Robb, J. R. Cheeseman, G. Scalmani, V. Barone, 
 G. A. Petersson, H. Nakatsuji, X. Li, M. Caricato, A. V. Marenich, 
 J. Bloino, B. G. Janesko, R. Gomperts, B. Mennucci, H. P. Hratchian, 
 J. V. Ortiz, A. F. Izmaylov, J. L. Sonnenberg, D. Williams-Young, 
 F. Ding, F. Lipparini, F. Egidi, J. Goings, B. Peng, A. Petrone, 
 T. Henderson, D. Ranasinghe, V. G. Zakrzewski, J. Gao, N. Rega, 
 G. Zheng, W. Liang, M. Hada, M. Ehara, K. Toyota, R. Fukuda, 
 J. Hasegawa, M. Ishida, T. Nakajima, Y. Honda, O. Kitao, H. Nakai, 
 T. Vreven, K. Throssell, J. A. Montgomery, Jr., J. E. Peralta, 
 F. Ogliaro, M. J. Bearpark, J. J. Heyd, E. N. Brothers, K. N. Kudin, 
 V. N. Staroverov, T. A. Keith, R. Kobayashi, J. Normand, 
 K. Raghavachari, A. P. Rendell, J. C. Burant, S. S. Iyengar, 
 J. Tomasi, M. Cossi, J. M. Millam, M. Klene, C. Adamo, R. Cammi, 
 J. W. Ochterski, R. L. Martin, K. Morokuma, O. Farkas, 
 J. B. Foresman, and D. J. Fox, Gaussian, Inc., Wallingford CT, 2019.
 
 ******************************************
 Gaussian 16:  ES64L-G16RevC.01  3-Jul-2019
                19-May-2026 
 ******************************************
 %chk=19NT_md_min_distance_cutoff6.chk
 %nprocshared=64
 Will use up to   64 processors via shared memory.
 %mem=200GB
 --------------------------
 # wb97xd/6-31g(d) prop=efg
 --------------------------
 1/38=1,172=1/1;
 2/12=2,17=6,18=5,40=1/2;
 3/5=1,6=6,7=1,11=2,25=1,30=1,74=-58/1,2,3;
 4//1;
 5/5=2,38=5/2;
 6/7=2,8=2,9=2,10=2,14=1,28=1/1,2;
 99/5=1,9=1/99;
 ----------------------------
 19NT_md_min_distance_cutoff6
 ----------------------------
 Symbolic Z-matrix:
 Charge =  0 Multiplicity = 1
 C                     43.44387   42.78393   30.94418 
 O                     43.23809   41.6846   31.51893 
 C                     43.23767   44.02503   31.56241 
 C                     43.35769   45.2179   30.89822 
 C                     43.93207   45.27945   29.51055 
 C                     44.71684   44.00594   29.19514 
 C                     43.86235   42.78632   29.49675 
 C                     42.77289   46.42828   31.44672 
 C                     43.45591   47.74062   31.08659 
 C                     43.87717   47.77643   29.62163 
 C                     44.76812   46.56061   29.32257 
 C                     44.65832   49.04549   29.31665 
 C                     45.16637   49.11769   27.86951 
 C                     46.11663   47.9458   27.64172 
 C                     45.40029   46.62245   27.92503 
 C                     43.96825   50.39202   29.51299 
 C                     44.9054   51.3665   28.78096 
 C                     45.83464   50.51142   27.89098 
 C                     44.05541   49.1186   26.81317 
 O                     45.97679   51.11941   26.62606 
 H                     42.86099   44.01541   32.57607 
 H                     43.07459   45.33487   28.82402 
 H                     45.62501   43.97658   29.80211 
 H                     45.00754   43.99023   28.14441 
 H                     42.94988   42.82117   28.89123 
 H                     44.39524   41.86109   29.26375 
 H                     42.60889   46.35463   32.52128 
 H                     41.7343   46.41633   30.98569 
 H                     44.33761   47.87171   31.7205 
 H                     42.78179   48.56812   31.29522 
 H                     42.97508   47.72754   29.00531 
 H                     45.58075   46.55005   30.0585 
 H                     45.54762   49.04137   29.95885 
 H                     46.98181   48.04329   28.30103 
 H                     46.48452   47.93699   26.61195 
 H                     44.62642   46.46251   27.17072 
 H                     46.13348   45.81987   27.8273 
 H                     43.86008   50.65274   30.56332 
 H                     42.97509   50.37853   29.06542 
 H                     45.48936   51.93904   29.49806 
 H                     44.36576   52.07036   28.14901 
 H                     46.82599   50.41629   28.36004 
 H                     43.56481   50.08615   26.78082 
 H                     44.48579   48.92555   25.83114 
 H                     43.30776   48.35806   27.0152 
 H                     46.42687   50.49562   26.04746 
 
                          Input orientation:                          
 ---------------------------------------------------------------------
 Center     Atomic      Atomic             Coordinates (Angstroms)
 Number     Number       Type             X           Y           Z
 ---------------------------------------------------------------------
      1          6           0       43.443874   42.783930   30.944185
      2          8           0       43.238092   41.684604   31.518932
      3          6           0       43.237669   44.025028   31.562411
      4          6           0       43.357690   45.217905   30.898221
      5          6           0       43.932073   45.279454   29.510550
      6          6           0       44.716836   44.005943   29.195140
      7          6           0       43.862352   42.786315   29.496749
      8          6           0       42.772886   46.428281   31.446717
      9          6           0       43.455907   47.740617   31.086594
     10          6           0       43.877170   47.776426   29.621629
     11          6           0       44.768118   46.560614   29.322569
     12          6           0       44.658321   49.045490   29.316649
     13          6           0       45.166375   49.117695   27.869507
     14          6           0       46.116633   47.945796   27.641721
     15          6           0       45.400288   46.622448   27.925033
     16          6           0       43.968247   50.392019   29.512985
     17          6           0       44.905398   51.366501   28.780963
     18          6           0       45.834641   50.511416   27.890977
     19          6           0       44.055408   49.118602   26.813174
     20          8           0       45.976790   51.119413   26.626062
     21          1           0       42.860985   44.015409   32.576069
     22          1           0       43.074592   45.334873   28.824021
     23          1           0       45.625006   43.976578   29.802108
     24          1           0       45.007541   43.990226   28.144408
     25          1           0       42.949882   42.821167   28.891234
     26          1           0       44.395242   41.861095   29.263748
     27          1           0       42.608886   46.354632   32.521279
     28          1           0       41.734297   46.416335   30.985693
     29          1           0       44.337608   47.871714   31.720502
     30          1           0       42.781790   48.568123   31.295220
     31          1           0       42.975080   47.727545   29.005310
     32          1           0       45.580747   46.550050   30.058495
     33          1           0       45.547623   49.041366   29.958851
     34          1           0       46.981812   48.043288   28.301026
     35          1           0       46.484523   47.936991   26.611949
     36          1           0       44.626423   46.462512   27.170722
     37          1           0       46.133482   45.819868   27.827302
     38          1           0       43.860078   50.652738   30.563318
     39          1           0       42.975090   50.378529   29.065418
     40          1           0       45.489362   51.939041   29.498063
     41          1           0       44.365758   52.070359   28.149011
     42          1           0       46.825986   50.416287   28.360043
     43          1           0       43.564807   50.086153   26.780815
     44          1           0       44.485789   48.925545   25.831143
     45          1           0       43.307758   48.358056   27.015200
     46          1           0       46.426867   50.495624   26.047457
 ---------------------------------------------------------------------
                    Distance matrix (angstroms):
                    1          2          3          4          5
     1  C    0.000000
     2  O    1.257457   0.000000
     3  C    1.401801   2.340827   0.000000
     4  C    2.435933   3.589401   1.370587   0.000000
     5  C    2.919124   4.175902   2.503181   1.503108   0.000000
     6  C    2.484533   3.602126   2.791464   2.493314   1.528780
     7  C    1.506718   2.385937   2.488292   2.851567   2.494152
     8  C    3.739526   4.766980   2.450517   1.451845   2.532244
     9  C    4.958747   6.075331   3.752284   2.531641   2.961075
    10  C    5.182848   6.412369   4.271836   2.906128   2.500044
    11  C    4.318171   5.562415   3.713268   2.504966   1.541324
    12  C    6.582620   7.813433   5.680382   4.340901   3.840320
    13  C    7.248257   8.502201   6.579719   5.258594   4.353001
    14  C    6.685414   7.907041   6.247613   5.065368   3.920995
    15  C    5.260898   6.478697   4.965282   3.871020   2.544239
    16  C    7.759273   8.965268   6.728482   5.391022   5.112693
    17  C    8.970847  10.198799   8.025895   6.684565   6.207398
    18  C    8.645917   9.890234   7.892840   6.572676   5.797948
    19  C    7.587311   8.836091   7.012022   5.691209   4.693624
    20  O    9.723277  10.975257   9.066456   7.742017   6.826878
    21  H    2.125875   2.586967   1.081428   2.123178   3.484601
    22  H    3.337480   4.540236   3.039912   2.096696   1.099849
    23  H    2.735705   3.728001   2.966545   2.807681   2.156041
    24  H    3.426216   4.453567   3.849208   3.436959   2.164506
    25  H    2.111876   2.877436   2.944026   3.152564   2.718718
    26  H    2.140232   2.540866   3.362503   3.875072   3.458413
    27  H    3.991784   4.817651   2.596508   2.118295   3.459959
    28  H    4.014815   4.993498   2.882894   2.019726   2.880757
    29  H    5.223693   6.287280   4.003979   2.946029   3.430474
    30  H    5.832536   6.902253   4.573722   3.422460   3.914529
    31  H    5.330884   6.550161   4.507366   3.166669   2.676612
    32  H    4.419766   5.594057   3.758659   2.724286   2.152390
    33  H    6.674740   7.867003   5.750734   4.505228   4.118611
    34  H    6.867615   8.050045   6.387617   5.278491   4.289829
    35  H    7.387006   8.585461   7.095956   5.961765   4.688219
    36  H    5.400871   6.607783   5.211228   4.129525   2.712295
    37  H    5.115258   6.253945   5.055514   4.183052   2.823398
    38  H    7.889006   9.040326   6.731428   5.468269   5.475918
    39  H    7.837567   9.037324   6.831610   5.489772   5.207160
    40  H    9.491646  10.691380   8.483116   7.188751   6.839254
    41  H    9.741696  10.976881   8.811995   7.451879   6.939616
    42  H    8.738955   9.954590   7.998711   6.744969   6.007117
    43  H    8.406588   9.651037   7.727090   6.379324   5.539918
    44  H    8.059046   9.291874   7.643318   6.379223   5.209474
    45  H    6.821021   8.051299   6.281495   4.994087   4.011774
    46  H    9.609704  10.850779   9.080436   7.797697   6.739840
                    6          7          8          9         10
     6  C    0.000000
     7  C    1.519409   0.000000
     8  C    3.836178   4.272380   0.000000
     9  C    4.372108   5.218995   1.522640   0.000000
    10  C    3.886319   4.991695   2.523467   1.524752   0.000000
    11  C    2.558361   3.885368   2.917271   2.495213   1.536693
    12  C    5.041351   6.312152   3.865467   2.506232   1.521096
    13  C    5.299943   6.665940   5.075250   3.895086   2.555578
    14  C    4.460379   5.928166   5.287862   4.357603   2.993980
    15  C    2.987704   4.421703   4.398091   3.876388   2.555385
    16  C    6.437653   7.606458   4.569401   3.125487   2.619432
    17  C    7.374612   8.672939   6.003321   4.534754   3.827872
    18  C    6.728410   8.132995   6.220098   4.852594   3.782462
    19  C    5.678955   6.880168   5.509302   4.529940   3.117791
    20  O    7.667405   9.063786   7.450533   6.137382   4.955541
    21  H    3.856806   3.463469   2.665549   4.055816   4.889438
    22  H    2.144936   2.751050   2.857465   3.324491   2.691002
    23  H    1.092723   2.148702   4.104896   4.530219   4.186448
    24  H    1.090319   2.142355   4.673654   5.012929   4.218440
    25  H    2.148995   1.095657   4.424149   5.410790   5.093911
    26  H    2.169909   1.092837   5.315692   6.226869   5.948749
    27  H    4.585084   4.842710   1.089497   2.167192   3.469584
    28  H    4.232211   4.463476   1.136377   2.174360   2.881393
    29  H    4.633082   5.570657   2.146348   1.093811   2.150896
    30  H    5.382214   6.150725   2.145217   1.087532   2.151174
    31  H    4.113401   5.044256   2.772983   2.136142   1.093619
    32  H    2.822092   4.175421   3.134657   2.643744   2.144068
    33  H    5.160324   6.494562   4.091592   2.709065   2.122312
    34  H    4.714839   6.228687   5.497152   4.503666   3.384377
    35  H    5.025011   6.459669   6.279127   5.406804   3.985253
    36  H    3.184521   4.416857   4.660569   4.282255   2.880051
    37  H    2.677347   4.140957   4.976338   4.634832   3.484060
    38  H    6.840017   7.938399   4.450665   2.986239   3.026589
    39  H    6.607598   7.656043   4.616918   3.357814   2.809636
    40  H    7.976377   9.296211   6.445538   4.927995   4.465623
    41  H    8.139561   9.394855   6.726452   5.310734   4.565653
    42  H    6.799883   8.263879   6.469882   5.094185   4.154032
    43  H    6.642672   7.794387   5.981455   4.904399   3.674592
    44  H    5.964256   7.177429   6.380050   5.484931   4.007327
    45  H    5.067399   6.124537   4.862969   4.120610   2.730567
    46  H    7.412697   8.826539   7.684196   6.466032   5.164271
                   11         12         13         14         15
    11  C    0.000000
    12  C    2.487308   0.000000
    13  C    2.967939   1.535432   0.000000
    14  C    2.561732   2.478181   1.525851   0.000000
    15  C    1.535112   2.891062   2.506802   1.531230   0.000000
    16  C    3.918637   1.525743   2.400090   3.755156   4.333820
    17  C    4.838257   2.394806   2.440489   3.803443   4.845985
    18  C    4.335408   2.359070   1.545800   2.593077   3.913297
    19  C    3.653536   2.576089   1.532999   2.512093   3.045606
    20  O    5.432742   3.644006   2.491948   3.335110   4.716182
    21  H    4.549779   6.257472   7.314361   7.098942   5.905663
    22  H    2.149191   4.064426   4.426781   4.179565   2.806223
    23  H    2.764318   5.183051   5.511476   4.545730   3.251852
    24  H    2.837654   5.201134   5.137289   4.138758   2.670387
    25  H    4.180370   6.468534   6.753001   6.152351   4.624691
    26  H    4.714655   7.189404   7.429455   6.528227   5.047054
    27  H    3.864772   4.659458   5.984501   6.216605   5.384155
    28  H    3.462783   4.271777   5.365363   5.720687   4.780127
    29  H    2.766659   2.694275   4.131523   4.450491   4.134675
    30  H    3.444843   2.768391   4.209962   4.985631   4.690452
    31  H    2.162722   2.160372   2.832726   3.431670   2.875738
    32  H    1.096387   2.761960   3.399437   2.841844   2.142305
    33  H    2.677053   1.096950   2.125214   2.625478   3.163746
    34  H    2.853474   2.726630   2.153223   1.092119   2.159022
    35  H    3.491120   3.446619   2.170951   1.093550   2.151227
    36  H    2.158737   3.358243   2.798186   2.154692   1.092443
    37  H    2.156095   3.846933   3.436967   2.134080   1.091449
    38  H    4.371439   2.185091   3.364429   4.577696   5.057275
    39  H    4.225820   2.161799   2.796718   4.220709   4.614131
    40  H    5.429408   3.015987   3.273608   4.448087   5.545134
    41  H    5.647692   3.255581   3.072025   4.509426   5.549789
    42  H    4.475209   2.737326   2.163626   2.668800   4.076158
    43  H    4.509756   2.951136   2.165220   3.440072   4.083561
    44  H    4.226425   3.491834   2.157556   2.626357   3.244216
    45  H    3.269159   2.755586   2.182051   2.907278   2.866847
    46  H    5.381646   3.989770   2.609099   3.023168   4.425002
                   16         17         18         19         20
    16  C    0.000000
    17  C    1.537440   0.000000
    18  C    2.475600   1.544908   0.000000
    19  C    2.986330   3.106078   2.503449   0.000000
    20  O    3.591333   2.419201   1.410630   2.780281   0.000000
    21  H    7.160284   8.521796   8.543467   7.789749   9.776385
    22  H    5.181507   6.303510   5.940121   4.395693   6.834814
    23  H    6.632218   7.494767   6.811789   6.151242   7.825031
    24  H    6.628431   7.404395   6.578316   5.383213   7.353239
    25  H    7.664297   8.766922   8.274193   6.722962   9.118885
    26  H    8.545239   9.531321   8.876059   7.667608   9.755774
    27  H    5.215188   6.662039   7.008855   6.504953   8.294546
    28  H    4.792230   6.278603   6.569610   5.486321   7.689218
    29  H    3.370682   4.601827   4.886144   5.071118   6.260015
    30  H    2.812585   4.319967   4.968416   4.691893   6.206298
    31  H    2.888518   4.125343   4.143521   2.812048   5.116234
    32  H    4.202197   5.028556   4.522722   4.410921   5.728658
    33  H    2.125438   2.684422   2.553337   3.482521   3.950942
    34  H    4.008361   3.947857   2.752416   3.454540   3.643915
    35  H    4.557940   4.354284   2.947188   2.708744   3.222700
    36  H    4.621733   5.169121   4.286278   2.740203   4.879229
    37  H    5.332386   5.760451   4.701487   4.028461   5.436240
    38  H    1.087600   2.186078   3.325700   4.056514   4.494468
    39  H    1.089431   2.187028   3.094189   2.797696   3.938219
    40  H    2.169629   1.087681   2.177168   4.149666   3.026181
    41  H    2.198924   1.089033   2.157430   3.254788   2.412281
    42  H    3.081645   2.183744   1.100835   3.428249   2.054802
    43  H    2.778681   2.727098   2.562314   1.085307   2.628542
    44  H    3.996793   3.851723   2.928703   1.089442   2.769122
    45  H    3.288188   3.836810   3.433523   1.085461   3.860084
    46  H    4.250345   3.247361   1.936375   2.847162   0.962531
                   21         22         23         24         25
    21  H    0.000000
    22  H    3.983024   0.000000
    23  H    3.916143   3.050611   0.000000
    24  H    4.924222   2.450764   1.769016   0.000000
    25  H    3.874549   2.517695   3.053024   2.481614   0.000000
    26  H    4.238689   3.742273   2.505478   2.482142   1.774703
    27  H    2.353406   3.863484   4.705955   5.522768   5.077291
    28  H    3.092437   2.763834   4.742457   4.967196   4.334702
    29  H    4.217048   4.052206   4.528764   5.320076   5.953030
    30  H    4.730122   4.080008   5.603173   5.986546   6.231766
    31  H    5.152018   2.401593   4.661196   4.340461   4.907769
    32  H    4.489955   3.046538   2.586591   3.247306   4.710469
    33  H    6.271212   4.598023   5.067804   5.394248   6.824877
    34  H    7.175027   4.782824   4.542279   4.511051   6.623847
    35  H    8.004971   4.826170   5.157592   4.484068   6.622725
    36  H    6.190546   2.532419   3.755160   2.684309   4.362378
    37  H    6.042855   3.253533   2.748841   2.171609   4.501051
    38  H    7.007389   5.649941   6.947339   7.180311   8.059642
    39  H    7.268218   5.050410   6.967764   6.766796   7.559411
    40  H    8.897552   7.064027   7.969420   8.077635   9.484346
    41  H    9.313722   6.891265   8.356299   8.105583   9.386329
    42  H    8.629447   6.333167   6.707590   6.681879   8.543547
    43  H    8.422249   5.195158   7.120361   6.411021   7.590258
    44  H    8.499615   4.882799   6.446600   5.475472   6.999043
    45  H    7.069757   3.530699   5.686286   4.821028   5.857023
    46  H    9.865672   6.751326   7.565603   6.980823   8.892344
                   26         27         28         29         30
    26  H    0.000000
    27  H    5.830476   0.000000
    28  H    5.549408   1.768258   0.000000
    29  H    6.493573   2.435418   3.071693   0.000000
    30  H    7.191268   2.536269   2.413139   1.756821   0.000000
    31  H    6.041431   3.792232   2.679688   3.041304   2.446961
    32  H    4.901361   3.864641   3.958883   2.460580   3.665552
    33  H    7.305303   4.735056   4.742009   2.436317   3.108002
    34  H    6.770279   6.307501   6.114804   4.325976   5.184673
    35  H    6.950802   7.241865   6.633753   5.541734   6.003465
    36  H    5.060360   5.719314   4.787539   4.771767   4.984752
    37  H    4.555956   5.894249   5.448306   4.753130   5.550964
    38  H    8.903273   4.885981   4.758619   3.049788   2.458455
    39  H    8.637294   5.316844   4.574495   3.897442   2.878706
    40  H   10.139871   6.972990   6.842064   4.775869   4.682286
    41  H   10.269985   7.407623   6.851230   5.512256   4.967217
    42  H    8.939604   7.183095   6.987056   4.894851   5.327898
    43  H    8.631695   6.913101   5.873613   5.468223   4.826736
    44  H    7.854772   7.408797   6.358949   5.984736   5.734762
    45  H    6.960539   5.900766   4.691576   4.841176   4.317331
    46  H    9.435418   8.581094   7.940214   6.590399   6.673894
                   31         32         33         34         35
    31  H    0.000000
    32  H    3.047161   0.000000
    33  H    3.041931   2.493528   0.000000
    34  H    4.080393   2.698414   2.408618   0.000000
    35  H    4.253027   3.823493   3.646803   1.763966   0.000000
    36  H    2.773618   3.042636   3.908038   3.053572   2.436977
    37  H    3.873298   2.411826   3.907017   2.426453   2.466278
    38  H    3.430359   4.477454   2.410334   4.655364   5.465922
    39  H    2.651665   4.736338   3.033835   4.700156   4.929172
    40  H    4.929616   5.418824   2.934661   4.340184   5.033527
    41  H    4.639749   5.966250   3.721173   4.804597   4.892490
    42  H    4.740800   4.402630   2.465929   2.378842   3.052759
    43  H    3.295328   5.226014   3.888836   4.261486   3.629346
    44  H    3.713864   4.971158   4.263670   3.620612   2.362591
    45  H    2.113944   4.206781   3.761514   3.905266   3.229821
    46  H    5.322217   5.689631   4.264615   3.376461   2.620797
                   36         37         38         39         40
    36  H    0.000000
    37  H    1.765026   0.000000
    38  H    5.445639   6.000899   0.000000
    39  H    4.653166   5.682408   1.761278   0.000000
    40  H    6.012782   6.375783   2.333219   2.990643   0.000000
    41  H    5.698504   6.503614   2.845038   2.374037   1.760589
    42  H    4.678130   4.678723   3.702288   3.915147   2.323883
    43  H    3.796028   5.088655   3.836082   2.377532   3.810583
    44  H    2.807273   4.042867   5.076237   3.854076   4.851249
    45  H    2.314336   3.884150   4.261427   2.897649   4.873136
    46  H    4.557336   5.011648   5.196739   4.586564   3.856041
                   41         42         43         44         45
    41  H    0.000000
    42  H    2.972072   0.000000
    43  H    2.539795   3.638438   0.000000
    44  H    3.908551   3.754220   1.759856   0.000000
    45  H    4.023194   4.292184   1.762762   1.764027   0.000000
    46  H    3.338337   2.348116   2.982762   2.505938   3.903148
                   46
    46  H    0.000000
 Stoichiometry    C18H26O2
 Framework group  C1[X(C18H26O2)]
 Deg. of freedom   132
 Full point group                 C1      NOp   1
 Largest Abelian subgroup         C1      NOp   1
 Largest concise Abelian subgroup C1      NOp   1
                         Standard orientation:                         
 ---------------------------------------------------------------------
 Center     Atomic      Atomic             Coordinates (Angstroms)
 Number     Number       Type             X           Y           Z
 ---------------------------------------------------------------------
      1          6           0        4.674779   -0.145353   -0.042620
      2          8           0        5.925608   -0.083563   -0.155786
      3          6           0        3.832853    0.964194   -0.201089
      4          6           0        2.482951    0.914952    0.030962
      5          6           0        1.782458   -0.394463    0.263499
      6          6           0        2.640664   -1.559723   -0.229268
      7          6           0        4.039264   -1.452435    0.354693
      8          6           0        1.725262    2.136941    0.232221
      9          6           0        0.258641    2.106125   -0.175831
     10          6           0       -0.414167    0.798766    0.227913
     11          6           0        0.374981   -0.379220   -0.364557
     12          6           0       -1.842568    0.745031   -0.292197
     13          6           0       -2.560451   -0.573975    0.027836
     14          6           0       -1.797138   -1.706349   -0.652829
     15          6           0       -0.342080   -1.723434   -0.176193
     16          6           0       -2.831838    1.805792    0.181113
     17          6           0       -4.188737    1.223061   -0.246638
     18          6           0       -3.954303   -0.269903   -0.567324
     19          6           0       -2.714251   -0.857729    1.526474
     20          8           0       -5.006901   -1.043759   -0.035291
     21          1           0        4.303333    1.915701   -0.407898
     22          1           0        1.662662   -0.491002    1.352534
     23          1           0        2.696121   -1.536905   -1.320345
     24          1           0        2.197906   -2.509939    0.070485
     25          1           0        3.980345   -1.469726    1.448628
     26          1           0        4.669451   -2.284330    0.030487
     27          1           0        2.229812    3.006722   -0.187199
     28          1           0        1.790157    2.269883    1.358927
     29          1           0        0.185362    2.231669   -1.259940
     30          1           0       -0.261781    2.943840    0.282557
     31          1           0       -0.403939    0.731991    1.319444
     32          1           0        0.482644   -0.204130   -1.441505
     33          1           0       -1.792545    0.814740   -1.385786
     34          1           0       -1.827016   -1.568070   -1.735746
     35          1           0       -2.255128   -2.674034   -0.429936
     36          1           0       -0.311441   -2.004859    0.878933
     37          1           0        0.184506   -2.493272   -0.743043
     38          1           0       -2.649873    2.775459   -0.276608
     39          1           0       -2.770431    1.926876    1.262051
     40          1           0       -4.563676    1.744650   -1.124371
     41          1           0       -4.941850    1.298910    0.536344
     42          1           0       -3.909379   -0.420711   -1.656854
     43          1           0       -3.491183   -0.231009    1.952490
     44          1           0       -3.001965   -1.898231    1.672967
     45          1           0       -1.789978   -0.678443    2.066661
     46          1           0       -4.759688   -1.970863   -0.111650
 ---------------------------------------------------------------------
 Rotational constants (GHZ):           0.9393016           0.1758765           0.1557527
 Standard basis: 6-31G(d) (6D, 7F)
 There are   352 symmetry adapted cartesian basis functions of A   symmetry.
 There are   352 symmetry adapted basis functions of A   symmetry.
   352 basis functions,   664 primitive gaussians,   352 cartesian basis functions
    75 alpha electrons       75 beta electrons
       nuclear repulsion energy      1671.3199240871 Hartrees.
 NAtoms=   46 NActive=   46 NUniq=   46 SFac= 1.00D+00 NAtFMM=   60 NAOKFM=F Big=F
 Integral buffers will be    131072 words long.
 Raffenetti 2 integral format.
 Two-electron integral symmetry is turned on.
 Nuclear repulsion after empirical dispersion term =     1671.2707679620 Hartrees.
 One-electron integrals computed using PRISM.
 NBasis=   352 RedAO= T EigKep=  1.20D-03  NBF=   352
 NBsUse=   352 1.00D-06 EigRej= -1.00D+00 NBFU=   352
 ExpMin= 1.61D-01 ExpMax= 5.48D+03 ExpMxC= 8.25D+02 IAcc=3 IRadAn=         5 AccDes= 0.00D+00
 Harris functional with IExCor= 4639 and IRadAn=       5 diagonalized for initial guess.
 HarFok:  IExCor= 4639 AccDes= 0.00D+00 IRadAn=         5 IDoV= 1 UseB2=F ITyADJ=14
 ICtDFT=  3500011 ScaDFX=  1.000000  1.000000  1.000000  1.000000
 FoFCou: FMM=F IPFlag=           0 FMFlag=      100000 FMFlg1=           0
         NFxFlg=           0 DoJE=T BraDBF=F KetDBF=T FulRan=T
         wScrn=  0.000000 ICntrl=       500 IOpCl=  0 I1Cent=   200000004 NGrid=           0
         NMat0=    1 NMatS0=      1 NMatT0=    0 NMatD0=    1 NMtDS0=    0 NMtDT0=    0
 Petite list used in FoFCou.
 Requested convergence on RMS density matrix=1.00D-08 within 128 cycles.
 Requested convergence on MAX density matrix=1.00D-06.
 Requested convergence on             energy=1.00D-06.
 No special actions if energy rises.
 Integral accuracy reduced to 1.0D-05 until final iterations.
 Initial convergence to 1.0D-05 achieved.  Increase integral accuracy.
 SCF Done:  E(RwB97XD) =  -851.783969994     A.U. after   15 cycles
            NFock= 15  Conv=0.38D-08     -V/T= 2.0088

 **********************************************************************

            Population analysis using the SCF Density.

 **********************************************************************

 Orbital symmetries:
       Occupied  (A) (A) (A) (A) (A) (A) (A) (A) (A) (A) (A) (A)
                 (A) (A) (A) (A) (A) (A) (A) (A) (A) (A) (A) (A)
                 (A) (A) (A) (A) (A) (A) (A) (A) (A) (A) (A) (A)
                 (A) (A) (A) (A) (A) (A) (A) (A) (A) (A) (A) (A)
                 (A) (A) (A) (A) (A) (A) (A) (A) (A) (A) (A) (A)
                 (A) (A) (A) (A) (A) (A) (A) (A) (A) (A) (A) (A)
                 (A) (A) (A)
       Virtual   (A) (A) (A) (A) (A) (A) (A) (A) (A) (A) (A) (A)
                 (A) (A) (A) (A) (A) (A) (A) (A) (A) (A) (A) (A)
                 (A) (A) (A) (A) (A) (A) (A) (A) (A) (A) (A) (A)
                 (A) (A) (A) (A) (A) (A) (A) (A) (A) (A) (A) (A)
                 (A) (A) (A) (A) (A) (A) (A) (A) (A) (A) (A) (A)
                 (A) (A) (A) (A) (A) (A) (A) (A) (A) (A) (A) (A)
                 (A) (A) (A) (A) (A) (A) (A) (A) (A) (A) (A) (A)
                 (A) (A) (A) (A) (A) (A) (A) (A) (A) (A) (A) (A)
                 (A) (A) (A) (A) (A) (A) (A) (A) (A) (A) (A) (A)
                 (A) (A) (A) (A) (A) (A) (A) (A) (A) (A) (A) (A)
                 (A) (A) (A) (A) (A) (A) (A) (A) (A) (A) (A) (A)
                 (A) (A) (A) (A) (A) (A) (A) (A) (A) (A) (A) (A)
                 (A) (A) (A) (A) (A) (A) (A) (A) (A) (A) (A) (A)
                 (A) (A) (A) (A) (A) (A) (A) (A) (A) (A) (A) (A)
                 (A) (A) (A) (A) (A) (A) (A) (A) (A) (A) (A) (A)
                 (A) (A) (A) (A) (A) (A) (A) (A) (A) (A) (A) (A)
                 (A) (A) (A) (A) (A) (A) (A) (A) (A) (A) (A) (A)
                 (A) (A) (A) (A) (A) (A) (A) (A) (A) (A) (A) (A)
                 (A) (A) (A) (A) (A) (A) (A) (A) (A) (A) (A) (A)
                 (A) (A) (A) (A) (A) (A) (A) (A) (A) (A) (A) (A)
                 (A) (A) (A) (A) (A) (A) (A) (A) (A) (A) (A) (A)
                 (A) (A) (A) (A) (A) (A) (A) (A) (A) (A) (A) (A)
                 (A) (A) (A) (A) (A) (A) (A) (A) (A) (A) (A) (A)
                 (A)
 The electronic state is 1-A.
 Alpha  occ. eigenvalues --  -19.26725 -19.23047 -10.36342 -10.34125 -10.33363
 Alpha  occ. eigenvalues --  -10.31581 -10.31159 -10.30939 -10.30424 -10.30244
 Alpha  occ. eigenvalues --  -10.30141 -10.30016 -10.29957 -10.29808 -10.29780
 Alpha  occ. eigenvalues --  -10.29227 -10.29205 -10.29127 -10.28791 -10.28545
 Alpha  occ. eigenvalues --   -1.12475  -1.09435  -0.98699  -0.96089  -0.91146
 Alpha  occ. eigenvalues --   -0.90622  -0.87617  -0.84560  -0.82889  -0.81687
 Alpha  occ. eigenvalues --   -0.78130  -0.77559  -0.74046  -0.72181  -0.69794
 Alpha  occ. eigenvalues --   -0.67943  -0.65604  -0.65537  -0.63018  -0.61206
 Alpha  occ. eigenvalues --   -0.60353  -0.58396  -0.57377  -0.55614  -0.55596
 Alpha  occ. eigenvalues --   -0.54575  -0.53526  -0.53190  -0.51875  -0.50975
 Alpha  occ. eigenvalues --   -0.50159  -0.49650  -0.48741  -0.48028  -0.47984
 Alpha  occ. eigenvalues --   -0.46884  -0.46803  -0.46673  -0.45161  -0.44596
 Alpha  occ. eigenvalues --   -0.44102  -0.43419  -0.43100  -0.42632  -0.41973
 Alpha  occ. eigenvalues --   -0.41540  -0.40971  -0.40410  -0.39722  -0.38418
 Alpha  occ. eigenvalues --   -0.37277  -0.36395  -0.33990  -0.32128  -0.30637
 Alpha virt. eigenvalues --    0.01793   0.13285   0.14018   0.15011   0.16619
 Alpha virt. eigenvalues --    0.16983   0.17719   0.18715   0.19411   0.20131
 Alpha virt. eigenvalues --    0.20538   0.20904   0.22039   0.22883   0.23581
 Alpha virt. eigenvalues --    0.23760   0.24069   0.24611   0.24901   0.25385
 Alpha virt. eigenvalues --    0.25535   0.26224   0.26387   0.26887   0.27275
 Alpha virt. eigenvalues --    0.27599   0.28519   0.28679   0.29550   0.30625
 Alpha virt. eigenvalues --    0.30918   0.31062   0.31603   0.32197   0.33542
 Alpha virt. eigenvalues --    0.33825   0.33869   0.35048   0.35896   0.36436
 Alpha virt. eigenvalues --    0.37197   0.37644   0.39229   0.39974   0.40761
 Alpha virt. eigenvalues --    0.41944   0.42763   0.44835   0.45580   0.50533
 Alpha virt. eigenvalues --    0.51499   0.58157   0.58774   0.59372   0.59900
 Alpha virt. eigenvalues --    0.61617   0.61933   0.62320   0.63246   0.65406
 Alpha virt. eigenvalues --    0.66148   0.66397   0.66774   0.68269   0.69495
 Alpha virt. eigenvalues --    0.69984   0.71024   0.72513   0.72777   0.73385
 Alpha virt. eigenvalues --    0.73812   0.73980   0.75141   0.76104   0.76291
 Alpha virt. eigenvalues --    0.77445   0.78066   0.78628   0.80002   0.81017
 Alpha virt. eigenvalues --    0.82819   0.83090   0.84383   0.84842   0.85543
 Alpha virt. eigenvalues --    0.86399   0.87660   0.89088   0.89911   0.90623
 Alpha virt. eigenvalues --    0.91001   0.92610   0.93330   0.94194   0.95112
 Alpha virt. eigenvalues --    0.95386   0.95649   0.96101   0.96599   0.97314
 Alpha virt. eigenvalues --    0.97551   0.97807   0.97992   0.98737   0.98890
 Alpha virt. eigenvalues --    0.99764   1.00081   1.00374   1.01149   1.02407
 Alpha virt. eigenvalues --    1.03117   1.03609   1.03780   1.04062   1.04835
 Alpha virt. eigenvalues --    1.05691   1.06054   1.07037   1.07626   1.08180
 Alpha virt. eigenvalues --    1.08805   1.10391   1.11030   1.12177   1.13538
 Alpha virt. eigenvalues --    1.14381   1.15356   1.16637   1.19772   1.20757
 Alpha virt. eigenvalues --    1.22198   1.23524   1.25108   1.27981   1.28486
 Alpha virt. eigenvalues --    1.30588   1.31003   1.34384   1.36154   1.38015
 Alpha virt. eigenvalues --    1.40070   1.42916   1.43984   1.47970   1.48495
 Alpha virt. eigenvalues --    1.50915   1.53256   1.53816   1.55946   1.58639
 Alpha virt. eigenvalues --    1.60646   1.63163   1.65289   1.66067   1.66570
 Alpha virt. eigenvalues --    1.69717   1.72439   1.72829   1.76051   1.76600
 Alpha virt. eigenvalues --    1.77610   1.78806   1.80285   1.82321   1.84431
 Alpha virt. eigenvalues --    1.85411   1.87247   1.87845   1.88249   1.89167
 Alpha virt. eigenvalues --    1.90276   1.92452   1.93506   1.95291   1.95758
 Alpha virt. eigenvalues --    1.96090   1.97346   1.97965   1.99667   2.00097
 Alpha virt. eigenvalues --    2.01064   2.02185   2.02721   2.02954   2.04113
 Alpha virt. eigenvalues --    2.05509   2.06220   2.06839   2.07128   2.08178
 Alpha virt. eigenvalues --    2.08660   2.09563   2.10800   2.11708   2.12985
 Alpha virt. eigenvalues --    2.13523   2.14480   2.15592   2.15836   2.18613
 Alpha virt. eigenvalues --    2.19393   2.20644   2.21615   2.23996   2.25592
 Alpha virt. eigenvalues --    2.26756   2.28062   2.30181   2.31955   2.33361
 Alpha virt. eigenvalues --    2.34634   2.36827   2.37393   2.39872   2.41020
 Alpha virt. eigenvalues --    2.41442   2.42288   2.43803   2.45599   2.46777
 Alpha virt. eigenvalues --    2.48344   2.49769   2.51303   2.52444   2.52863
 Alpha virt. eigenvalues --    2.55185   2.58324   2.59263   2.62041   2.63193
 Alpha virt. eigenvalues --    2.64186   2.64869   2.65397   2.66813   2.68256
 Alpha virt. eigenvalues --    2.69108   2.71080   2.72358   2.75644   2.76749
 Alpha virt. eigenvalues --    2.78934   2.79931   2.81317   2.83258   2.85752
 Alpha virt. eigenvalues --    2.87147   2.90808   2.94050   2.97488   3.00155
 Alpha virt. eigenvalues --    3.01673   3.02869   3.07218   3.09220   3.11064
 Alpha virt. eigenvalues --    3.21776   3.28346   4.00732   4.08559   4.25822
 Alpha virt. eigenvalues --    4.27438   4.31498   4.34345   4.36494   4.39090
 Alpha virt. eigenvalues --    4.42694   4.42821   4.48821   4.54398   4.55697
 Alpha virt. eigenvalues --    4.65683   4.67981   4.75081   4.77310   4.81293
 Alpha virt. eigenvalues --    4.86532   4.93413
          Condensed to atoms (all electrons):
               1          2          3          4          5          6
     1  C    4.434624   0.522234   0.369153   0.003432  -0.023345  -0.027354
     2  O    0.522234   8.128467  -0.060362   0.005021   0.000303   0.002515
     3  C    0.369153  -0.060362   5.302740   0.511523  -0.043147   0.006212
     4  C    0.003432   0.005021   0.511523   4.871997   0.376044  -0.047265
     5  C   -0.023345   0.000303  -0.043147   0.376044   5.104381   0.351089
     6  C   -0.027354   0.002515   0.006212  -0.047265   0.351089   5.151016
     7  C    0.343439  -0.078980  -0.138879   0.000391  -0.035642   0.286203
     8  C    0.003957  -0.000098  -0.041633   0.364610  -0.070389   0.005551
     9  C   -0.000136   0.000000   0.003604  -0.033882  -0.012662  -0.000222
    10  C   -0.000018   0.000000   0.000506  -0.014166  -0.040365   0.004214
    11  C   -0.000138   0.000001   0.003126  -0.031631   0.363259  -0.048584
    12  C   -0.000000   0.000000   0.000003   0.000257   0.004062  -0.000143
    13  C   -0.000000   0.000000   0.000000   0.000003   0.000050  -0.000004
    14  C    0.000000  -0.000000   0.000001  -0.000094   0.003787   0.000227
    15  C   -0.000002  -0.000000  -0.000106   0.004410  -0.043289  -0.004535
    16  C   -0.000000  -0.000000  -0.000000  -0.000004  -0.000118   0.000001
    17  C   -0.000000   0.000000  -0.000000   0.000000   0.000002  -0.000000
    18  C    0.000000   0.000000  -0.000000   0.000000   0.000004   0.000000
    19  C   -0.000000   0.000000   0.000000   0.000001   0.000059  -0.000001
    20  O    0.000000   0.000000   0.000000   0.000000  -0.000000   0.000000
    21  H   -0.029220   0.000442   0.359988  -0.048361   0.004841  -0.000455
    22  H    0.000982   0.000010  -0.003689  -0.043226   0.366411  -0.034536
    23  H   -0.002913   0.000099   0.003982  -0.004590  -0.042697   0.386479
    24  H    0.003598  -0.000074  -0.000276   0.004794  -0.031265   0.377240
    25  H   -0.027851  -0.000203   0.002235  -0.001892  -0.004166  -0.039808
    26  H   -0.024864   0.002918   0.005526  -0.000094   0.004329  -0.031623
    27  H    0.000239  -0.000002  -0.002536  -0.039421   0.004484  -0.000158
    28  H   -0.000111   0.000007  -0.011507  -0.045139  -0.000029   0.000202
    29  H    0.000001  -0.000000  -0.000226  -0.003131   0.000456   0.000014
    30  H    0.000001  -0.000000  -0.000089   0.004173  -0.000023   0.000011
    31  H    0.000004   0.000000  -0.000197  -0.003682  -0.002036   0.000178
    32  H    0.000034  -0.000000   0.000049  -0.003392  -0.041717  -0.004017
    33  H    0.000000   0.000000  -0.000002  -0.000076   0.000211   0.000001
    34  H    0.000000   0.000000  -0.000000   0.000003   0.000057  -0.000025
    35  H    0.000000  -0.000000  -0.000000   0.000001  -0.000109   0.000002
    36  H    0.000001  -0.000000  -0.000006   0.000167  -0.003076  -0.001591
    37  H   -0.000011  -0.000000   0.000015  -0.000129  -0.006905   0.002674
    38  H    0.000000  -0.000000   0.000000  -0.000001   0.000000  -0.000000
    39  H    0.000000  -0.000000  -0.000000  -0.000001   0.000002   0.000000
    40  H    0.000000  -0.000000   0.000000   0.000000  -0.000000   0.000000
    41  H    0.000000  -0.000000   0.000000  -0.000000  -0.000000   0.000000
    42  H    0.000000  -0.000000   0.000000   0.000000  -0.000000  -0.000000
    43  H   -0.000000   0.000000   0.000000   0.000000  -0.000001  -0.000000
    44  H    0.000000   0.000000  -0.000000   0.000000  -0.000005   0.000000
    45  H    0.000000  -0.000000  -0.000000   0.000002   0.000041   0.000002
    46  H   -0.000000   0.000000  -0.000000   0.000000  -0.000000   0.000000
               7          8          9         10         11         12
     1  C    0.343439   0.003957  -0.000136  -0.000018  -0.000138  -0.000000
     2  O   -0.078980  -0.000098   0.000000   0.000000   0.000001   0.000000
     3  C   -0.138879  -0.041633   0.003604   0.000506   0.003126   0.000003
     4  C    0.000391   0.364610  -0.033882  -0.014166  -0.031631   0.000257
     5  C   -0.035642  -0.070389  -0.012662  -0.040365   0.363259   0.004062
     6  C    0.286203   0.005551  -0.000222   0.004214  -0.048584  -0.000143
     7  C    5.355859  -0.000186   0.000040  -0.000106   0.004748   0.000002
     8  C   -0.000186   5.173711   0.331884  -0.044193  -0.016420   0.003998
     9  C    0.000040   0.331884   5.098263   0.371454  -0.043991  -0.044575
    10  C   -0.000106  -0.044193   0.371454   5.021175   0.371841   0.366235
    11  C    0.004748  -0.016420  -0.043991   0.371841   5.044352  -0.039654
    12  C    0.000002   0.003998  -0.044575   0.366235  -0.039654   5.112196
    13  C    0.000000  -0.000137   0.004472  -0.026682  -0.013094   0.354617
    14  C   -0.000002  -0.000011  -0.000051  -0.011821  -0.038741  -0.050150
    15  C    0.000225   0.000401   0.004377  -0.041010   0.369820  -0.018691
    16  C   -0.000000   0.000113  -0.004043  -0.035272   0.004510   0.360959
    17  C    0.000000  -0.000001   0.000105   0.004556  -0.000190  -0.062816
    18  C   -0.000000   0.000002  -0.000119   0.004110   0.000135  -0.066420
    19  C    0.000000  -0.000001   0.000213  -0.007047  -0.001985  -0.057359
    20  O    0.000000  -0.000000   0.000000  -0.000075  -0.000003   0.003811
    21  H    0.007015  -0.007201   0.000207   0.000002  -0.000091  -0.000000
    22  H   -0.006032   0.000828  -0.000585  -0.006480  -0.042510   0.000088
    23  H   -0.042032  -0.000000  -0.000034   0.000110  -0.002812  -0.000000
    24  H   -0.031012  -0.000120  -0.000009  -0.000038  -0.008503  -0.000003
    25  H    0.367238  -0.000064  -0.000002   0.000001   0.000067   0.000000
    26  H    0.369127   0.000008   0.000000   0.000002  -0.000075  -0.000000
    27  H    0.000014   0.379044  -0.031176   0.004001  -0.000167  -0.000109
    28  H   -0.000146   0.376378  -0.041079  -0.003479  -0.000842  -0.000030
    29  H   -0.000003  -0.036982   0.381066  -0.039494  -0.007108  -0.005131
    30  H   -0.000000  -0.030958   0.380076  -0.032463   0.005074  -0.006811
    31  H   -0.000013   0.000960  -0.046456   0.380377  -0.049073  -0.041232
    32  H   -0.000128  -0.000193  -0.005272  -0.046449   0.378099  -0.004016
    33  H   -0.000000   0.000094  -0.006517  -0.044601  -0.006214   0.382778
    34  H   -0.000000   0.000000  -0.000027  -0.000416  -0.003994  -0.006386
    35  H   -0.000000  -0.000000   0.000011  -0.000135   0.004298   0.006671
    36  H   -0.000067  -0.000016   0.000004  -0.003734  -0.043057  -0.000545
    37  H    0.000069  -0.000010  -0.000132   0.004392  -0.031308   0.000144
    38  H    0.000000  -0.000004   0.001648  -0.002106  -0.000077  -0.028070
    39  H   -0.000000  -0.000026  -0.000729  -0.003982   0.000082  -0.038748
    40  H   -0.000000  -0.000000  -0.000007  -0.000071   0.000004   0.000955
    41  H   -0.000000  -0.000000   0.000002  -0.000139   0.000002   0.003851
    42  H   -0.000000  -0.000000   0.000008  -0.000309  -0.000005  -0.002187
    43  H    0.000000  -0.000000  -0.000015   0.000024   0.000004  -0.002732
    44  H   -0.000000  -0.000000   0.000000  -0.000015   0.000122   0.005519
    45  H    0.000000   0.000010  -0.000057   0.001810  -0.000310  -0.006136
    46  H    0.000000   0.000000   0.000000  -0.000004   0.000001   0.000364
              13         14         15         16         17         18
     1  C   -0.000000   0.000000  -0.000002  -0.000000  -0.000000   0.000000
     2  O    0.000000  -0.000000  -0.000000  -0.000000   0.000000   0.000000
     3  C    0.000000   0.000001  -0.000106  -0.000000  -0.000000  -0.000000
     4  C    0.000003  -0.000094   0.004410  -0.000004   0.000000   0.000000
     5  C    0.000050   0.003787  -0.043289  -0.000118   0.000002   0.000004
     6  C   -0.000004   0.000227  -0.004535   0.000001  -0.000000   0.000000
     7  C    0.000000  -0.000002   0.000225  -0.000000   0.000000  -0.000000
     8  C   -0.000137  -0.000011   0.000401   0.000113  -0.000001   0.000002
     9  C    0.004472  -0.000051   0.004377  -0.004043   0.000105  -0.000119
    10  C   -0.026682  -0.011821  -0.041010  -0.035272   0.004556   0.004110
    11  C   -0.013094  -0.038741   0.369820   0.004510  -0.000190   0.000135
    12  C    0.354617  -0.050150  -0.018691   0.360959  -0.062816  -0.066420
    13  C    5.102875   0.376896  -0.038623  -0.061351  -0.066476   0.379245
    14  C    0.376896   5.118669   0.354751   0.006179   0.006634  -0.043619
    15  C   -0.038623   0.354751   5.091832   0.000230  -0.000251   0.004439
    16  C   -0.061351   0.006179   0.000230   5.105580   0.346561  -0.063500
    17  C   -0.066476   0.006634  -0.000251   0.346561   5.171383   0.357236
    18  C    0.379245  -0.043619   0.004439  -0.063500   0.357236   4.810917
    19  C    0.339896  -0.068729  -0.003615  -0.002337  -0.009374  -0.054151
    20  O   -0.052349  -0.000231   0.000008   0.002136  -0.046638   0.248448
    21  H   -0.000000  -0.000000   0.000002  -0.000000  -0.000000  -0.000000
    22  H   -0.000034   0.000029  -0.006027  -0.000002   0.000000  -0.000000
    23  H   -0.000001  -0.000048  -0.001532   0.000000   0.000000  -0.000000
    24  H   -0.000003   0.000056   0.003677  -0.000000   0.000000   0.000000
    25  H   -0.000000  -0.000000  -0.000029   0.000000   0.000000  -0.000000
    26  H   -0.000000  -0.000000  -0.000001   0.000000  -0.000000  -0.000000
    27  H    0.000001  -0.000000   0.000010  -0.000000  -0.000000  -0.000000
    28  H    0.000004   0.000000  -0.000012  -0.000012  -0.000000  -0.000000
    29  H    0.000090  -0.000013   0.000055  -0.000711  -0.000033  -0.000007
    30  H   -0.000029  -0.000005  -0.000136   0.003764  -0.000004  -0.000006
    31  H   -0.007497   0.000328  -0.002862  -0.003997  -0.000003   0.000022
    32  H   -0.001239  -0.000783  -0.045070  -0.000036   0.000003  -0.000059
    33  H   -0.053610  -0.006421  -0.001039  -0.045989  -0.002364  -0.002498
    34  H   -0.037976   0.378119  -0.036897   0.000031   0.000082  -0.005969
    35  H   -0.036516   0.370975  -0.034348  -0.000234  -0.000027  -0.003159
    36  H   -0.008398  -0.035628   0.381598  -0.000019   0.000000  -0.000025
    37  H    0.004935  -0.035091   0.381231   0.000009   0.000003  -0.000084
    38  H    0.005847  -0.000155  -0.000005   0.379601  -0.029487   0.003164
    39  H   -0.006799   0.000044  -0.000024   0.386101  -0.033150   0.001400
    40  H    0.003234  -0.000162   0.000004  -0.033696   0.378648  -0.027364
    41  H   -0.000937  -0.000118   0.000004  -0.025534   0.372005  -0.032048
    42  H   -0.067202  -0.008975   0.000142   0.003895  -0.049376   0.388443
    43  H   -0.032807   0.004680   0.000103   0.001568   0.002631  -0.007073
    44  H   -0.030620  -0.006425  -0.000839  -0.000145   0.000018  -0.004527
    45  H   -0.034401  -0.003023   0.001120  -0.000409  -0.000191   0.005038
    46  H   -0.004659   0.001959  -0.000084  -0.000348   0.007457  -0.029489
              19         20         21         22         23         24
     1  C   -0.000000   0.000000  -0.029220   0.000982  -0.002913   0.003598
     2  O    0.000000   0.000000   0.000442   0.000010   0.000099  -0.000074
     3  C    0.000000   0.000000   0.359988  -0.003689   0.003982  -0.000276
     4  C    0.000001   0.000000  -0.048361  -0.043226  -0.004590   0.004794
     5  C    0.000059  -0.000000   0.004841   0.366411  -0.042697  -0.031265
     6  C   -0.000001   0.000000  -0.000455  -0.034536   0.386479   0.377240
     7  C    0.000000   0.000000   0.007015  -0.006032  -0.042032  -0.031012
     8  C   -0.000001  -0.000000  -0.007201   0.000828  -0.000000  -0.000120
     9  C    0.000213   0.000000   0.000207  -0.000585  -0.000034  -0.000009
    10  C   -0.007047  -0.000075   0.000002  -0.006480   0.000110  -0.000038
    11  C   -0.001985  -0.000003  -0.000091  -0.042510  -0.002812  -0.008503
    12  C   -0.057359   0.003811  -0.000000   0.000088  -0.000000  -0.000003
    13  C    0.339896  -0.052349  -0.000000  -0.000034  -0.000001  -0.000003
    14  C   -0.068729  -0.000231  -0.000000   0.000029  -0.000048   0.000056
    15  C   -0.003615   0.000008   0.000002  -0.006027  -0.001532   0.003677
    16  C   -0.002337   0.002136  -0.000000  -0.000002   0.000000  -0.000000
    17  C   -0.009374  -0.046638  -0.000000   0.000000   0.000000   0.000000
    18  C   -0.054151   0.248448  -0.000000  -0.000000  -0.000000   0.000000
    19  C    5.212655   0.003900   0.000000  -0.000050  -0.000000  -0.000001
    20  O    0.003900   8.278046   0.000000  -0.000000  -0.000000   0.000000
    21  H    0.000000   0.000000   0.537355  -0.000214  -0.000122   0.000013
    22  H   -0.000050  -0.000000  -0.000214   0.587396   0.005488  -0.002969
    23  H   -0.000000  -0.000000  -0.000122   0.005488   0.554539  -0.029751
    24  H   -0.000001   0.000000   0.000013  -0.002969  -0.029751   0.552213
    25  H   -0.000000   0.000000  -0.000185   0.005900   0.005111  -0.004060
    26  H    0.000000  -0.000000  -0.000111  -0.000163  -0.002631  -0.003052
    27  H    0.000000   0.000000   0.005331  -0.000106  -0.000000   0.000002
    28  H   -0.000002   0.000000   0.000167   0.001921   0.000003   0.000011
    29  H   -0.000005   0.000000  -0.000010   0.000082  -0.000003   0.000001
    30  H   -0.000001  -0.000000  -0.000007  -0.000017   0.000000   0.000000
    31  H    0.001414  -0.000001  -0.000002   0.006048   0.000006   0.000001
    32  H    0.000048   0.000000  -0.000022   0.005920   0.004456   0.000071
    33  H    0.006542   0.000055  -0.000000   0.000001  -0.000002  -0.000000
    34  H    0.006291  -0.000055  -0.000000   0.000003   0.000003   0.000009
    35  H   -0.007450   0.001148   0.000000  -0.000001   0.000000   0.000005
    36  H    0.004386  -0.000002  -0.000000   0.004870   0.000151   0.001070
    37  H   -0.000041   0.000001   0.000000   0.000012   0.000911   0.000857
    38  H    0.000054  -0.000041  -0.000000   0.000000   0.000000  -0.000000
    39  H    0.003170   0.000019   0.000000  -0.000002  -0.000000  -0.000000
    40  H    0.000165   0.001939   0.000000  -0.000000  -0.000000   0.000000
    41  H    0.000829   0.002950   0.000000  -0.000000  -0.000000   0.000000
    42  H    0.007803  -0.040979  -0.000000  -0.000000  -0.000000   0.000000
    43  H    0.383166   0.002367  -0.000000   0.000001   0.000000   0.000000
    44  H    0.376009   0.003290   0.000000   0.000001   0.000000  -0.000000
    45  H    0.372877   0.000605  -0.000000   0.000015  -0.000000  -0.000001
    46  H   -0.001342   0.243898   0.000000   0.000000   0.000000   0.000000
              25         26         27         28         29         30
     1  C   -0.027851  -0.024864   0.000239  -0.000111   0.000001   0.000001
     2  O   -0.000203   0.002918  -0.000002   0.000007  -0.000000  -0.000000
     3  C    0.002235   0.005526  -0.002536  -0.011507  -0.000226  -0.000089
     4  C   -0.001892  -0.000094  -0.039421  -0.045139  -0.003131   0.004173
     5  C   -0.004166   0.004329   0.004484  -0.000029   0.000456  -0.000023
     6  C   -0.039808  -0.031623  -0.000158   0.000202   0.000014   0.000011
     7  C    0.367238   0.369127   0.000014  -0.000146  -0.000003  -0.000000
     8  C   -0.000064   0.000008   0.379044   0.376378  -0.036982  -0.030958
     9  C   -0.000002   0.000000  -0.031176  -0.041079   0.381066   0.380076
    10  C    0.000001   0.000002   0.004001  -0.003479  -0.039494  -0.032463
    11  C    0.000067  -0.000075  -0.000167  -0.000842  -0.007108   0.005074
    12  C    0.000000  -0.000000  -0.000109  -0.000030  -0.005131  -0.006811
    13  C   -0.000000  -0.000000   0.000001   0.000004   0.000090  -0.000029
    14  C   -0.000000  -0.000000  -0.000000   0.000000  -0.000013  -0.000005
    15  C   -0.000029  -0.000001   0.000010  -0.000012   0.000055  -0.000136
    16  C    0.000000   0.000000  -0.000000  -0.000012  -0.000711   0.003764
    17  C    0.000000  -0.000000  -0.000000  -0.000000  -0.000033  -0.000004
    18  C   -0.000000  -0.000000  -0.000000  -0.000000  -0.000007  -0.000006
    19  C   -0.000000   0.000000   0.000000  -0.000002  -0.000005  -0.000001
    20  O    0.000000  -0.000000   0.000000   0.000000   0.000000  -0.000000
    21  H   -0.000185  -0.000111   0.005331   0.000167  -0.000010  -0.000007
    22  H    0.005900  -0.000163  -0.000106   0.001921   0.000082  -0.000017
    23  H    0.005111  -0.002631  -0.000000   0.000003  -0.000003   0.000000
    24  H   -0.004060  -0.003052   0.000002   0.000011   0.000001   0.000000
    25  H    0.537900  -0.020819  -0.000000   0.000020   0.000000   0.000000
    26  H   -0.020819   0.507938   0.000000  -0.000002  -0.000000   0.000000
    27  H   -0.000000   0.000000   0.523877  -0.024315  -0.003821  -0.001194
    28  H    0.000020  -0.000002  -0.024315   0.566145   0.004941  -0.006064
    29  H    0.000000  -0.000000  -0.003821   0.004941   0.564927  -0.030619
    30  H    0.000000   0.000000  -0.001194  -0.006064  -0.030619   0.548435
    31  H   -0.000002   0.000000  -0.000027   0.003779   0.005594  -0.003750
    32  H    0.000009  -0.000001  -0.000072   0.000136   0.005142   0.000062
    33  H   -0.000000   0.000000   0.000002   0.000002   0.005331  -0.000018
    34  H   -0.000000   0.000000  -0.000000  -0.000000  -0.000010   0.000001
    35  H    0.000000   0.000000   0.000000  -0.000000   0.000000  -0.000000
    36  H    0.000005   0.000001  -0.000000  -0.000001  -0.000000   0.000004
    37  H    0.000009   0.000002  -0.000000   0.000000  -0.000002   0.000002
    38  H    0.000000  -0.000000   0.000001   0.000004   0.000425   0.000562
    39  H   -0.000000   0.000000   0.000000  -0.000001   0.000078   0.000569
    40  H    0.000000   0.000000   0.000000   0.000000  -0.000000   0.000003
    41  H   -0.000000   0.000000   0.000000   0.000000   0.000000   0.000001
    42  H   -0.000000   0.000000   0.000000  -0.000000  -0.000002  -0.000000
    43  H    0.000000  -0.000000  -0.000000   0.000000   0.000000  -0.000000
    44  H    0.000000  -0.000000   0.000000   0.000000   0.000000  -0.000000
    45  H    0.000000   0.000000  -0.000000  -0.000005  -0.000001   0.000003
    46  H    0.000000   0.000000   0.000000   0.000000   0.000000  -0.000000
              31         32         33         34         35         36
     1  C    0.000004   0.000034   0.000000   0.000000   0.000000   0.000001
     2  O    0.000000  -0.000000   0.000000   0.000000  -0.000000  -0.000000
     3  C   -0.000197   0.000049  -0.000002  -0.000000  -0.000000  -0.000006
     4  C   -0.003682  -0.003392  -0.000076   0.000003   0.000001   0.000167
     5  C   -0.002036  -0.041717   0.000211   0.000057  -0.000109  -0.003076
     6  C    0.000178  -0.004017   0.000001  -0.000025   0.000002  -0.001591
     7  C   -0.000013  -0.000128  -0.000000  -0.000000  -0.000000  -0.000067
     8  C    0.000960  -0.000193   0.000094   0.000000  -0.000000  -0.000016
     9  C   -0.046456  -0.005272  -0.006517  -0.000027   0.000011   0.000004
    10  C    0.380377  -0.046449  -0.044601  -0.000416  -0.000135  -0.003734
    11  C   -0.049073   0.378099  -0.006214  -0.003994   0.004298  -0.043057
    12  C   -0.041232  -0.004016   0.382778  -0.006386   0.006671  -0.000545
    13  C   -0.007497  -0.001239  -0.053610  -0.037976  -0.036516  -0.008398
    14  C    0.000328  -0.000783  -0.006421   0.378119   0.370975  -0.035628
    15  C   -0.002862  -0.045070  -0.001039  -0.036897  -0.034348   0.381598
    16  C   -0.003997  -0.000036  -0.045989   0.000031  -0.000234  -0.000019
    17  C   -0.000003   0.000003  -0.002364   0.000082  -0.000027   0.000000
    18  C    0.000022  -0.000059  -0.002498  -0.005969  -0.003159  -0.000025
    19  C    0.001414   0.000048   0.006542   0.006291  -0.007450   0.004386
    20  O   -0.000001   0.000000   0.000055  -0.000055   0.001148  -0.000002
    21  H   -0.000002  -0.000022  -0.000000  -0.000000   0.000000  -0.000000
    22  H    0.006048   0.005920   0.000001   0.000003  -0.000001   0.004870
    23  H    0.000006   0.004456  -0.000002   0.000003   0.000000   0.000151
    24  H    0.000001   0.000071  -0.000000   0.000009   0.000005   0.001070
    25  H   -0.000002   0.000009  -0.000000  -0.000000   0.000000   0.000005
    26  H    0.000000  -0.000001   0.000000   0.000000   0.000000   0.000001
    27  H   -0.000027  -0.000072   0.000002  -0.000000   0.000000  -0.000000
    28  H    0.003779   0.000136   0.000002  -0.000000  -0.000000  -0.000001
    29  H    0.005594   0.005142   0.005331  -0.000010   0.000000  -0.000000
    30  H   -0.003750   0.000062  -0.000018   0.000001  -0.000000   0.000004
    31  H    0.602789   0.005843   0.005949   0.000040  -0.000008   0.001877
    32  H    0.005843   0.601021   0.004672   0.003344  -0.000066   0.005487
    33  H    0.005949   0.004672   0.619739   0.005189   0.000027   0.000084
    34  H    0.000040   0.003344   0.005189   0.574150  -0.031795   0.004991
    35  H   -0.000008  -0.000066   0.000027  -0.031795   0.589164  -0.004164
    36  H    0.001877   0.005487   0.000084   0.004991  -0.004164   0.571527
    37  H   -0.000068  -0.004874  -0.000084  -0.004461  -0.002333  -0.031052
    38  H   -0.000130  -0.000001  -0.006126  -0.000002   0.000003   0.000000
    39  H    0.003900   0.000003   0.005395  -0.000008   0.000004  -0.000006
    40  H    0.000001  -0.000000   0.001011  -0.000021   0.000001  -0.000000
    41  H   -0.000005  -0.000000  -0.000014  -0.000001  -0.000000  -0.000000
    42  H   -0.000010  -0.000008   0.004421   0.006197   0.000102  -0.000003
    43  H    0.000013   0.000001  -0.000091  -0.000139   0.000001  -0.000010
    44  H   -0.000054   0.000002  -0.000120   0.000119   0.005768   0.000640
    45  H    0.004369  -0.000022   0.000046  -0.000135  -0.000102   0.000430
    46  H    0.000000   0.000000  -0.000010  -0.000027   0.002332  -0.000001
              37         38         39         40         41         42
     1  C   -0.000011   0.000000   0.000000   0.000000   0.000000   0.000000
     2  O   -0.000000  -0.000000  -0.000000  -0.000000  -0.000000  -0.000000
     3  C    0.000015   0.000000  -0.000000   0.000000   0.000000   0.000000
     4  C   -0.000129  -0.000001  -0.000001   0.000000  -0.000000   0.000000
     5  C   -0.006905   0.000000   0.000002  -0.000000  -0.000000  -0.000000
     6  C    0.002674  -0.000000   0.000000   0.000000   0.000000  -0.000000
     7  C    0.000069   0.000000  -0.000000  -0.000000  -0.000000  -0.000000
     8  C   -0.000010  -0.000004  -0.000026  -0.000000  -0.000000  -0.000000
     9  C   -0.000132   0.001648  -0.000729  -0.000007   0.000002   0.000008
    10  C    0.004392  -0.002106  -0.003982  -0.000071  -0.000139  -0.000309
    11  C   -0.031308  -0.000077   0.000082   0.000004   0.000002  -0.000005
    12  C    0.000144  -0.028070  -0.038748   0.000955   0.003851  -0.002187
    13  C    0.004935   0.005847  -0.006799   0.003234  -0.000937  -0.067202
    14  C   -0.035091  -0.000155   0.000044  -0.000162  -0.000118  -0.008975
    15  C    0.381231  -0.000005  -0.000024   0.000004   0.000004   0.000142
    16  C    0.000009   0.379601   0.386101  -0.033696  -0.025534   0.003895
    17  C    0.000003  -0.029487  -0.033150   0.378648   0.372005  -0.049376
    18  C   -0.000084   0.003164   0.001400  -0.027364  -0.032048   0.388443
    19  C   -0.000041   0.000054   0.003170   0.000165   0.000829   0.007803
    20  O    0.000001  -0.000041   0.000019   0.001939   0.002950  -0.040979
    21  H    0.000000  -0.000000   0.000000   0.000000   0.000000  -0.000000
    22  H    0.000012   0.000000  -0.000002  -0.000000  -0.000000  -0.000000
    23  H    0.000911   0.000000  -0.000000  -0.000000  -0.000000  -0.000000
    24  H    0.000857  -0.000000  -0.000000   0.000000   0.000000   0.000000
    25  H    0.000009   0.000000  -0.000000   0.000000  -0.000000  -0.000000
    26  H    0.000002  -0.000000   0.000000   0.000000   0.000000   0.000000
    27  H   -0.000000   0.000001   0.000000   0.000000   0.000000   0.000000
    28  H    0.000000   0.000004  -0.000001   0.000000   0.000000  -0.000000
    29  H   -0.000002   0.000425   0.000078  -0.000000   0.000000  -0.000002
    30  H    0.000002   0.000562   0.000569   0.000003   0.000001  -0.000000
    31  H   -0.000068  -0.000130   0.003900   0.000001  -0.000005  -0.000010
    32  H   -0.004874  -0.000001   0.000003  -0.000000  -0.000000  -0.000008
    33  H   -0.000084  -0.006126   0.005395   0.001011  -0.000014   0.004421
    34  H   -0.004461  -0.000002  -0.000008  -0.000021  -0.000001   0.006197
    35  H   -0.002333   0.000003   0.000004   0.000001  -0.000000   0.000102
    36  H   -0.031052   0.000000  -0.000006  -0.000000  -0.000000  -0.000003
    37  H    0.554990  -0.000000  -0.000000  -0.000000  -0.000000  -0.000005
    38  H   -0.000000   0.551563  -0.032634  -0.007240   0.002078  -0.000169
    39  H   -0.000000  -0.032634   0.560878   0.003970  -0.008176  -0.000178
    40  H   -0.000000  -0.007240   0.003970   0.542862  -0.025633  -0.006649
    41  H   -0.000000   0.002078  -0.008176  -0.025633   0.521644   0.004704
    42  H   -0.000005  -0.000169  -0.000178  -0.006649   0.004704   0.632780
    43  H   -0.000000   0.000025   0.000146  -0.000051   0.000866   0.000300
    44  H   -0.000049  -0.000001   0.000021  -0.000001   0.000008  -0.000047
    45  H    0.000044  -0.000033   0.000352   0.000002   0.000030  -0.000072
    46  H    0.000002   0.000005   0.000002  -0.000226  -0.000079  -0.002323
              43         44         45         46
     1  C   -0.000000   0.000000   0.000000  -0.000000
     2  O    0.000000   0.000000  -0.000000   0.000000
     3  C    0.000000  -0.000000  -0.000000  -0.000000
     4  C    0.000000   0.000000   0.000002   0.000000
     5  C   -0.000001  -0.000005   0.000041  -0.000000
     6  C   -0.000000   0.000000   0.000002   0.000000
     7  C    0.000000  -0.000000   0.000000   0.000000
     8  C   -0.000000  -0.000000   0.000010   0.000000
     9  C   -0.000015   0.000000  -0.000057   0.000000
    10  C    0.000024  -0.000015   0.001810  -0.000004
    11  C    0.000004   0.000122  -0.000310   0.000001
    12  C   -0.002732   0.005519  -0.006136   0.000364
    13  C   -0.032807  -0.030620  -0.034401  -0.004659
    14  C    0.004680  -0.006425  -0.003023   0.001959
    15  C    0.000103  -0.000839   0.001120  -0.000084
    16  C    0.001568  -0.000145  -0.000409  -0.000348
    17  C    0.002631   0.000018  -0.000191   0.007457
    18  C   -0.007073  -0.004527   0.005038  -0.029489
    19  C    0.383166   0.376009   0.372877  -0.001342
    20  O    0.002367   0.003290   0.000605   0.243898
    21  H   -0.000000   0.000000  -0.000000   0.000000
    22  H    0.000001   0.000001   0.000015   0.000000
    23  H    0.000000   0.000000  -0.000000   0.000000
    24  H    0.000000  -0.000000  -0.000001   0.000000
    25  H    0.000000   0.000000   0.000000   0.000000
    26  H   -0.000000  -0.000000   0.000000   0.000000
    27  H   -0.000000   0.000000  -0.000000   0.000000
    28  H    0.000000   0.000000  -0.000005   0.000000
    29  H    0.000000   0.000000  -0.000001   0.000000
    30  H   -0.000000  -0.000000   0.000003  -0.000000
    31  H    0.000013  -0.000054   0.004369   0.000000
    32  H    0.000001   0.000002  -0.000022   0.000000
    33  H   -0.000091  -0.000120   0.000046  -0.000010
    34  H   -0.000139   0.000119  -0.000135  -0.000027
    35  H    0.000001   0.005768  -0.000102   0.002332
    36  H   -0.000010   0.000640   0.000430  -0.000001
    37  H   -0.000000  -0.000049   0.000044   0.000002
    38  H    0.000025  -0.000001  -0.000033   0.000005
    39  H    0.000146   0.000021   0.000352   0.000002
    40  H   -0.000051  -0.000001   0.000002  -0.000226
    41  H    0.000866   0.000008   0.000030  -0.000079
    42  H    0.000300  -0.000047  -0.000072  -0.002323
    43  H    0.515072  -0.024534  -0.026772  -0.000001
    44  H   -0.024534   0.547560  -0.028557   0.001571
    45  H   -0.026772  -0.028557   0.554151  -0.000108
    46  H   -0.000001   0.001571  -0.000108   0.375123
 Mulliken charges:
               1
     1  C    0.454262
     2  O   -0.522297
     3  C   -0.266009
     4  C    0.173350
     5  C   -0.182884
     6  C   -0.333510
     7  C   -0.401140
     8  C   -0.392906
     9  C   -0.305654
    10  C   -0.130141
    11  C   -0.118967
    12  C   -0.124564
    13  C    0.009277
    14  C   -0.313037
    15  C   -0.319412
    16  C   -0.323481
    17  C   -0.346944
    18  C    0.137515
    19  C   -0.505989
    20  O   -0.652248
    21  H    0.170637
    22  H    0.160634
    23  H    0.167832
    24  H    0.167516
    25  H    0.180587
    26  H    0.193586
    27  H    0.186100
    28  H    0.179056
    29  H    0.159106
    30  H    0.169453
    31  H    0.137612
    32  H    0.143031
    33  H    0.134246
    34  H    0.149713
    35  H    0.139934
    36  H    0.154110
    37  H    0.166336
    38  H    0.161301
    39  H    0.158329
    40  H    0.168321
    41  H    0.183709
    42  H    0.129704
    43  H    0.183262
    44  H    0.155289
    45  H    0.159387
    46  H    0.405985
 Sum of Mulliken charges =  -0.00000
 Mulliken charges with hydrogens summed into heavy atoms:
               1
     1  C    0.454262
     2  O   -0.522297
     3  C   -0.095371
     4  C    0.173350
     5  C   -0.022250
     6  C    0.001838
     7  C   -0.026968
     8  C   -0.027750
     9  C    0.022905
    10  C    0.007472
    11  C    0.024065
    12  C    0.009682
    13  C    0.009277
    14  C   -0.023390
    15  C    0.001033
    16  C   -0.003851
    17  C    0.005086
    18  C    0.267219
    19  C   -0.008050
    20  O   -0.246262
 Electronic spatial extent (au):  <R**2>=           6853.9997
 Charge=             -0.0000 electrons
 Dipole moment (field-independent basis, Debye):
    X=             -3.8891    Y=             -0.2800    Z=              0.1911  Tot=              3.9038
 Quadrupole moment (field-independent basis, Debye-Ang):
   XX=           -174.4782   YY=           -111.7150   ZZ=           -118.7937
   XY=              1.5588   XZ=              4.4213   YZ=              0.2973
 Traceless Quadrupole moment (field-independent basis, Debye-Ang):
   XX=            -39.4826   YY=             23.2807   ZZ=             16.2019
   XY=              1.5588   XZ=              4.4213   YZ=              0.2973
 Octapole moment (field-independent basis, Debye-Ang**2):
  XXX=           -208.9473  YYY=            -11.8634  ZZZ=             -0.6406  XYY=             -7.4358
  XXY=             -7.3126  XXZ=              5.1137  XZZ=             -0.7618  YZZ=             -0.8467
  YYZ=             -1.8536  XYZ=             -2.0528
 Hexadecapole moment (field-independent basis, Debye-Ang**3):
 XXXX=          -9614.8946 YYYY=          -1374.7774 ZZZZ=           -400.0612 XXXY=             14.1124
 XXXZ=             88.7886 YYYX=             83.4087 YYYZ=             -4.4607 ZZZX=             10.2417
 ZZZY=              3.4747 XXYY=          -1280.0282 XXZZ=          -1230.8719 YYZZ=           -304.4735
 XXYZ=              3.7625 YYXZ=             -1.4985 ZZXY=             -4.6942
 N-N= 1.671270767962D+03 E-N=-5.319672074196D+03  KE= 8.443382591752D+02

 **********************************************************************

            Electrostatic Properties Using The SCF Density.

 **********************************************************************

       Atomic Center    1 is at   4.674779 -0.145353 -0.042620
       Atomic Center    2 is at   5.925608 -0.083563 -0.155786
       Atomic Center    3 is at   3.832853  0.964194 -0.201089
       Atomic Center    4 is at   2.482951  0.914952  0.030962
       Atomic Center    5 is at   1.782458 -0.394463  0.263499
       Atomic Center    6 is at   2.640664 -1.559723 -0.229268
       Atomic Center    7 is at   4.039264 -1.452435  0.354693
       Atomic Center    8 is at   1.725262  2.136941  0.232221
       Atomic Center    9 is at   0.258641  2.106125 -0.175831
       Atomic Center   10 is at  -0.414167  0.798766  0.227913
       Atomic Center   11 is at   0.374981 -0.379220 -0.364557
       Atomic Center   12 is at  -1.842568  0.745031 -0.292197
       Atomic Center   13 is at  -2.560451 -0.573975  0.027836
       Atomic Center   14 is at  -1.797138 -1.706349 -0.652829
       Atomic Center   15 is at  -0.342080 -1.723434 -0.176193
       Atomic Center   16 is at  -2.831838  1.805792  0.181113
       Atomic Center   17 is at  -4.188737  1.223061 -0.246638
       Atomic Center   18 is at  -3.954303 -0.269903 -0.567324
       Atomic Center   19 is at  -2.714251 -0.857729  1.526474
       Atomic Center   20 is at  -5.006901 -1.043759 -0.035291
       Atomic Center   21 is at   4.303333  1.915701 -0.407898
       Atomic Center   22 is at   1.662662 -0.491002  1.352534
       Atomic Center   23 is at   2.696121 -1.536905 -1.320345
       Atomic Center   24 is at   2.197906 -2.509939  0.070485
       Atomic Center   25 is at   3.980345 -1.469726  1.448628
       Atomic Center   26 is at   4.669451 -2.284330  0.030487
       Atomic Center   27 is at   2.229812  3.006722 -0.187199
       Atomic Center   28 is at   1.790157  2.269883  1.358927
       Atomic Center   29 is at   0.185362  2.231669 -1.259940
       Atomic Center   30 is at  -0.261781  2.943840  0.282557
       Atomic Center   31 is at  -0.403939  0.731991  1.319444
       Atomic Center   32 is at   0.482644 -0.204130 -1.441505
       Atomic Center   33 is at  -1.792545  0.814740 -1.385786
       Atomic Center   34 is at  -1.827016 -1.568070 -1.735746
       Atomic Center   35 is at  -2.255128 -2.674034 -0.429936
       Atomic Center   36 is at  -0.311441 -2.004859  0.878933
       Atomic Center   37 is at   0.184506 -2.493272 -0.743043
       Atomic Center   38 is at  -2.649873  2.775459 -0.276608
       Atomic Center   39 is at  -2.770431  1.926876  1.262051
       Atomic Center   40 is at  -4.563676  1.744650 -1.124371
       Atomic Center   41 is at  -4.941850  1.298910  0.536344
       Atomic Center   42 is at  -3.909379 -0.420711 -1.656854
       Atomic Center   43 is at  -3.491183 -0.231009  1.952490
       Atomic Center   44 is at  -3.001965 -1.898231  1.672967
       Atomic Center   45 is at  -1.789978 -0.678443  2.066661
       Atomic Center   46 is at  -4.759688 -1.970863 -0.111650
 -----------------------------------------------------------------

              Electrostatic Properties (Atomic Units)

 -----------------------------------------------------------------
    Center     Electric         -------- Electric Field --------
               Potential          X             Y             Z
 -----------------------------------------------------------------
    1 Atom    -14.677575      0.006533     -0.004716     -0.000332
    2 Atom    -22.357833      0.102177      0.004532     -0.009455
    3 Atom    -14.749839     -0.010664      0.002142      0.001568
    4 Atom    -14.707947      0.014560     -0.002209     -0.002861
    5 Atom    -14.719555     -0.002051     -0.004584     -0.003066
    6 Atom    -14.734533      0.000067     -0.000564      0.000871
    7 Atom    -14.743750      0.001370     -0.000788     -0.003053
    8 Atom    -14.723464     -0.002685      0.004094      0.001225
    9 Atom    -14.732399     -0.002645     -0.002208      0.000071
   10 Atom    -14.731034     -0.001354     -0.000091     -0.003713
   11 Atom    -14.725778     -0.001976      0.000529      0.002389
   12 Atom    -14.738504     -0.000469     -0.001306      0.004591
   13 Atom    -14.734578     -0.001521      0.001784     -0.003023
   14 Atom    -14.737436     -0.001498      0.004081      0.002023
   15 Atom    -14.734945     -0.000114      0.000314     -0.001045
   16 Atom    -14.742646      0.001242     -0.000938     -0.000698
   17 Atom    -14.747073     -0.002465     -0.000991      0.000957
   18 Atom    -14.692898      0.019607      0.011967     -0.006563
   19 Atom    -14.749486     -0.000905      0.001479     -0.001682
   20 Atom    -22.313564     -0.097086      0.046303      0.043810
   21 Atom     -1.108099      0.018171      0.032057     -0.006444
   22 Atom     -1.101130     -0.005724     -0.005921      0.033313
   23 Atom     -1.117258      0.000646     -0.001557     -0.033637
   24 Atom     -1.118206     -0.013741     -0.028644      0.006545
   25 Atom     -1.107544      0.001165     -0.004150      0.032763
   26 Atom     -1.119796      0.022160     -0.019445     -0.007277
   27 Atom     -1.105159      0.016786      0.026489     -0.012714
   28 Atom     -1.092808     -0.002995      0.008963      0.012382
   29 Atom     -1.115477     -0.003941      0.005189     -0.032638
   30 Atom     -1.116053     -0.017049      0.028016      0.012708
   31 Atom     -1.115342     -0.001976     -0.002629      0.034644
   32 Atom     -1.115888      0.003519      0.005232     -0.033879
   33 Atom     -1.121445      0.002135      0.002534     -0.034352
   34 Atom     -1.119090     -0.001983      0.002538     -0.034210
   35 Atom     -1.117474     -0.012552     -0.030522      0.004246
   36 Atom     -1.117371      0.002226     -0.011790      0.031683
   37 Atom     -1.119708      0.016676     -0.023988     -0.013498
   38 Atom     -1.124831      0.005548      0.031345     -0.012397
   39 Atom     -1.124455      0.001262      0.005411      0.033868
   40 Atom     -1.127974     -0.015314      0.015900     -0.025727
   41 Atom     -1.127096     -0.024871      0.001167      0.022017
   42 Atom     -1.130988      0.000443     -0.003785     -0.031791
   43 Atom     -1.123049     -0.026401      0.016028      0.016508
   44 Atom     -1.118531     -0.009843     -0.029877      0.009601
   45 Atom     -1.118569      0.027942      0.003788      0.020478
   46 Atom     -0.997248      0.007251     -0.047366     -0.003020
 -----------------------------------------------------------------
 -----------------------------------------------------
    Center         ---- Electric Field Gradient ----
                     XX            YY            ZZ
 -----------------------------------------------------
    1 Atom     -493.301643   -493.245049   -493.938498
    2 Atom    -1217.279031  -1214.726394  -1217.529473
    3 Atom     -493.138382   -493.177402   -493.411439
    4 Atom     -493.236449   -493.301676   -493.904785
    5 Atom     -492.777931   -492.818691   -492.807619
    6 Atom     -492.649724   -492.627723   -492.620819
    7 Atom     -492.725351   -492.739260   -492.752765
    8 Atom     -492.607957   -492.631103   -492.670865
    9 Atom     -492.690440   -492.629808   -492.636220
   10 Atom     -492.781891   -492.807427   -492.798730
   11 Atom     -492.837323   -492.801191   -492.810558
   12 Atom     -492.939520   -492.955256   -492.947754
   13 Atom     -492.956579   -492.962140   -492.999545
   14 Atom     -492.741101   -492.718576   -492.720586
   15 Atom     -492.652515   -492.644157   -492.619115
   16 Atom     -492.679690   -492.629949   -492.619812
   17 Atom     -492.661122   -492.701018   -492.628422
   18 Atom     -492.868480   -492.781195   -492.689935
   19 Atom     -492.560783   -492.587374   -492.618147
   20 Atom    -1214.314435  -1215.824557  -1212.996005
   21 Atom       -1.700707     -1.975063     -1.615721
   22 Atom       -1.625963     -1.625100     -2.028895
   23 Atom       -1.626218     -1.621658     -2.058594
   24 Atom       -1.708743     -1.968897     -1.663817
   25 Atom       -1.605976     -1.604636     -2.036251
   26 Atom       -1.750180     -1.860392     -1.644338
   27 Atom       -1.721076     -1.904128     -1.683072
   28 Atom       -1.569955     -1.576634     -1.902536
   29 Atom       -1.631773     -1.632613     -2.054527
   30 Atom       -1.738612     -1.902067     -1.712172
   31 Atom       -1.642809     -1.643991     -2.071339
   32 Atom       -1.643400     -1.650995     -2.046740
   33 Atom       -1.653533     -1.647975     -2.065512
   34 Atom       -1.633160     -1.638869     -2.063835
   35 Atom       -1.716778     -1.977036     -1.651140
   36 Atom       -1.631298     -1.657998     -2.038294
   37 Atom       -1.739865     -1.853478     -1.749122
   38 Atom       -1.647618     -1.994743     -1.714660
   39 Atom       -1.633947     -1.636723     -2.073030
   40 Atom       -1.686524     -1.739741     -1.929579
   41 Atom       -1.825586     -1.615707     -1.847170
   42 Atom       -1.677183     -1.683927     -2.075537
   43 Atom       -1.839185     -1.765048     -1.686947
   44 Atom       -1.642336     -2.028696     -1.627923
   45 Atom       -1.957930     -1.630884     -1.735811
   46 Atom       -1.507612     -2.097031     -1.433578
 -----------------------------------------------------
 -----------------------------------------------------
    Center         ---- Electric Field Gradient ----
                     XY            XZ            YZ
 -----------------------------------------------------
    1 Atom       -0.034605     -0.041898     -0.173729
    2 Atom       -0.153225      0.024576     -0.688710
    3 Atom       -0.021397     -0.047070     -0.037086
    4 Atom       -0.013419     -0.110329     -0.025923
    5 Atom       -0.024349     -0.011032      0.000446
    6 Atom        0.025398     -0.002702     -0.025027
    7 Atom       -0.011290     -0.033897      0.001849
    8 Atom        0.012922     -0.022697     -0.011763
    9 Atom       -0.005863     -0.016569      0.021705
   10 Atom       -0.004053      0.007173     -0.004139
   11 Atom       -0.010489     -0.016798     -0.007722
   12 Atom        0.010658     -0.012519      0.002519
   13 Atom        0.002491      0.006823      0.005901
   14 Atom       -0.014674     -0.011139     -0.011122
   15 Atom       -0.020704     -0.009582      0.013903
   16 Atom       -0.002841     -0.005103     -0.014801
   17 Atom       -0.011625     -0.023718     -0.038443
   18 Atom       -0.180349      0.124980      0.113783
   19 Atom       -0.013285     -0.002781      0.018661
   20 Atom       -0.399251      0.871089      0.351805
   21 Atom       -0.171479      0.039850      0.079596
   22 Atom       -0.003297      0.047503      0.037965
   23 Atom        0.001481      0.020376      0.008028
   24 Atom       -0.156426      0.049224      0.105609
   25 Atom       -0.001863      0.024555      0.008005
   26 Atom        0.191019      0.073443     -0.099304
   27 Atom       -0.161767      0.080382      0.138819
   28 Atom        0.001501     -0.015727     -0.042769
   29 Atom        0.000574     -0.030044      0.048763
   30 Atom        0.164661      0.090066     -0.147441
   31 Atom       -0.000948     -0.003446      0.028489
   32 Atom       -0.007314      0.040215      0.067024
   33 Atom       -0.001755      0.019668      0.026100
   34 Atom        0.003057     -0.012206      0.055889
   35 Atom       -0.163427      0.038894      0.078942
   36 Atom        0.000827     -0.013781      0.109517
   37 Atom        0.149505      0.109807     -0.161341
   38 Atom       -0.068653      0.030924      0.170587
   39 Atom       -0.002965     -0.024501     -0.049142
   40 Atom        0.073441     -0.126979      0.174545
   41 Atom        0.023351      0.221958     -0.025490
   42 Atom       -0.003318      0.020357     -0.054622
   43 Atom        0.192728      0.131000     -0.102207
   44 Atom       -0.116323      0.015411      0.056139
   45 Atom       -0.066197     -0.194934     -0.036081
   46 Atom        0.162600      0.035015     -0.048244
 -----------------------------------------------------
 -----------------------------------------------------
    Center         ---- Electric Field Gradient ----
                   ----       Eigenvalues       ----
 -----------------------------------------------------
    1 Atom     -493.983077   -493.303906   -493.198206
    2 Atom    -1217.689833  -1217.287551  -1214.557514
    3 Atom     -493.425822   -493.175751   -493.125650
    4 Atom     -493.923763   -493.301446   -493.217700
    5 Atom     -492.830902   -492.809182   -492.764157
    6 Atom     -492.669672   -492.636308   -492.592286
    7 Atom     -492.776265   -492.741372   -492.699739
    8 Atom     -492.679357   -492.636836   -492.593733
    9 Atom     -492.695103   -492.653180   -492.608184
   10 Atom     -492.809137   -492.800610   -492.778301
   11 Atom     -492.848864   -492.803407   -492.796801
   12 Atom     -492.965066   -492.949098   -492.928366
   13 Atom     -493.001365   -492.962889   -492.954010
   14 Atom     -492.754922   -492.717509   -492.707832
   15 Atom     -492.669501   -492.640448   -492.605838
   16 Atom     -492.680475   -492.639830   -492.609146
   17 Atom     -492.724246   -492.660208   -492.606108
   18 Atom     -493.082794   -492.643947   -492.612870
   19 Atom     -492.627105   -492.585545   -492.553653
   20 Atom    -1216.035268  -1214.542903  -1212.556826
   21 Atom       -2.074740     -1.618388     -1.598364
   22 Atom       -2.037935     -1.622257     -1.619766
   23 Atom       -2.059696     -1.626024     -1.620750
   24 Atom       -2.075259     -1.635393     -1.630805
   25 Atom       -2.037799     -1.605937     -1.603126
   26 Atom       -2.042414     -1.607239     -1.605257
   27 Atom       -2.065714     -1.626757     -1.615805
   28 Atom       -1.908756     -1.573804     -1.566565
   29 Atom       -2.062169     -1.631493     -1.625250
   30 Atom       -2.084366     -1.636740     -1.631744
   31 Atom       -2.073257     -1.643664     -1.641219
   32 Atom       -2.061776     -1.640408     -1.638952
   33 Atom       -2.068077     -1.652637     -1.646306
   34 Atom       -2.071418     -1.633799     -1.630646
   35 Atom       -2.074121     -1.638105     -1.632728
   36 Atom       -2.067997     -1.632761     -1.626832
   37 Atom       -2.073883     -1.636952     -1.631629
   38 Atom       -2.088270     -1.635799     -1.632952
   39 Atom       -2.079863     -1.632623     -1.631215
   40 Atom       -2.087059     -1.636680     -1.632104
   41 Atom       -2.061280     -1.614469     -1.612714
   42 Atom       -2.083969     -1.682381     -1.670297
   43 Atom       -2.070338     -1.616659     -1.604183
   44 Atom       -2.068703     -1.620238     -1.610015
   45 Atom       -2.083763     -1.623350     -1.617512
   46 Atom       -2.143248     -1.475918     -1.419054
 -----------------------------------------------------
 -----------------------------------------------------
    Center         ---- Electric Field Gradient ----
                       ( tensor representation )
                   3XX-RR        3YY-RR        3ZZ-RR
 -----------------------------------------------------
    1 Atom        0.193420      0.250014     -0.443435
    2 Atom       -0.767399      1.785239     -1.017840
    3 Atom        0.104026      0.065006     -0.169031
    4 Atom        0.244521      0.179294     -0.423815
    5 Atom        0.023483     -0.017277     -0.006206
    6 Atom       -0.016969      0.005032      0.011936
    7 Atom        0.013774     -0.000134     -0.013640
    8 Atom        0.028685      0.005539     -0.034223
    9 Atom       -0.038284      0.022348      0.015936
   10 Atom        0.014125     -0.011411     -0.002714
   11 Atom       -0.020965      0.015166      0.005799
   12 Atom        0.007990     -0.007746     -0.000244
   13 Atom        0.016176      0.010615     -0.026791
   14 Atom       -0.014347      0.008178      0.006169
   15 Atom       -0.013919     -0.005561      0.019480
   16 Atom       -0.036540      0.013201      0.023338
   17 Atom        0.002399     -0.037497      0.035099
   18 Atom       -0.088610     -0.001325      0.089935
   19 Atom        0.027985      0.001394     -0.029379
   20 Atom        0.063897     -1.446224      1.382327
   21 Atom        0.063123     -0.211233      0.148110
   22 Atom        0.134023      0.134886     -0.268910
   23 Atom        0.142605      0.147165     -0.289771
   24 Atom        0.071743     -0.188412      0.116669
   25 Atom        0.142979      0.144318     -0.287297
   26 Atom        0.001457     -0.108755      0.107299
   27 Atom        0.048349     -0.134703      0.086354
   28 Atom        0.113087      0.106408     -0.219495
   29 Atom        0.141198      0.140358     -0.281556
   30 Atom        0.045672     -0.117783      0.072111
   31 Atom        0.143237      0.142055     -0.285293
   32 Atom        0.136978      0.129383     -0.266362
   33 Atom        0.135474      0.141031     -0.276505
   34 Atom        0.145461      0.139752     -0.285213
   35 Atom        0.064873     -0.195384      0.130511
   36 Atom        0.144566      0.117865     -0.262431
   37 Atom        0.040957     -0.072657      0.031700
   38 Atom        0.138055     -0.209069      0.071014
   39 Atom        0.147286      0.144511     -0.291797
   40 Atom        0.098757      0.045540     -0.144297
   41 Atom       -0.062765      0.147115     -0.084349
   42 Atom        0.135033      0.128288     -0.263321
   43 Atom       -0.075458     -0.001321      0.076780
   44 Atom        0.123982     -0.262377      0.138395
   45 Atom       -0.183055      0.143991      0.039064
   46 Atom        0.171795     -0.417624      0.245829
 -----------------------------------------------------
 -----------------------------------------------------
    Center         ---- Electric Field Gradient ----
                       ( tensor representation )
                   ----       Eigenvalues       ----
 -----------------------------------------------------
    1 Atom       -0.488014      0.191157      0.296857
    2 Atom       -1.178200     -0.775918      1.954119
    3 Atom       -0.183414      0.066657      0.116758
    4 Atom       -0.442793      0.179524      0.263270
    5 Atom       -0.029489     -0.007768      0.037257
    6 Atom       -0.036917     -0.003552      0.040469
    7 Atom       -0.037139     -0.002246      0.039386
    8 Atom       -0.042715     -0.000194      0.042908
    9 Atom       -0.042947     -0.001024      0.043972
   10 Atom       -0.013121     -0.004594      0.017715
   11 Atom       -0.032507      0.012950      0.019556
   12 Atom       -0.017556     -0.001588      0.019144
   13 Atom       -0.028610      0.009865      0.018745
   14 Atom       -0.028168      0.009246      0.018922
   15 Atom       -0.030905     -0.001852      0.032758
   16 Atom       -0.037325      0.003320      0.034005
   17 Atom       -0.060726      0.003313      0.057413
   18 Atom       -0.302924      0.135923      0.167000
   19 Atom       -0.038337      0.003223      0.035115
   20 Atom       -1.656936     -0.164570      1.821506
   21 Atom       -0.310909      0.145442      0.165467
   22 Atom       -0.277949      0.137728      0.140220
   23 Atom       -0.290873      0.142800      0.148074
   24 Atom       -0.294774      0.145093      0.149681
   25 Atom       -0.288845      0.143017      0.145828
   26 Atom       -0.290778      0.144398      0.146380
   27 Atom       -0.296289      0.142669      0.153620
   28 Atom       -0.225714      0.109238      0.116477
   29 Atom       -0.289198      0.141478      0.147720
   30 Atom       -0.300083      0.147543      0.152539
   31 Atom       -0.287210      0.142382      0.144828
   32 Atom       -0.281397      0.139971      0.141427
   33 Atom       -0.279071      0.136370      0.142701
   34 Atom       -0.292797      0.144822      0.147975
   35 Atom       -0.292470      0.143547      0.148923
   36 Atom       -0.292133      0.143102      0.149031
   37 Atom       -0.293062      0.143870      0.149192
   38 Atom       -0.302596      0.149874      0.152722
   39 Atom       -0.298629      0.148611      0.150019
   40 Atom       -0.301778      0.148601      0.153177
   41 Atom       -0.298459      0.148352      0.150107
   42 Atom       -0.271754      0.129835      0.141919
   43 Atom       -0.306611      0.147068      0.159543
   44 Atom       -0.302385      0.146081      0.156304
   45 Atom       -0.308888      0.151525      0.157363
   46 Atom       -0.463841      0.203489      0.260352
 -----------------------------------------------------
 Unable to Open any file for archive entry.
 1\1\GINC-MIKE086\SP\RwB97XD\6-31G(d)\C18H26O2\ARKANIL\19-May-2026\0\\#
  wb97xd/6-31g(d) prop=efg\\19NT_md_min_distance_cutoff6\\0,1\C,0,43.44
 38740686,42.7839301979,30.9441847162\O,0,43.238091959,41.6846040505,31
 .518932429\C,0,43.237669142,44.02502769,31.5624107025\C,0,43.357690345
 7,45.2179045227,30.898221138\C,0,43.9320728415,45.2794541898,29.510550
 3882\C,0,44.7168364545,44.0059430971,29.1951402746\C,0,43.8623520864,4
 2.7863150987,29.496749192\C,0,42.7728861479,46.4282810348,31.446717210
 2\C,0,43.4559066324,47.7406168099,31.0865935545\C,0,43.8771698003,47.7
 764261458,29.621628595\C,0,44.7681182608,46.5606138006,29.3225689733\C
 ,0,44.6583207997,49.0454896941,29.3166489167\C,0,45.1663749448,49.1176
 947267,27.8695070182\C,0,46.1166327443,47.9457963266,27.6417212987\C,0
 ,45.4002875838,46.6224480843,27.9250327316\C,0,43.9682469499,50.392018
 8802,29.5129851169\C,0,44.9053978678,51.366500539,28.7809631219\C,0,45
 .8346414331,50.5114155896,27.8909766204\C,0,44.0554083058,49.118602285
 3,26.8131742164\O,0,45.9767903741,51.1194126567,26.6260619442\H,0,42.8
 609853213,44.0154086075,32.5760691868\H,0,43.0745921925,45.3348727174,
 28.8240207903\H,0,45.6250058676,43.9765781472,29.8021083733\H,0,45.007
 5414986,43.9902257767,28.1444080626\H,0,42.9498824,42.821166831,28.891
 2338245\H,0,44.3952424449,41.8610949641,29.2637484791\H,0,42.608885872
 3,46.3546319549,32.521279038\H,0,41.734297344,46.416334813,30.98569338
 74\H,0,44.3376079554,47.8717135231,31.720502019\H,0,42.7817898645,48.5
 681233721,31.2952198475\H,0,42.9750801997,47.7275447979,29.0053104794\
 H,0,45.5807471908,46.5500501557,30.0584951438\H,0,45.5476231709,49.041
 3662851,29.9588507635\H,0,46.9818120817,48.0432877735,28.3010263752\H,
 0,46.4845234743,47.9369913873,26.6119492884\H,0,44.6264226102,46.46251
 19846,27.1707220937\H,0,46.1334818661,45.8198676221,27.8273017452\H,0,
 43.860077737,50.652737908,30.5633176502\H,0,42.9750900376,50.378528700
 9,29.0654175837\H,0,45.4893621915,51.9390405863,29.4980634794\H,0,44.3
 657582174,52.0703594956,28.1490106886\H,0,46.825985875,50.416287242,28
 .3600432998\H,0,43.5648074855,50.0861529607,26.780815255\H,0,44.485788
 7558,48.9255452184,25.8311430662\H,0,43.3077583755,48.3580560566,27.01
 51997443\H,0,46.4268673782,50.4956235783,26.0474566665\\Version=ES64L-
 G16RevC.01\State=1-A\HF=-851.78397\RMSD=3.772e-09\Dipole=0.3220744,1.3
 303946,-0.6966195\Quadrupole=12.8947166,-21.4363819,8.5416652,-6.38649
 75,0.3081824,16.5867687\PG=C01 [X(C18H26O2)]\\@
 The archive entry for this job was punched.


 At the touch of love, everyone becomes a poet.
                                -- Plato
 Job cpu time:       0 days  0 hours 17 minutes  8.9 seconds.
 Elapsed time:       0 days  0 hours  0 minutes 16.4 seconds.
 File lengths (MBytes):  RWF=     71 Int=      0 D2E=      0 Chk=      8 Scr=      1
 Normal termination of Gaussian 16 at Tue May 19 08:15:16 2026.
