 Entering Gaussian System, Link 0=g16
 Initial command:
 /cm/shared/apps/spack/cpu/opt/spack/linux-centos8-zen/gcc-8.3.1/gaussian-16.C.01-po5bqktfeugvmjyga3v7eigbecnokxng/g16/l1.exe "/scratch/hklem/job_32090256/Gau-2797238.inp" -scrdir="/scratch/hklem/job_32090256/"
 Entering Link 1 = /cm/shared/apps/spack/cpu/opt/spack/linux-centos8-zen/gcc-8.3.1/gaussian-16.C.01-po5bqktfeugvmjyga3v7eigbecnokxng/g16/l1.exe PID=   2797239.
  
 Copyright (c) 1988-2019, Gaussian, Inc.  All Rights Reserved.
  
 This is part of the Gaussian(R) 16 program.  It is based on
 the Gaussian(R) 09 system (copyright 2009, Gaussian, Inc.),
 the Gaussian(R) 03 system (copyright 2003, Gaussian, Inc.),
 the Gaussian(R) 98 system (copyright 1998, Gaussian, Inc.),
 the Gaussian(R) 94 system (copyright 1995, Gaussian, Inc.),
 the Gaussian 92(TM) system (copyright 1992, Gaussian, Inc.),
 the Gaussian 90(TM) system (copyright 1990, Gaussian, Inc.),
 the Gaussian 88(TM) system (copyright 1988, Gaussian, Inc.),
 the Gaussian 86(TM) system (copyright 1986, Carnegie Mellon
 University), and the Gaussian 82(TM) system (copyright 1983,
 Carnegie Mellon University). Gaussian is a federally registered
 trademark of Gaussian, Inc.
  
 This software contains proprietary and confidential information,
 including trade secrets, belonging to Gaussian, Inc.
  
 This software is provided under written license and may be
 used, copied, transmitted, or stored only in accord with that
 written license.
  
 The following legend is applicable only to US Government
 contracts under FAR:
  
                    RESTRICTED RIGHTS LEGEND
  
 Use, reproduction and disclosure by the US Government is
 subject to restrictions as set forth in subparagraphs (a)
 and (c) of the Commercial Computer Software - Restricted
 Rights clause in FAR 52.227-19.
  
 Gaussian, Inc.
 340 Quinnipiac St., Bldg. 40, Wallingford CT 06492
  
  
 ---------------------------------------------------------------
 Warning -- This program may not be used in any manner that
 competes with the business of Gaussian, Inc. or will provide
 assistance to any competitor of Gaussian, Inc.  The licensee
 of this program is prohibited from giving any competitor of
 Gaussian, Inc. access to this program.  By using this program,
 the user acknowledges that Gaussian, Inc. is engaged in the
 business of creating and licensing software in the field of
 computational chemistry and represents and warrants to the
 licensee that it is not a competitor of Gaussian, Inc. and that
 it will not use this program in any manner prohibited above.
 ---------------------------------------------------------------
  

 Cite this work as:
 Gaussian 16, Revision C.01,
 M. J. Frisch, G. W. Trucks, H. B. Schlegel, G. E. Scuseria, 
 M. A. Robb, J. R. Cheeseman, G. Scalmani, V. Barone, 
 G. A. Petersson, H. Nakatsuji, X. Li, M. Caricato, A. V. Marenich, 
 J. Bloino, B. G. Janesko, R. Gomperts, B. Mennucci, H. P. Hratchian, 
 J. V. Ortiz, A. F. Izmaylov, J. L. Sonnenberg, D. Williams-Young, 
 F. Ding, F. Lipparini, F. Egidi, J. Goings, B. Peng, A. Petrone, 
 T. Henderson, D. Ranasinghe, V. G. Zakrzewski, J. Gao, N. Rega, 
 G. Zheng, W. Liang, M. Hada, M. Ehara, K. Toyota, R. Fukuda, 
 J. Hasegawa, M. Ishida, T. Nakajima, Y. Honda, O. Kitao, H. Nakai, 
 T. Vreven, K. Throssell, J. A. Montgomery, Jr., J. E. Peralta, 
 F. Ogliaro, M. J. Bearpark, J. J. Heyd, E. N. Brothers, K. N. Kudin, 
 V. N. Staroverov, T. A. Keith, R. Kobayashi, J. Normand, 
 K. Raghavachari, A. P. Rendell, J. C. Burant, S. S. Iyengar, 
 J. Tomasi, M. Cossi, J. M. Millam, M. Klene, C. Adamo, R. Cammi, 
 J. W. Ochterski, R. L. Martin, K. Morokuma, O. Farkas, 
 J. B. Foresman, and D. J. Fox, Gaussian, Inc., Wallingford CT, 2019.
 
 ******************************************
 Gaussian 16:  ES64L-G16RevC.01  3-Jul-2019
                11-Jul-2024 
 ******************************************
 %nprocshared=32
 Will use up to   32 processors via shared memory.
 %mem=64GB
 --------------------------
 # wb97xd/6-31G(d) prop=efg
 --------------------------
 1/38=1,172=1/1;
 2/12=2,17=6,18=5,40=1/2;
 3/5=1,6=6,7=1,11=2,25=1,30=1,74=-58/1,2,3;
 4//1;
 5/5=2,38=5/2;
 6/7=2,8=2,9=2,10=2,14=1,28=1/1,2;
 99/5=1,9=1/99;
 ---------------------------------------------
 19nt_mm_min_distance_cutoff6_nowat_xtb_conf_1
 ---------------------------------------------
 Symbolic Z-matrix:
 Charge = -1 Multiplicity = 1
 H                     46.9936   33.7571   30.906 
 C                     46.354    34.588    30.601 
 H                     45.8603   34.337    29.6621 
 C                     45.2971   34.8694   31.6802 
 H                     44.6626   33.9867   31.7873 
 H                     45.7872   35.0533   32.6393 
 C                     44.4659   36.0638   31.3038 
 C                     43.3264   35.9393   30.5214 
 H                     42.9977   34.9578   30.2096 
 C                     42.5966   37.0508   30.1446 
 H                     41.7062   36.95     29.5433 
 C                     43.0056   38.3174   30.5475 
 O                     42.2939   39.4051   30.15 
 H                     42.5655   40.1938   30.7109 
 C                     44.1404   38.4521   31.3388 
 H                     44.4475   39.433    31.6702 
 C                     44.8583   37.3326   31.7055 
 H                     45.7401   37.4451   32.3166 
 C                     47.2192   35.8316   30.3242 
 O                     47.1025   36.4826   29.3034 
 N                     48.1214   36.1506   31.2791 
 H                     48.2009   35.5629   32.0941 
 C                     49.06     37.273    31.205 
 H                     48.5762   38.0751   30.648 
 C                     49.481    37.7184   32.6063 
 H                     49.8191   36.8249   33.1489 
 C                     50.6643   38.6782   32.5154 
 H                     50.9511   39.0139   33.5086 
 H                     50.4031   39.5456   31.9203 
 H                     51.5212   38.19     32.0548 
 C                     48.3224   38.3253   33.4089 
 H                     47.5675   37.5551   33.58 
 H                     48.6977   38.6124   34.3924 
 C                     47.6602   39.5378   32.7689 
 H                     46.8775   39.9063   33.4261 
 H                     47.2125   39.2897   31.8106 
 H                     48.3726   40.3451   32.6263 
 H                     49.9459   36.955    30.6394 
 H                     48.002    38.2053   26.9109 
 C                     48.063    39.251    26.62 
 H                     47.1994   39.4831   26.0017 
 C                     48.0774   40.1379   27.8631 
 H                     48.9558   39.8759   28.4636 
 C                     48.1662   41.6099   27.4693 
 H                     49.0771   41.8126   26.9081 
 H                     47.318    41.8717   26.8452 
 H                     48.1491   42.2503   28.3486 
 C                     46.8307   39.8909   28.7071 
 H                     46.8461   40.512    29.6009 
 H                     46.7723   38.8465   29.0025 
 H                     45.937    40.1285   28.134 
 H                     48.9636   39.4      26.0267 
 H                     43.4096   34.4349   24.6677 
 C                     42.526    34.831    25.164 
 H                     42.2334   34.1349   25.9479 
 C                     42.8097   36.208    25.7603 
 H                     43.1273   36.8784   24.9527 
 C                     41.5377   36.775    26.3852 
 H                     41.1822   36.1166   27.1755 
 H                     40.7517   36.8703   25.6377 
 H                     41.7203   37.7596   26.805 
 C                     43.9474   36.1069   26.7818 
 H                     43.5901   35.5742   27.665 
 H                     44.7563   35.516    26.3448 
 C                     44.5147   37.453    27.2085 
 H                     45.3573   37.2956   27.8756 
 H                     44.8557   38.0153   26.3414 
 H                     43.7711   38.0432   27.736 
 H                     41.719    34.8841   24.4353 
 H                     37.8538   33.1053   28.1053 
 C                     36.813    32.932    28.368 
 H                     36.7435   32.8586   29.4512 
 C                     35.938    34.0779   27.8598 
 H                     36.0129   34.1316   26.7707 
 H                     34.8956   33.8834   28.1199 
 C                     36.3873   35.3759   28.4679 
 C                     37.5387   35.9986   28.0058 
 H                     38.0821   35.5691   27.1755 
 C                     38.0034   37.1602   28.588 
 H                     38.9048   37.6248   28.2194 
 C                     37.3135   37.7366   29.6509 
 O                     37.7244   38.8809   30.2445 
 H                     38.499    39.233    29.7708 
 C                     36.1589   37.1166   30.1216 
 H                     35.6271   37.5663   30.9459 
 C                     35.7104   35.9492   29.5358 
 H                     34.8136   35.478    29.9134 
 H                     36.4985   31.9842   27.9349 
 H                     36.2614   46.0975   32.5257 
 C                     37.164    46.712    32.465 
 H                     37.699    46.6614   33.4104 
 C                     38.0572   46.1885   31.3369 
 H                     37.7217   46.5787   30.3746 
 H                     38.0157   45.0968   31.2831 
 C                     39.5417   46.5602   31.5472 
 O                     39.8806   46.9362   32.6833 
 O                     40.3044   46.4147   30.5715 
 C                     36.7116   48.1217   32.125 
 O                     35.9965   48.3399   31.1552 
 N                     37.1086   49.1332   32.9179 
 C                     36.7271   50.499    32.5942 
 H                     37.2737   50.8314   31.704 
 H                     35.6587   50.5414   32.3681 
 C                     37.1294   51.305    33.8236 
 H                     37.3542   52.3419   33.5819 
 H                     36.3307   51.2826   34.5675 
 C                     38.3471   50.5373   34.3332 
 H                     38.5733   50.7381   35.3787 
 H                     39.2235   50.7871   33.7347 
 C                     37.95     49.082    34.098 
 H                     38.8168   48.4406   33.9287 
 H                     37.3766   48.6934   34.9509 
 H                     36.9242   43.9448   22.1831 
 C                     37.317    44.529    23.018 
 H                     37.0773   45.5788   22.8585 
 C                     36.7058   44.0441   24.3466 
 H                     36.7058   42.9518   24.3823 
 H                     35.6671   44.3777   24.3913 
 C                     37.4727   44.5819   25.529 
 C                     37.3046   45.897    25.944 
 H                     36.5868   46.5249   25.434 
 C                     38.0242   46.3967   27.0158 
 H                     37.8695   47.4159   27.3374 
 C                     38.9285   45.5917   27.6904 
 H                     39.4778   45.9711   28.5411 
 C                     39.0978   44.2796   27.2821 
 H                     39.7879   43.634    27.8059 
 C                     38.3764   43.7789   26.2122 
 H                     38.5093   42.7454   25.923 
 C                     38.8469   44.4003   23.0558 
 O                     39.5686   45.3855   22.9451 
 N                     39.3413   43.1568   23.1854 
 H                     38.6949   42.4054   23.3678 
 C                     40.763    42.802    23.272 
 H                     41.2109   43.3315   24.1196 
 C                     40.9386   41.2934   23.434 
 H                     40.2753   40.7755   22.7374 
 H                     41.967    41.0437   23.1664 
 C                     40.6778   40.8499   24.8485 
 C                     39.4267   40.4126   25.2629 
 H                     38.615    40.338    24.5505 
 C                     39.1971   40.0415   26.5744 
 H                     38.2201   39.7099   26.8902 
 C                     40.2358   40.0825   27.5011 
 O                     39.9927   39.6862   28.7723 
 H                     40.8311   39.6143   29.2848 
 C                     41.4955   40.5089   27.0919 
 H                     42.3066   40.519    27.8049 
 C                     41.7032   40.8981   25.7846 
 H                     42.6835   41.2333   25.4808 
 H                     41.2489   43.1523   22.3545 
 H                     40.5037   46.2616   20.3353 
 C                     40.928    47.267    20.313 
 H                     41.1979   47.5176   19.2898 
 C                     39.9343   48.2676   20.9139 
 H                     40.057    49.2431   20.4429 
 H                     40.1592   48.3942   21.9745 
 C                     38.4772   47.8089   20.7802 
 H                     38.0684   48.0789   19.8073 
 H                     38.4235   46.7254   20.8994 
 C                     37.6309   48.4455   21.874 
 O                     36.7983   49.3022   21.6741 
 N                     37.9088   47.953    23.0996 
 H                     38.5851   47.2139   23.2329 
 H                     37.4532   48.345    23.9067 
 C                     42.2317   47.2339   21.1544 
 O                     43.3168   47.5185   20.6745 
 N                     42.0936   46.8348   22.4455 
 H                     41.1808   46.4887   22.7205 
 C                     43.019    47.115    23.555 
 H                     42.5928   46.6666   24.4537 
 H                     43.0932   48.1962   23.7132 
 C                     44.4663   46.6082   23.4368 
 O                     45.3449   47.1435   24.0831 
 N                     44.6791   45.5292   22.6607 
 H                     43.8995   45.1322   22.1587 
 C                     45.983    44.912    22.455 
 H                     46.7048   45.4738   23.0499 
 C                     45.9553   43.4344   22.855 
 H                     45.3374   42.8913   22.1335 
 H                     46.9729   43.053    22.7648 
 C                     45.4226   43.1749   24.266 
 H                     44.376    43.4998   24.3146 
 C                     45.4779   41.6743   24.5491 
 H                     45.0979   41.4549   25.545 
 H                     44.8852   41.1191   23.824 
 H                     46.5045   41.3202   24.4873 
 C                     46.2157   43.9505   25.3116 
 H                     47.2782   43.7396   25.2192 
 H                     46.0618   45.0198   25.2058 
 H                     45.8921   43.6664   26.3098 
 C                     46.4141   44.9753   20.9593 
 O                     47.3695   44.324    20.5786 
 N                     45.6476   45.7093   20.1287 
 H                     44.942    46.3436   20.4908 
 C                     45.882    45.789    18.692 
 H                     46.6864   45.0979   18.4469 
 H                     44.9726   45.5107   18.1596 
 H                     46.1674   46.8025   18.4103 
 H                     51.3493   46.2664   23.6488 
 C                     51.26     46.169    24.731 
 H                     51.5754   47.0891   25.221 
 C                     49.7934   45.8745   25.0942 
 H                     49.5344   44.8846   24.7001 
 C                     49.5782   45.8929   26.6038 
 H                     50.1488   45.1127   27.1006 
 H                     49.877    46.8539   27.0161 
 H                     48.5266   45.7405   26.8313 
 C                     48.9027   46.9184   24.4243 
 H                     49.1644   47.9136   24.7748 
 H                     49.0148   46.8899   23.3422 
 H                     47.8573   46.7485   24.6667 
 C                     52.2029   45.0504   25.162 
 O                     52.5012   44.1395   24.3679 
 N                     52.713    45.1062   26.3933 
 H                     52.4848   45.915    26.9739 
 C                     53.485    44.06     27.077 
 H                     53.4004   43.1428   26.4863 
 C                     54.9496   44.4608   27.3161 
 H                     55.5718   43.565    27.2622 
 H                     55.0896   44.8796   28.3211 
 C                     55.4913   45.5402   26.3825 
 H                     56.4622   45.8252   26.7897 
 H                     54.8503   46.4197   26.4309 
 C                     55.6187   45.1343   24.9129 
 H                     54.6451   45.0298   24.4417 
 H                     56.1739   45.9049   24.3718 
 N                     56.348    43.8888   24.7589 
 H                     57.2912   43.9226   25.1204 
 C                     55.8124   42.684    24.5817 
 N                     54.536    42.4898   24.3058 
 H                     53.7654   43.2212   24.3445 
 H                     54.2272   41.5543   24.1042 
 N                     56.6404   41.6124   24.6701 
 H                     57.6326   41.7462   24.7527 
 H                     56.3238   40.7083   24.368 
 C                     52.7735   43.8758   28.4363 
 O                     52.1602   44.7965   28.9345 
 N                     52.8603   42.6636   29.0129 
 H                     53.3666   41.9223   28.5574 
 C                     52.152    42.334    30.246 
 H                     51.8763   43.2835   30.7068 
 C                     50.9064   41.51     29.9559 
 H                     50.3002   41.4299   30.8532 
 H                     51.1683   40.511    29.6132 
 H                     50.3126   41.9986   29.1894 
 H                     52.8334   41.7996   30.9116 
 H                     45.5201   38.0807   40.5275 
 C                     46.435    38.561    40.187 
 H                     47.24     38.2907   40.866 
 C                     46.7702   38.1248   38.7647 
 H                     46.9201   37.0434   38.7344 
 H                     47.7012   38.5957   38.4417 
 C                     45.663    38.4975   37.7931 
 H                     45.5306   39.5799   37.7497 
 H                     44.7195   38.0274   38.0778 
 S                     46.0671   37.9285   36.1042 
 C                     44.5678   38.5064   35.2698 
 H                     43.7023   38.0419   35.7339 
 H                     44.5152   39.5894   35.3268 
 H                     44.6327   38.195    34.2336 
 H                     46.2928   39.6387   40.2323 
 H                     49.4244   42.5988   37.9059 
 C                     50.213    42.685    37.162 
 H                     51.1679   42.4786   37.6414 
 C                     49.9667   41.7129   36.0066 
 H                     50.774    41.8065   35.2769 
 H                     49.9712   40.6891   36.3911 
 C                     48.6448   42.0011   35.3523 
 C                     48.5699   42.687    34.1484 
 H                     49.4825   42.9983   33.6562 
 C                     47.342    42.9749   33.5753 
 H                     47.2939   43.505    32.6352 
 C                     46.1744   42.5939   34.2094 
 H                     45.2109   42.8158   33.7796 
 C                     46.2407   41.9277   35.4214 
 H                     45.3225   41.67     35.9254 
 C                     47.4653   41.6249   35.9832 
 H                     47.5161   41.094    36.9239 
 H                     50.2231   43.7088   36.7947 
 H                     50.6206   46.4332   32.4209 
 C                     50.84     46.417    31.354 
 H                     51.4663   45.5604   31.1144 
 C                     49.5375   46.3643   30.5391 
 H                     49.7514   46.7185   29.5257 
 C                     49.0199   44.9328   30.4412 
 H                     48.8877   44.5078   31.4337 
 H                     49.7259   44.3209   29.8872 
 H                     48.0641   44.9121   29.9211 
 C                     48.4944   47.2822   31.1631 
 H                     48.2005   46.9191   32.1471 
 H                     47.6094   47.3429   30.5348 
 H                     48.9053   48.2816   31.2692 
 C                     51.6038   47.7027   30.9906 
 O                     51.4635   48.7447   31.6121 
 N                     52.4058   47.5989   29.9107 
 H                     52.4462   46.7092   29.4298 
 C                     53.236    48.657    29.347 
 H                     53.1278   49.5381   29.9823 
 C                     54.7044   48.1925   29.2388 
 H                     55.3006   49.0128   28.8301 
 H                     54.7357   47.3644   28.5247 
 C                     55.3312   47.6891   30.526 
 H                     54.6306   47.0443   31.0617 
 H                     55.6342   48.5033   31.1836 
 C                     56.6042   46.8022   30.1791 
 O                     56.4208   45.9323   29.3054 
 O                     57.6324   47.0556   30.8021 
 C                     52.7993   48.915    27.8992 
 O                     52.5496   47.983    27.1433 
 N                     52.7794   50.1989   27.4855 
 H                     53.1288   50.9345   28.0837 
 C                     52.401    50.618    26.143 
 H                     53.0727   50.1347   25.4156 
 C                     50.9592   50.195    25.8226 
 H                     50.9228   49.1063   25.8853 
 H                     50.7216   50.4676   24.7916 
 C                     49.9108   50.7607   26.7796 
 H                     50.1702   51.7574   27.1315 
 H                     48.9373   50.806    26.2918 
 S                     49.708    49.6802   28.2555 
 C                     50.1208   50.8312   29.5896 
 H                     50.9813   51.416    29.2832 
 H                     49.2671   51.4723   29.7962 
 H                     50.3727   50.2384   30.4649 
 C                     52.6739   52.1492   26.0202 
 O                     53.5645   52.6534   26.6779 
 N                     51.9524   52.8307   25.1027 
 H                     51.0916   52.4376   24.7506 
 C                     52.113    54.245    24.763 
 H                     52.9691   54.6166   25.3336 
 C                     52.3582   54.3914   23.2505 
 H                     51.483    53.9827   22.7334 
 C                     52.5169   55.8591   22.8625 
 H                     53.3517   56.3071   23.3983 
 H                     52.7155   55.9398   21.7962 
 H                     51.6139   56.4215   23.084 
 C                     53.597    53.5985   22.8402 
 H                     54.4762   53.9797   23.3551 
 H                     53.4844   52.5472   23.0913 
 H                     53.7596   53.6823   21.7683 
 C                     50.8076   54.9813   25.1716 
 O                     49.7357   54.4277   25.044 
 N                     50.9514   56.2518   25.6089 
 H                     51.8845   56.6007   25.7648 
 C                     49.863    57.09     26.119 
 H                     48.945    56.5208   25.9676 
 C                     50.063    57.4006   27.6098 
 H                     50.6534   56.5855   28.0379 
 H                     50.6187   58.3318   27.7361 
 C                     48.7687   57.4741   28.3482 
 C                     48.2311   58.5408   29.0036 
 H                     48.61     59.541    29.1002 
 N                     47.0523   58.18     29.6033 
 H                     46.4636   58.7874   30.1465 
 C                     46.8056   56.862    29.3392 
 C                     45.754    56.0421   29.7293 
 H                     44.9515   56.4201   30.3467 
 C                     45.7705   54.7341   29.2957 
 H                     44.9688   54.0698   29.581 
 C                     46.8025   54.2484   28.4867 
 H                     46.7636   53.2266   28.1425 
 C                     47.8523   55.0528   28.106 
 H                     48.6368   54.6671   27.4727 
 C                     47.8671   56.3796   28.5397 
 H                     49.8164   58.0077   25.5263 
 H                     53.88     55.4646   29.537 
 C                     53.834    54.416    29.825 
 H                     54.5114   54.2504   30.6597 
 C                     52.4216   54.0375   30.2221 
 H                     52.3735   53.0148   30.5975 
 H                     52.0222   54.719    30.9718 
 S                     51.323    54.143    28.7521 
 H                     50.1746   54.053    29.4234 
 H                     54.1619   53.8137   28.979 
 H                     50.6418   50.645    33.57 
 C                     49.755    50.767    34.187 
 H                     49.8165   51.7243   34.7013 
 C                     48.5076   50.6752   33.3168 
 H                     48.609    49.7959   32.6807 
 H                     48.4494   51.5481   32.6609 
 C                     47.1993   50.5487   34.103 
 H                     47.3049   49.7254   34.8191 
 C                     46.8749   51.8225   34.8781 
 H                     47.6542   52.0541   35.6004 
 H                     46.7642   52.6632   34.1953 
 H                     45.937    51.7007   35.4142 
 C                     46.0533   50.2146   33.1511 
 H                     46.2732   49.3076   32.5935 
 H                     45.9048   51.0262   32.4414 
 H                     45.1251   50.0658   33.6965 
 H                     49.753    49.9746   34.9323 
 H                     47.1693   46.8995   36.8901 
 C                     46.253    46.438    37.253 
 H                     45.533    47.2275   37.4617 
 C                     45.6914   45.4669   36.2183 
 H                     46.4321   44.6777   36.0468 
 C                     44.4109   44.8197   36.7382 
 H                     44.0438   44.0766   36.0352 
 H                     44.5936   44.3263   37.6917 
 H                     43.6398   45.5739   36.8877 
 C                     45.4338   46.1808   34.8938 
 H                     45.044    45.4804   34.1595 
 H                     46.3554   46.609    34.5042 
 H                     44.713    46.986    35.0226 
 H                     46.475    45.9223   38.1855 
 H                     43.3002   40.7385   37.5736 
 C                     42.317    41.201    37.522 
 H                     42.4498   42.2794   37.4973 
 C                     41.5761   40.7425   36.2745 
 H                     41.5135   39.6534   36.2296 
 H                     40.5562   41.1373   36.2628 
 C                     42.2418   41.2343   35.0086 
 O                     43.124    42.0545   34.9763 
 O                     41.7455   40.66     33.9239 
 H                     42.1789   41.0276   33.0985 
 H                     41.7601   40.9324   38.4165 
 H                     38.1207   37.1158   37.9836 
 C                     38.331    36.071    37.764 
 H                     37.5818   35.7114   37.0616 
 C                     39.7297   35.918    37.1797 
 H                     39.9319   34.8648   36.9729 
 H                     40.4731   36.2611   37.9021 
 C                     39.8876   36.7108   35.8924 
 H                     39.7677   37.7805   36.0737 
 H                     39.1636   36.3875   35.1422 
 S                     41.5556   36.4342   35.1932 
 C                     41.3756   37.3132   33.618 
 H                     41.3161   38.3845   33.7881 
 H                     42.2589   37.0802   33.0332 
 H                     40.4877   36.9525   33.1064 
 H                     38.241    35.5006   38.6851 
 H                     35.4921   38.6619   34.8321 
 C                     36.5      39.053    34.953 
 H                     37.0954   38.3145   35.4867 
 C                     37.1247   39.3668   33.5999 
 H                     37.2274   38.4545   33.0077 
 H                     36.4761   40.0456   33.0427 
 C                     38.4994   39.9966   33.7535 
 H                     39.1274   39.3944   34.4075 
 H                     38.9979   40.1104   32.7926 
 S                     38.4323   41.6499   34.524 
 C                     38.2043   42.6681   33.0447 
 H                     37.2996   42.3627   32.526 
 H                     39.0722   42.5612   32.3993 
 H                     38.1175   43.6971   33.3767 
 H                     36.4531   39.9567   35.5568 
 H                     38.936    44.3943   35.7427 
 C                     39.963    44.652    35.992 
 H                     40.3133   43.9438   36.7411 
 C                     40.8452   44.6073   34.7561 
 H                     41.8834   44.7906   35.0247 
 H                     40.5322   45.3575   34.0341 
 H                     40.7829   43.6267   34.2908 
 H                     39.9686   45.6481   36.4315 
 H                     41.8972   49.2243   37.8604 
 C                     42.518    50.112    37.763 
 H                     43.0308   50.2841   38.7084 
 C                     43.5212   49.9325   36.6234 
 H                     44.1471   50.8242   36.5506 
 H                     44.1724   49.0832   36.8476 
 C                     42.8169   49.7031   35.326 
 C                     42.2236   48.5393   34.9163 
 H                     42.1832   47.5901   35.4167 
 N                     41.6362   48.6969   33.7006 
 H                     41.0661   47.9879   33.2187 
 C                     41.8211   49.9787   33.2954 
 C                     41.4111   50.6169   32.1294 
 H                     40.8461   50.0798   31.3818 
 C                     41.7535   51.941    31.9693 
 H                     41.455    52.4678   31.0738 
 C                     42.4868   52.6229   32.9466 
 H                     42.736    53.6624   32.7812 
 C                     42.8943   52.0009   34.1044 
 H                     43.4591   52.5435   34.8498 
 C                     42.5674   50.6579   34.2965 
 H                     41.8688   50.9616   37.5603 
 H                     48.941    55.6303   36.1342 
 C                     49.23     55.22     35.169 
 H                     48.5288   54.4324   34.9089 
 C                     49.2352   56.3136   34.1079 
 H                     49.9207   57.1053   34.4231 
 H                     48.2371   56.7524   34.0335 
 C                     49.6629   55.8165   32.7222 
 H                     50.6015   55.2604   32.8359 
 C                     48.6174   54.8874   32.1102 
 H                     47.6395   55.3641   32.1002 
 H                     48.8745   54.6469   31.0796 
 H                     48.547    53.9572   32.6666 
 C                     49.9094   57.0063   31.7962 
 H                     48.9965   57.5854   31.6784 
 H                     50.6817   57.6586   32.2001 
 H                     50.2214   56.6737   30.809 
 H                     50.2204   54.779    35.266 
 C                     43.2454   42.517    31.1243 
 O                     42.8751   41.4418   31.6529 
 C                     43.1282   43.7702   31.755 
 C                     43.3839   44.9579   31.126 
 C                     43.9692   44.9813   29.7408 
 C                     44.7144   43.6712   29.4767 
 C                     43.7853   42.493    29.7175 
 C                     42.9391   46.2126   31.7187 
 C                     43.7675   47.4422   31.3743 
 C                     44.0438   47.4822   29.8763 
 C                     44.8456   46.2263   29.5002 
 C                     44.8334   48.7225   29.4896 
 C                     45.2085   48.7656   28.001 
 C                     46.0953   47.5626   27.6986 
 C                     45.3639   46.2667   28.0561 
 C                     44.2019   50.0923   29.7224 
 C                     45.1064   51.0285   28.9033 
 C                     45.9243   50.1317   27.9457 
 C                     44.0052   48.7915   27.0509 
 O                     45.9902   50.7224   26.6657 
 H                     42.7217   43.7777   32.7565 
 H                     43.1161   45.0404   29.0482 
 H                     45.575    43.6024   30.147 
 H                     45.0792   43.6342   28.4504 
 H                     42.9291   42.5584   29.0359 
 H                     44.2923   41.5419   29.5345 
 H                     42.7828   46.118    32.7926 
 H                     41.9169   46.3654   31.2619 
 H                     44.7114   47.4191   31.926 
 H                     43.2305   48.3385   31.6777 
 H                     43.0815   47.472    29.3572 
 H                     45.7112   46.1686   30.1704 
 H                     45.776    48.7007   30.0507 
 H                     47.0213   47.6368   28.2736 
 H                     46.3626   47.5355   26.6394 
 H                     44.5271   46.1292   27.3685 
 H                     46.0613   45.4417   27.9026 
 H                     44.1809   50.37     30.7742 
 H                     43.1773   50.1027   29.3527 
 H                     45.7725   51.5874   29.5584 
 H                     44.5344   51.7429   28.3126 
 H                     46.9478   50.0053   28.3322 
 H                     43.5754   49.7876   27.0056 
 H                     44.3277   48.5142   26.0484 
 H                     43.2317   48.0972   27.3628 
 H                     46.2137   50.0307   26.0339 
 
 Stoichiometry    C182H311N18O24S5(1-)
 Framework group  C1[X(C182H311N18O24S5)]
 Deg. of freedom  1614
 Full point group                 C1      NOp   1
 Largest Abelian subgroup         C1      NOp   1
 Largest concise Abelian subgroup C1      NOp   1
                         Standard orientation:                         
 ---------------------------------------------------------------------
 Center     Atomic      Atomic             Coordinates (Angstroms)
 Number     Number       Type             X           Y           Z
 ---------------------------------------------------------------------
      1          1           0       -8.336914    8.149210    1.260933
      2          6           0       -8.005355    7.116952    1.391385
      3          1           0       -8.293384    6.768513    2.383305
      4          6           0       -8.642160    6.214875    0.322914
      5          1           0       -9.726755    6.231798    0.451711
      6          1           0       -8.412699    6.601765   -0.672854
      7          6           0       -8.126472    4.808466    0.446368
      8          6           0       -8.732056    3.882880    1.284622
      9          1           0       -9.623243    4.159833    1.830229
     10          6           0       -8.220629    2.606478    1.423394
     11          1           0       -8.698700    1.886337    2.069443
     12          6           0       -7.079680    2.236922    0.719441
     13          8           0       -6.571626    0.986836    0.883085
     14          1           0       -5.917020    0.802705    0.142808
     15          6           0       -6.470846    3.153692   -0.129632
     16          1           0       -5.597086    2.861760   -0.693211
     17          6           0       -6.993393    4.424144   -0.256216
     18          1           0       -6.513408    5.131549   -0.914140
     19          6           0       -6.467575    7.056855    1.333497
     20          8           0       -5.813921    6.475691    2.178742
     21          7           0       -5.888090    7.695822    0.292594
     22          1           0       -6.470863    8.188552   -0.365835
     23          6           0       -4.444079    7.786814    0.062823
     24          1           0       -3.989049    6.870413    0.438100
     25          6           0       -4.146313    8.011382   -1.420473
     26          1           0       -4.755628    8.862516   -1.754201
     27          6           0       -2.680114    8.392552   -1.606615
     28          1           0       -2.460382    8.530690   -2.662091
     29          1           0       -2.034366    7.613060   -1.219118
     30          1           0       -2.453946    9.319268   -1.082387
     31          6           0       -4.531655    6.808267   -2.291607
     32          1           0       -5.613757    6.669232   -2.245992
     33          1           0       -4.295196    7.045006   -3.330159
     34          6           0       -3.845765    5.499698   -1.923546
     35          1           0       -4.162767    4.723200   -2.614114
     36          1           0       -4.100166    5.184542   -0.915437
     37          1           0       -2.766068    5.585826   -2.003657
     38          1           0       -4.046159    8.626368    0.648190
     39          1           0       -3.433951    5.942079    4.063377
     40          6           0       -2.523403    5.349289    4.099925
     41          1           0       -2.723294    4.454266    4.683832
     42          6           0       -2.089827    4.972073    2.685070
     43          1           0       -1.900620    5.894627    2.124779
     44          6           0       -0.809674    4.141618    2.721146
     45          1           0        0.006749    4.697259    3.179935
     46          1           0       -0.976129    3.241011    3.303110
     47          1           0       -0.509006    3.845211    1.718492
     48          6           0       -3.199710    4.201734    1.976309
     49          1           0       -2.897867    3.944272    0.962660
     50          1           0       -4.108664    4.796325    1.934974
     51          1           0       -3.422765    3.284001    2.516318
     52          1           0       -1.747991    5.924694    4.602848
     53          1           0       -8.607942    4.218198    7.318534
     54          6           0       -8.929084    3.327587    6.782215
     55          1           0       -9.809932    3.581119    6.195277
     56          6           0       -7.817675    2.812873    5.870060
     57          1           0       -6.936950    2.592006    6.484930
     58          6           0       -8.263445    1.523307    5.185751
     59          1           0       -9.153623    1.704861    4.586529
     60          1           0       -8.496213    0.757212    5.923688
     61          1           0       -7.479354    1.138289    4.540790
     62          6           0       -7.439274    3.893902    4.852104
     63          1           0       -8.252579    4.010206    4.133437
     64          1           0       -7.326364    4.844524    5.379381
     65          6           0       -6.147820    3.607689    4.099696
     66          1           0       -5.912692    4.447234    3.451891
     67          1           0       -5.324591    3.462645    4.796533
     68          1           0       -6.241818    2.719459    3.481841
     69          1           0       -9.211081    2.571239    7.512617
     70          1           0      -13.663118    0.885292    4.527697
     71          6           0      -14.470225    0.176786    4.357674
     72          1           0      -14.798609    0.276920    3.325358
     73          6           0      -13.990167   -1.250262    4.622360
     74          1           0      -13.672639   -1.335148    5.664762
     75          1           0      -14.814144   -1.947929    4.459868
     76          6           0      -12.844546   -1.584329    3.709994
     77          6           0      -11.580324   -1.070465    3.964354
     78          1           0      -11.415714   -0.468881    4.847616
     79          6           0      -10.526069   -1.315088    3.108244
     80          1           0       -9.552682   -0.900124    3.319346
     81          6           0      -10.712745   -2.096135    1.971111
     82          8           0       -9.706230   -2.372731    1.110271
     83          1           0       -8.873054   -2.004962    1.455141
     84          6           0      -11.978592   -2.613254    1.707904
     85          1           0      -12.119358   -3.217946    0.825269
     86          6           0      -13.026991   -2.352584    2.568164
     87          1           0      -14.004694   -2.759048    2.349657
     88          1           0      -15.301036    0.432788    5.012675
     89          1           0       -5.449825   -7.531385   -2.723117
     90          6           0       -4.424669   -7.170955   -2.846110
     91          1           0       -4.347921   -6.612250   -3.775909
     92          6           0       -4.062587   -6.264105   -1.666709
     93          1           0       -3.753654   -6.862670   -0.808153
     94          1           0       -4.924082   -5.664728   -1.358489
     95          6           0       -2.938948   -5.265281   -2.021552
     96          8           0       -2.687398   -5.093872   -3.227493
     97          8           0       -2.392827   -4.668535   -1.072595
     98          6           0       -3.524991   -8.394733   -2.824473
     99          8           0       -3.573015   -9.198875   -1.902225
    100          7           0       -2.672257   -8.584041   -3.847429
    101          6           0       -1.768153   -9.723410   -3.834464
    102          1           0       -0.996860   -9.571034   -3.070523
    103          1           0       -2.320128  -10.631298   -3.578613
    104          6           0       -1.164722   -9.742701   -5.233894
    105          1           0       -0.174425  -10.193437   -5.250159
    106          1           0       -1.813387  -10.294434   -5.917001
    107          6           0       -1.148154   -8.260976   -5.602761
    108          1           0       -1.080265   -8.087241   -6.675032
    109          1           0       -0.307643   -7.764526   -5.117210
    110          6           0       -2.464323   -7.753989   -5.018321
    111          1           0       -2.413237   -6.699303   -4.741871
    112          1           0       -3.287239   -7.898956   -5.731784
    113          1           0       -4.532256   -6.819498    7.798009
    114          6           0       -4.022982   -6.757932    6.833909
    115          1           0       -3.315318   -7.581297    6.754799
    116          6           0       -5.044208   -6.827316    5.682321
    117          1           0       -5.900601   -6.184856    5.901937
    118          1           0       -5.409845   -7.853313    5.605997
    119          6           0       -4.423198   -6.401378    4.375279
    120          6           0       -3.589032   -7.262283    3.673154
    121          1           0       -3.417988   -8.260154    4.053409
    122          6           0       -3.002150   -6.863668    2.484476
    123          1           0       -2.370137   -7.550517    1.941407
    124          6           0       -3.235300   -5.595016    1.977493
    125          1           0       -2.795812   -5.286143    1.038977
    126          6           0       -4.067848   -4.734200    2.672359
    127          1           0       -4.271989   -3.746821    2.284011
    128          6           0       -4.656977   -5.133480    3.859501
    129          1           0       -5.319902   -4.452422    4.375361
    130          6           0       -3.224643   -5.447987    6.761203
    131          8           0       -2.007972   -5.455075    6.608282
    132          7           0       -3.925579   -4.309582    6.903480
    133          1           0       -4.931193   -4.371146    6.929063
    134          6           0       -3.377410   -2.949369    6.840664
    135          1           0       -2.880698   -2.810164    5.874585
    136          6           0       -4.480106   -1.909021    7.026922
    137          1           0       -5.127504   -2.212520    7.852878
    138          1           0       -4.008010   -0.963650    7.300719
    139          6           0       -5.279822   -1.711762    5.767135
    140          6           0       -6.448904   -2.419226    5.520253
    141          1           0       -6.836383   -3.102979    6.264751
    142          6           0       -7.151988   -2.249960    4.342337
    143          1           0       -8.055592   -2.809029    4.154828
    144          6           0       -6.701671   -1.341567    3.387670
    145          8           0       -7.423772   -1.172635    2.255357
    146          1           0       -7.091840   -0.402611    1.738031
    147          6           0       -5.537069   -0.620268    3.631667
    148          1           0       -5.200195    0.100783    2.901628
    149          6           0       -4.833787   -0.817296    4.802233
    150          1           0       -3.927980   -0.256425    4.977102
    151          1           0       -2.622368   -2.859142    7.629579
    152          1           0       -0.218614   -5.487685    8.899603
    153          6           0        0.818777   -5.736599    8.668911
    154          1           0        1.390837   -5.772873    9.593041
    155          6           0        0.879927   -7.058343    7.894977
    156          1           0        1.810747   -7.579257    8.120188
    157          1           0        0.886177   -6.840689    6.825366
    158          6           0       -0.311362   -7.976252    8.194471
    159          1           0       -0.137008   -8.564602    9.094469
    160          1           0       -1.210474   -7.373417    8.333227
    161          6           0       -0.550482   -8.915091    7.020042
    162          8           0       -0.335548  -10.106721    7.050696
    163          7           0       -1.028984   -8.275545    5.931972
    164          1           0       -1.230980   -7.285375    5.945383
    165          1           0       -1.165789   -8.786993    5.076197
    166          6           0        1.386636   -4.580602    7.802948
    167          8           0        2.352630   -3.924226    8.156174
    168          7           0        0.720337   -4.323486    6.647427
    169          1           0       -0.147830   -4.826691    6.500167
    170          6           0        1.250564   -3.627022    5.464353
    171          1           0        0.458654   -3.613821    4.713970
    172          1           0        2.101088   -4.183051    5.055737
    173          6           0        1.739301   -2.178720    5.634798
    174          8           0        2.538462   -1.717449    4.844381
    175          7           0        1.191817   -1.457628    6.630863
    176          1           0        0.528117   -1.905059    7.244618
    177          6           0        1.528401   -0.069266    6.918203
    178          1           0        2.266181    0.245002    6.178313
    179          6           0        0.278777    0.814264    6.874774
    180          1           0       -0.356015    0.559423    7.728832
    181          1           0        0.604437    1.846486    7.007342
    182          6           0       -0.538297    0.684830    5.587270
    183          1           0       -0.916203   -0.342027    5.509523
    184          6           0       -1.731780    1.636370    5.659193
    185          1           0       -2.339022    1.562978    4.759069
    186          1           0       -2.360280    1.408502    6.518480
    187          1           0       -1.385609    2.662835    5.757426
    188          6           0        0.312094    0.978502    4.356646
    189          1           0        0.797314    1.946914    4.449722
    190          1           0        1.074332    0.218365    4.217126
    191          1           0       -0.312500    0.988556    3.466919
    192          6           0        2.150818    0.084319    8.338056
    193          8           0        2.291622    1.193993    8.818381
    194          7           0        2.443582   -1.048253    9.007193
    195          1           0        2.441513   -1.948974    8.538130
    196          6           0        2.949672   -1.056333   10.374384
    197          1           0        2.941275   -0.030698   10.738739
    198          1           0        2.307772   -1.680769   10.995635
    199          1           0        3.966187   -1.448813   10.399818
    200          1           0        5.506445    3.580369    5.211724
    201          6           0        5.147893    3.678504    4.186820
    202          1           0        5.945622    3.445366    3.482948
    203          6           0        3.972985    2.708829    3.965725
    204          1           0        3.134052    3.038170    4.590244
    205          6           0        3.539012    2.682604    2.504041
    206          1           0        3.165215    3.649738    2.178412
    207          1           0        4.375199    2.404081    1.866853
    208          1           0        2.749227    1.949513    2.363817
    209          6           0        4.398839    1.311910    4.411937
    210          1           0        5.252755    0.977089    3.828428
    211          1           0        4.673043    1.305747    5.465072
    212          1           0        3.595963    0.595596    4.261044
    213          6           0        4.745681    5.136149    3.987857
    214          8           0        4.383304    5.825844    4.958588
    215          7           0        4.829607    5.642462    2.756590
    216          1           0        5.199542    5.046566    2.014036
    217          6           0        4.328711    6.946678    2.302623
    218          1           0        3.691370    7.353273    3.093708
    219          6           0        5.457053    7.915485    1.913882
    220          1           0        5.141016    8.934216    2.147983
    221          1           0        5.651883    7.888168    0.833922
    222          6           0        6.815145    7.622572    2.546290
    223          1           0        7.525292    8.279489    2.042468
    224          1           0        7.108547    6.597674    2.322137
    225          6           0        6.887484    7.808937    4.063110
    226          1           0        6.329600    7.037616    4.587206
    227          1           0        7.930208    7.748448    4.385489
    228          7           0        6.384422    9.107862    4.471264
    229          1           0        6.892666    9.884614    4.071519
    230          6           0        5.168534    9.363006    4.947003
    231          7           0        4.320054    8.420944    5.315287
    232          1           0        4.423651    7.377378    5.140624
    233          1           0        3.452986    8.698515    5.742260
    234          7           0        4.807573   10.664955    5.074909
    235          1           0        5.481819   11.393523    4.920740
    236          1           0        3.981639   10.907395    5.592551
    237          6           0        3.475207    6.623977    1.055524
    238          8           0        3.721457    5.644245    0.383575
    239          7           0        2.462130    7.462864    0.773793
    240          1           0        2.282824    8.256073    1.367102
    241          6           0        1.524351    7.214581   -0.316981
    242          1           0        2.000937    6.485687   -0.973850
    243          6           0        0.207730    6.664094    0.210397
    244          1           0       -0.404323    6.316980   -0.616612
    245          1           0       -0.340592    7.423165    0.764643
    246          1           0        0.398494    5.820646    0.866945
    247          1           0        1.371336    8.144744   -0.868611
    248          1           0       -7.894583    5.440391   -9.030064
    249          6           0       -6.906969    5.859970   -8.850501
    250          1           0       -6.784378    6.736528   -9.481963
    251          6           0       -6.745117    6.236159   -7.381538
    252          1           0       -7.490208    6.985941   -7.106797
    253          1           0       -5.758988    6.676014   -7.217482
    254          6           0       -6.904997    5.026057   -6.476609
    255          1           0       -6.133101    4.282072   -6.680732
    256          1           0       -7.889771    4.571679   -6.603102
    257         16           0       -6.748872    5.507487   -4.720679
    258          6           0       -7.010745    3.876293   -3.979922
    259          1           0       -7.983078    3.500124   -4.285380
    260          1           0       -6.212440    3.206638   -4.285170
    261          1           0       -6.994095    4.002382   -2.903485
    262          1           0       -6.163380    5.120112   -9.139285
    263          1           0       -1.513498    5.665452   -7.703161
    264          6           0       -0.821239    6.171752   -7.034473
    265          1           0       -0.517771    7.110688   -7.493348
    266          6           0       -1.477046    6.421396   -5.674992
    267          1           0       -0.770975    6.939895   -5.022629
    268          1           0       -2.351659    7.063846   -5.810401
    269          6           0       -1.897210    5.121125   -5.049415
    270          6           0       -1.152765    4.534058   -4.036204
    271          1           0       -0.265605    5.034768   -3.669809
    272          6           0       -1.534727    3.318062   -3.493500
    273          1           0       -0.951529    2.871209   -2.701471
    274          6           0       -2.657275    2.667792   -3.970542
    275          1           0       -2.964332    1.718055   -3.563094
    276          6           0       -3.393228    3.237268   -4.995838
    277          1           0       -4.244561    2.701942   -5.385935
    278          6           0       -3.022398    4.458142   -5.523953
    279          1           0       -3.604746    4.907697   -6.316495
    280          1           0        0.058370    5.542843   -6.916405
    281          1           0        3.340346    3.812727   -3.318375
    282          6           0        3.684447    3.887277   -2.287496
    283          1           0        3.440761    4.866990   -1.882278
    284          6           0        3.044995    2.785185   -1.427356
    285          1           0        3.662301    2.644304   -0.534453
    286          6           0        1.646756    3.195656   -0.976660
    287          1           0        1.027277    3.441480   -1.836296
    288          1           0        1.707247    4.063560   -0.326385
    289          1           0        1.174929    2.384545   -0.425331
    290          6           0        3.007705    1.474473   -2.202351
    291          1           0        2.342334    1.553132   -3.061170
    292          1           0        2.664068    0.661418   -1.567902
    293          1           0        4.005210    1.231697   -2.555817
    294          6           0        5.213271    3.711946   -2.266678
    295          8           0        5.807806    3.054668   -3.107049
    296          7           0        5.837220    4.305041   -1.227886
    297          1           0        5.271973    4.807578   -0.555268
    298          6           0        7.271080    4.295299   -0.962337
    299          1           0        7.756668    3.759373   -1.780039
    300          6           0        7.803064    5.736884   -0.812364
    301          1           0        8.880565    5.694142   -0.631959
    302          1           0        7.329846    6.171726    0.072874
    303          6           0        7.509705    6.669912   -1.972783
    304          1           0        6.479744    6.539307   -2.312936
    305          1           0        8.182181    6.506228   -2.814301
    306          6           0        7.648407    8.176380   -1.484136
    307          8           0        7.049424    8.446280   -0.424851
    308          8           0        8.322089    8.920408   -2.192735
    309          6           0        7.520493    3.641925    0.403054
    310          8           0        6.808942    3.907106    1.365205
    311          7           0        8.594306    2.831941    0.506942
    312          1           0        9.245815    2.745342   -0.260566
    313          6           0        8.981071    2.142260    1.730008
    314          1           0        9.158019    2.889262    2.520291
    315          6           0        7.866260    1.196286    2.201923
    316          1           0        6.985363    1.810178    2.396037
    317          1           0        8.156407    0.738071    3.150384
    318          6           0        7.481381    0.122039    1.185622
    319          1           0        8.334803   -0.215364    0.600503
    320          1           0        7.043492   -0.738533    1.690966
    321         16           0        6.207980    0.744860    0.011982
    322          6           0        7.063477    0.543208   -1.569944
    323          1           0        8.092820    0.861478   -1.445495
    324          1           0        7.011993   -0.496870   -1.883128
    325          1           0        6.566065    1.183906   -2.293203
    326          6           0       10.358711    1.453590    1.481072
    327          8           0       11.138391    1.943890    0.686302
    328          7           0       10.655804    0.378843    2.244921
    329          1           0        9.915175   -0.120536    2.715631
    330          6           0       11.922161   -0.354461    2.238774
    331          1           0       12.596869    0.176528    1.560985
    332          6           0       12.502588   -0.400773    3.663615
    333          1           0       11.776366   -0.919846    4.298886
    334          6           0       13.819579   -1.171876    3.692044
    335          1           0       14.548431   -0.706331    3.031197
    336          1           0       14.226529   -1.170658    4.700677
    337          1           0       13.674565   -2.204037    3.384831
    338          6           0       12.707546    1.016594    4.193449
    339          1           0       13.415235    1.554736    3.566546
    340          1           0       11.770534    1.566992    4.199098
    341          1           0       13.096767    0.986454    5.208353
    342          6           0       11.634125   -1.792485    1.726639
    343          8           0       10.596005   -2.344386    2.025698
    344          7           0       12.613678   -2.374071    0.999787
    345          1           0       13.404485   -1.811173    0.726873
    346          6           0       12.511819   -3.686515    0.355962
    347          1           0       11.557811   -4.107973    0.675142
    348          6           0       12.554886   -3.551560   -1.173381
    349          1           0       12.180299   -2.555264   -1.424991
    350          1           0       13.580889   -3.635860   -1.536837
    351          6           0       11.688296   -4.558634   -1.852109
    352          6           0       12.059444   -5.546426   -2.714042
    353          1           0       13.040632   -5.816405   -3.057085
    354          7           0       10.953267   -6.221111   -3.161882
    355          1           0       10.961069   -6.993148   -3.805672
    356          6           0        9.839036   -5.676439   -2.587812
    357          6           0        8.495999   -6.002223   -2.730610
    358          1           0        8.183106   -6.804362   -3.383868
    359          6           0        7.581488   -5.269368   -2.005532
    360          1           0        6.529685   -5.496052   -2.093507
    361          6           0        7.987368   -4.239638   -1.150940
    362          1           0        7.243440   -3.709372   -0.576963
    363          6           0        9.315297   -3.905257   -1.013589
    364          1           0        9.614921   -3.114757   -0.342314
    365          6           0       10.262940   -4.623916   -1.744490
    366          1           0       13.323283   -4.322533    0.720166
    367          1           0       12.902304    0.852410   -2.759583
    368          6           0       11.999005    1.458660   -2.793285
    369          1           0       12.094276    2.187606   -3.594895
    370          6           0       10.783730    0.585246   -3.030096
    371          1           0        9.880742    1.183789   -3.154652
    372          1           0       10.917384   -0.056273   -3.899925
    373         16           0       10.527216   -0.513740   -1.579102
    374          1           0        9.634269   -1.314844   -2.160862
    375          1           0       11.905000    1.986290   -1.845251
    376          1           0        6.381644    1.486900   -5.416273
    377          6           0        5.819961    0.766603   -6.005909
    378          1           0        6.491012    0.309998   -6.731107
    379          6           0        5.194519   -0.274074   -5.085313
    380          1           0        4.706471    0.255245   -4.266959
    381          1           0        5.977727   -0.899827   -4.648776
    382          6           0        4.154062   -1.170468   -5.763316
    383          1           0        3.424687   -0.529300   -6.271932
    384          6           0        4.787017   -2.095352   -6.798950
    385          1           0        5.275198   -1.528436   -7.588222
    386          1           0        5.519815   -2.747319   -6.326518
    387          1           0        4.022797   -2.722642   -7.251024
    388          6           0        3.417768   -1.996418   -4.711304
    389          1           0        2.961719   -1.347374   -3.967876
    390          1           0        4.111275   -2.664587   -4.204333
    391          1           0        2.636338   -2.599145   -5.166545
    392          1           0        5.044646    1.306191   -6.545450
    393          1           0        0.708325    1.230366   -7.620297
    394          6           0       -0.270269    0.801008   -7.825941
    395          1           0       -0.127670   -0.218073   -8.181478
    396          6           0       -1.137745    0.809026   -6.570371
    397          1           0       -1.275751    1.848468   -6.251939
    398          6           0       -2.509773    0.211669   -6.869619
    399          1           0       -3.155327    0.277470   -5.997782
    400          1           0       -2.987556    0.746741   -7.689013
    401          1           0       -2.412299   -0.834060   -7.157218
    402          6           0       -0.454154    0.046016   -5.438633
    403          1           0       -1.073324    0.065318   -4.545349
    404          1           0        0.507376    0.496323   -5.199524
    405          1           0       -0.282851   -0.991233   -5.720162
    406          1           0       -0.737636    1.378541   -8.621434
    407          1           0       -6.516743    1.791919   -6.683239
    408          6           0       -6.728870    0.725137   -6.698403
    409          1           0       -5.806940    0.198786   -6.931194
    410          6           0       -7.259021    0.266946   -5.347695
    411          1           0       -8.132887    0.848758   -5.047818
    412          1           0       -7.553977   -0.785605   -5.384281
    413          6           0       -6.213468    0.382686   -4.260980
    414          8           0       -5.046587    0.609386   -4.458576
    415          8           0       -6.723286    0.205981   -3.052026
    416          1           0       -6.005474    0.253476   -2.354358
    417          1           0       -7.457601    0.527617   -7.480931
    418          1           0      -12.487568   -0.213544   -6.014921
    419          6           0      -13.128208    0.543655   -5.567388
    420          1           0      -13.702252    0.077881   -4.768948
    421          6           0      -12.294290    1.697297   -5.024370
    422          1           0      -12.948977    2.454228   -4.586968
    423          1           0      -11.740754    2.170142   -5.838150
    424          6           0      -11.311132    1.226286   -3.965052
    425          1           0      -10.589446    0.523250   -4.385068
    426          1           0      -11.831881    0.754565   -3.129709
    427         16           0      -10.389300    2.656845   -3.293233
    428          6           0       -9.478168    1.833536   -1.959705
    429          1           0       -8.717075    1.176983   -2.371815
    430          1           0       -9.011656    2.619288   -1.375361
    431          1           0      -10.175782    1.276752   -1.340406
    432          1           0      -13.820502    0.900994   -6.325622
    433          1           0      -12.173754   -3.561358   -3.199681
    434          6           0      -11.298402   -2.966619   -3.451640
    435          1           0      -11.632942   -2.000065   -3.823896
    436          6           0      -10.396930   -2.788881   -2.236996
    437          1           0      -10.919180   -2.234634   -1.453667
    438          1           0      -10.135306   -3.765776   -1.825716
    439          6           0       -9.125729   -2.035234   -2.592107
    440          1           0       -9.360602   -1.109593   -3.114381
    441          1           0       -8.537780   -1.801108   -1.706510
    442         16           0       -8.044458   -2.975528   -3.722715
    443          6           0       -7.073971   -3.908834   -2.512699
    444          1           0       -7.737057   -4.512211   -1.898651
    445          1           0       -6.505716   -3.215536   -1.898171
    446          1           0       -6.396325   -4.545705   -3.071081
    447          1           0      -10.752242   -3.469737   -4.246642
    448          1           0       -5.872384   -4.047860   -5.567403
    449          6           0       -5.116663   -3.346340   -5.913876
    450          1           0       -5.618637   -2.572181   -6.491898
    451          6           0       -4.366125   -2.739579   -4.740737
    452          1           0       -3.665685   -1.983527   -5.089123
    453          1           0       -3.815174   -3.505461   -4.200430
    454          1           0       -5.066168   -2.264875   -4.057686
    455          1           0       -4.432685   -3.878414   -6.573025
    456          1           0       -0.814725   -4.268926   -8.877006
    457          6           0        0.263577   -4.298781   -9.015801
    458          1           0        0.500228   -3.888161   -9.996490
    459          6           0        0.960587   -3.505798   -7.910056
    460          1           0        2.039792   -3.531320   -8.073902
    461          1           0        0.638771   -2.461886   -7.958222
    462          6           0        0.640753   -4.073726   -6.565781
    463          6           0       -0.528055   -3.913255   -5.871211
    464          1           0       -1.395926   -3.338444   -6.134656
    465          7           0       -0.495262   -4.604911   -4.701451
    466          1           0       -1.281566   -4.699265   -4.043616
    467          6           0        0.696446   -5.248027   -4.614160
    468          6           0        1.197243   -6.072817   -3.612223
    469          1           0        0.604000   -6.291336   -2.736483
    470          6           0        2.463050   -6.588369   -3.779700
    471          1           0        2.885859   -7.230071   -3.019441
    472          6           0        3.219714   -6.295145   -4.919573
    473          1           0        4.210274   -6.719804   -5.011625
    474          6           0        2.731767   -5.482695   -5.917208
    475          1           0        3.329633   -5.267783   -6.792081
    476          6           0        1.453656   -4.940280   -5.777089
    477          1           0        0.582242   -5.339014   -8.988680
    478          1           0        8.703128   -2.528727   -8.994891
    479          6           0        8.760605   -2.157112   -7.974069
    480          1           0        7.788422   -2.287805   -7.507778
    481          6           0        9.838978   -2.903236   -7.197968
    482          1           0       10.793337   -2.781816   -7.718070
    483          1           0        9.604452   -3.970526   -7.184820
    484          6           0       10.000530   -2.413200   -5.754373
    485          1           0       10.100303   -1.321078   -5.775829
    486          6           0        8.789187   -2.774874   -4.898405
    487          1           0        8.582395   -3.841351   -4.957520
    488          1           0        8.973610   -2.535043   -3.852199
    489          1           0        7.906407   -2.229459   -5.219388
    490          6           0       11.267907   -3.007353   -5.142327
    491          1           0       11.202103   -4.092677   -5.123349
    492          1           0       12.146517   -2.725327   -5.719894
    493          1           0       11.404064   -2.664968   -4.119212
    494          1           0        8.984058   -1.092370   -8.008330
    495          6           0       -3.796744    0.034317   -0.829011
    496          8           0       -4.963968    0.420363   -1.076301
    497          6           0       -3.026359   -0.726918   -1.728487
    498          6           0       -1.818273   -1.281425   -1.404904
    499          6           0       -1.158987   -0.968921   -0.089766
    500          6           0       -1.679433    0.369071    0.439711
    501          6           0       -3.196600    0.335760    0.520104
    502          6           0       -1.232732   -2.311046   -2.253688
    503          6           0        0.286731   -2.399620   -2.241053
    504          6           0        0.799820   -2.357180   -0.806868
    505          6           0        0.378824   -1.017046   -0.183634
    506          6           0        2.313600   -2.487642   -0.753954
    507          6           0        2.885634   -2.366553    0.666117
    508          6           0        2.540442   -0.981277    1.201768
    509          6           0        1.024142   -0.774533    1.187659
    510          6           0        2.954450   -3.772346   -1.271821
    511          6           0        4.391872   -3.677707   -0.732957
    512          6           0        4.383028   -2.595336    0.370947
    513          6           0        2.394760   -3.448924    1.635038
    514          8           0        5.153083   -3.021415    1.474189
    515          1           0       -3.474170   -0.953725   -2.685735
    516          1           0       -1.471305   -1.762094    0.606152
    517          1           0       -1.365472    1.171620   -0.232607
    518          1           0       -1.273981    0.576993    1.429720
    519          1           0       -3.508195   -0.462441    1.204002
    520          1           0       -3.596426    1.280672    0.897475
    521          1           0       -1.627038   -2.269313   -3.268292
    522          1           0       -1.622525   -3.270418   -1.801390
    523          1           0        0.710758   -1.569169   -2.812372
    524          1           0        0.600617   -3.324047   -2.721349
    525          1           0        0.332089   -3.179556   -0.258676
    526          1           0        0.704394   -0.216976   -0.858654
    527          1           0        2.735869   -1.658015   -1.334654
    528          1           0        3.024523   -0.219689    0.585929
    529          1           0        2.902816   -0.861015    2.225638
    530          1           0        0.567645   -1.439107    1.923788
    531          1           0        0.828838    0.252890    1.498804
    532          1           0        2.934305   -3.841784   -2.357461
    533          1           0        2.434071   -4.641283   -0.870891
    534          1           0        5.081607   -3.400265   -1.528259
    535          1           0        4.733660   -4.617297   -0.300719
    536          1           0        4.809044   -1.657697   -0.019252
    537          1           0        2.923804   -4.381888    1.465671
    538          1           0        2.583362   -3.132028    2.659691
    539          1           0        1.330700   -3.632601    1.526988
    540          1           0        4.882239   -2.503122    2.239427
 ---------------------------------------------------------------------
 Rotational constants (GHZ):           0.0038765           0.0024726           0.0023761
 Standard basis: 6-31G(d) (6D, 7F)
 There are  4077 symmetry adapted cartesian basis functions of A   symmetry.
 There are  4077 symmetry adapted basis functions of A   symmetry.
  4077 basis functions,  7776 primitive gaussians,  4077 cartesian basis functions
   901 alpha electrons      901 beta electrons
       nuclear repulsion energy     90733.6523688601 Hartrees.
 NAtoms=  540 NActive=  540 NUniq=  540 SFac= 1.00D+00 NAtFMM=   60 NAOKFM=T Big=T
 Integral buffers will be    131072 words long.
 Raffenetti 2 integral format.
 Two-electron integral symmetry is turned on.
 Nuclear repulsion after empirical dispersion term =    90732.9647593763 Hartrees.
 One-electron integrals computed using PRISM.
 NBasis=  4077 RedAO= T EigKep=  3.25D-04  NBF=  4077
 NBsUse=  4077 1.00D-06 EigRej= -1.00D+00 NBFU=  4077
 ExpMin= 1.17D-01 ExpMax= 2.19D+04 ExpMxC= 3.30D+03 IAcc=3 IRadAn=         5 AccDes= 0.00D+00
 Harris functional with IExCor= 4639 and IRadAn=       5 diagonalized for initial guess.
 HarFok:  IExCor= 4639 AccDes= 0.00D+00 IRadAn=         5 IDoV= 1 UseB2=F ITyADJ=14
 ICtDFT=  3500011 ScaDFX=  1.000000  1.000000  1.000000  1.000000
 FoFCou: FMM=F IPFlag=           0 FMFlag=      100000 FMFlg1=        2001
         NFxFlg=           0 DoJE=T BraDBF=F KetDBF=T FulRan=T
         wScrn=  0.000000 ICntrl=       500 IOpCl=  0 I1Cent=   200000004 NGrid=           0
         NMat0=    1 NMatS0=      1 NMatT0=    0 NMatD0=    1 NMtDS0=    0 NMtDT0=    0
 Petite list used in FoFCou.
 Requested convergence on RMS density matrix=1.00D-08 within 128 cycles.
 Requested convergence on MAX density matrix=1.00D-06.
 Requested convergence on             energy=1.00D-06.
 No special actions if energy rises.
 Integral accuracy reduced to 1.0D-05 until final iterations.
 Initial convergence to 1.0D-05 achieved.  Increase integral accuracy.
 SCF Done:  E(RwB97XD) =  -11902.2843529     A.U. after   16 cycles
            NFock= 16  Conv=0.11D-08     -V/T= 2.0080
 Hyperfine terms turned off by default for NAtoms > 100.

 **********************************************************************

            Population analysis using the SCF Density.

 **********************************************************************

 Orbital symmetries:
       Occupied  (A) (A) (A) (A) (A) (A) (A) (A) (A) (A) (A) (A)
                 (A) (A) (A) (A) (A) (A) (A) (A) (A) (A) (A) (A)
                 (A) (A) (A) (A) (A) (A) (A) (A) (A) (A) (A) (A)
                 (A) (A) (A) (A) (A) (A) (A) (A) (A) (A) (A) (A)
                 (A) (A) (A) (A) (A) (A) (A) (A) (A) (A) (A) (A)
                 (A) (A) (A) (A) (A) (A) (A) (A) (A) (A) (A) (A)
                 (A) (A) (A) (A) (A) (A) (A) (A) (A) (A) (A) (A)
                 (A) (A) (A) (A) (A) (A) (A) (A) (A) (A) (A) (A)
                 (A) (A) (A) (A) (A) (A) (A) (A) (A) (A) (A) (A)
                 (A) (A) (A) (A) (A) (A) (A) (A) (A) (A) (A) (A)
                 (A) (A) (A) (A) (A) (A) (A) (A) (A) (A) (A) (A)
                 (A) (A) (A) (A) (A) (A) (A) (A) (A) (A) (A) (A)
                 (A) (A) (A) (A) (A) (A) (A) (A) (A) (A) (A) (A)
                 (A) (A) (A) (A) (A) (A) (A) (A) (A) (A) (A) (A)
                 (A) (A) (A) (A) (A) (A) (A) (A) (A) (A) (A) (A)
                 (A) (A) (A) (A) (A) (A) (A) (A) (A) (A) (A) (A)
                 (A) (A) (A) (A) (A) (A) (A) (A) (A) (A) (A) (A)
                 (A) (A) (A) (A) (A) (A) (A) (A) (A) (A) (A) (A)
                 (A) (A) (A) (A) (A) (A) (A) (A) (A) (A) (A) (A)
                 (A) (A) (A) (A) (A) (A) (A) (A) (A) (A) (A) (A)
                 (A) (A) (A) (A) (A) (A) (A) (A) (A) (A) (A) (A)
                 (A) (A) (A) (A) (A) (A) (A) (A) (A) (A) (A) (A)
                 (A) (A) (A) (A) (A) (A) (A) (A) (A) (A) (A) (A)
                 (A) (A) (A) (A) (A) (A) (A) (A) (A) (A) (A) (A)
                 (A) (A) (A) (A) (A) (A) (A) (A) (A) (A) (A) (A)
                 (A) (A) (A) (A) (A) (A) (A) (A) (A) (A) (A) (A)
                 (A) (A) (A) (A) (A) (A) (A) (A) (A) (A) (A) (A)
                 (A) (A) (A) (A) (A) (A) (A) (A) (A) (A) (A) (A)
                 (A) (A) (A) (A) (A) (A) (A) (A) (A) (A) (A) (A)
                 (A) (A) (A) (A) (A) (A) (A) (A) (A) (A) (A) (A)
                 (A) (A) (A) (A) (A) (A) (A) (A) (A) (A) (A) (A)
                 (A) (A) (A) (A) (A) (A) (A) (A) (A) (A) (A) (A)
                 (A) (A) (A) (A) (A) (A) (A) (A) (A) (A) (A) (A)
                 (A) (A) (A) (A) (A) (A) (A) (A) (A) (A) (A) (A)
                 (A) (A) (A) (A) (A) (A) (A) (A) (A) (A) (A) (A)
                 (A) (A) (A) (A) (A) (A) (A) (A) (A) (A) (A) (A)
                 (A) (A) (A) (A) (A) (A) (A) (A) (A) (A) (A) (A)
                 (A) (A) (A) (A) (A) (A) (A) (A) (A) (A) (A) (A)
                 (A) (A) (A) (A) (A) (A) (A) (A) (A) (A) (A) (A)
                 (A) (A) (A) (A) (A) (A) (A) (A) (A) (A) (A) (A)
                 (A) (A) (A) (A) (A) (A) (A) (A) (A) (A) (A) (A)
                 (A) (A) (A) (A) (A) (A) (A) (A) (A) (A) (A) (A)
                 (A) (A) (A) (A) (A) (A) (A) (A) (A) (A) (A) (A)
                 (A) (A) (A) (A) (A) (A) (A) (A) (A) (A) (A) (A)
                 (A) (A) (A) (A) (A) (A) (A) (A) (A) (A) (A) (A)
                 (A) (A) (A) (A) (A) (A) (A) (A) (A) (A) (A) (A)
                 (A) (A) (A) (A) (A) (A) (A) (A) (A) (A) (A) (A)
                 (A) (A) (A) (A) (A) (A) (A) (A) (A) (A) (A) (A)
                 (A) (A) (A) (A) (A) (A) (A) (A) (A) (A) (A) (A)
                 (A) (A) (A) (A) (A) (A) (A) (A) (A) (A) (A) (A)
                 (A) (A) (A) (A) (A) (A) (A) (A) (A) (A) (A) (A)
                 (A) (A) (A) (A) (A) (A) (A) (A) (A) (A) (A) (A)
                 (A) (A) (A) (A) (A) (A) (A) (A) (A) (A) (A) (A)
                 (A) (A) (A) (A) (A) (A) (A) (A) (A) (A) (A) (A)
                 (A) (A) (A) (A) (A) (A) (A) (A) (A) (A) (A) (A)
                 (A) (A) (A) (A) (A) (A) (A) (A) (A) (A) (A) (A)
                 (A) (A) (A) (A) (A) (A) (A) (A) (A) (A) (A) (A)
                 (A) (A) (A) (A) (A) (A) (A) (A) (A) (A) (A) (A)
                 (A) (A) (A) (A) (A) (A) (A) (A) (A) (A) (A) (A)
                 (A) (A) (A) (A) (A) (A) (A) (A) (A) (A) (A) (A)
                 (A) (A) (A) (A) (A) (A) (A) (A) (A) (A) (A) (A)
                 (A) (A) (A) (A) (A) (A) (A) (A) (A) (A) (A) (A)
                 (A) (A) (A) (A) (A) (A) (A) (A) (A) (A) (A) (A)
                 (A) (A) (A) (A) (A) (A) (A) (A) (A) (A) (A) (A)
                 (A) (A) (A) (A) (A) (A) (A) (A) (A) (A) (A) (A)
                 (A) (A) (A) (A) (A) (A) (A) (A) (A) (A) (A) (A)
                 (A) (A) (A) (A) (A) (A) (A) (A) (A) (A) (A) (A)
                 (A) (A) (A) (A) (A) (A) (A) (A) (A) (A) (A) (A)
                 (A) (A) (A) (A) (A) (A) (A) (A) (A) (A) (A) (A)
                 (A) (A) (A) (A) (A) (A) (A) (A) (A) (A) (A) (A)
                 (A) (A) (A) (A) (A) (A) (A) (A) (A) (A) (A) (A)
                 (A) (A) (A) (A) (A) (A) (A) (A) (A) (A) (A) (A)
                 (A) (A) (A) (A) (A) (A) (A) (A) (A) (A) (A) (A)
                 (A) (A) (A) (A) (A) (A) (A) (A) (A) (A) (A) (A)
                 (A) (A) (A) (A) (A) (A) (A) (A) (A) (A) (A) (A)
                 (A)
       Virtual   (A) (A) (A) (A) (A) (A) (A) (A) (A) (A) (A) (A)
                 (A) (A) (A) (A) (A) (A) (A) (A) (A) (A) (A) (A)
                 (A) (A) (A) (A) (A) (A) (A) (A) (A) (A) (A) (A)
                 (A) (A) (A) (A) (A) (A) (A) (A) (A) (A) (A) (A)
                 (A) (A) (A) (A) (A) (A) (A) (A) (A) (A) (A) (A)
                 (A) (A) (A) (A) (A) (A) (A) (A) (A) (A) (A) (A)
                 (A) (A) (A) (A) (A) (A) (A) (A) (A) (A) (A) (A)
                 (A) (A) (A) (A) (A) (A) (A) (A) (A) (A) (A) (A)
                 (A) (A) (A) (A) (A) (A) (A) (A) (A) (A) (A) (A)
                 (A) (A) (A) (A) (A) (A) (A) (A) (A) (A) (A) (A)
                 (A) (A) (A) (A) (A) (A) (A) (A) (A) (A) (A) (A)
                 (A) (A) (A) (A) (A) (A) (A) (A) (A) (A) (A) (A)
                 (A) (A) (A) (A) (A) (A) (A) (A) (A) (A) (A) (A)
                 (A) (A) (A) (A) (A) (A) (A) (A) (A) (A) (A) (A)
                 (A) (A) (A) (A) (A) (A) (A) (A) (A) (A) (A) (A)
                 (A) (A) (A) (A) (A) (A) (A) (A) (A) (A) (A) (A)
                 (A) (A) (A) (A) (A) (A) (A) (A) (A) (A) (A) (A)
                 (A) (A) (A) (A) (A) (A) (A) (A) (A) (A) (A) (A)
                 (A) (A) (A) (A) (A) (A) (A) (A) (A) (A) (A) (A)
                 (A) (A) (A) (A) (A) (A) (A) (A) (A) (A) (A) (A)
[...]
  472 Atom       -0.198288      0.067786      0.130502
  473 Atom       -0.315351      0.146382      0.168969
  474 Atom       -0.229384      0.080616      0.148768
  475 Atom       -0.315370      0.148222      0.167147
  476 Atom       -0.194768      0.079452      0.115317
  477 Atom       -0.304188      0.148901      0.155287
  478 Atom       -0.306459      0.150709      0.155750
  479 Atom       -0.033876      0.005268      0.028608
  480 Atom       -0.304367      0.149498      0.154869
  481 Atom       -0.017779     -0.005374      0.023154
  482 Atom       -0.292282      0.142944      0.149339
  483 Atom       -0.293964      0.144396      0.149567
  484 Atom       -0.011288     -0.005032      0.016320
  485 Atom       -0.284574      0.140786      0.143788
  486 Atom       -0.033532      0.008384      0.025148
  487 Atom       -0.304482      0.148369      0.156113
  488 Atom       -0.305380      0.148932      0.156449
  489 Atom       -0.305933      0.150432      0.155501
  490 Atom       -0.023557      0.006342      0.017215
  491 Atom       -0.305995      0.149035      0.156960
  492 Atom       -0.305535      0.150268      0.155267
  493 Atom       -0.303660      0.147904      0.155756
  494 Atom       -0.304205      0.148986      0.155219
  495 Atom       -0.544461      0.141855      0.402607
  496 Atom       -0.959847     -0.352478      1.312325
  497 Atom       -0.106925      0.014427      0.092498
  498 Atom       -0.612977      0.256314      0.356664
  499 Atom       -0.040750      0.003414      0.037336
  500 Atom       -0.055450      0.004880      0.050571
  501 Atom       -0.036623     -0.009104      0.045727
  502 Atom       -0.122500     -0.004203      0.126703
  503 Atom       -0.050349     -0.020404      0.070752
  504 Atom       -0.036411      0.016383      0.020028
  505 Atom       -0.062684      0.019432      0.043252
  506 Atom       -0.017208      0.003353      0.013855
  507 Atom       -0.037511      0.009713      0.027798
  508 Atom       -0.041891      0.008505      0.033386
  509 Atom       -0.022517      0.006612      0.015906
  510 Atom       -0.059888      0.003503      0.056385
  511 Atom       -0.043894      0.000626      0.043268
  512 Atom       -0.329523      0.121346      0.208177
  513 Atom       -0.035589      0.011267      0.024321
  514 Atom       -1.624755     -0.143076      1.767831
  515 Atom       -0.304115      0.137226      0.166890
  516 Atom       -0.275415      0.136033      0.139382
  517 Atom       -0.289698      0.141803      0.147895
  518 Atom       -0.296329      0.144711      0.151618
  519 Atom       -0.285578      0.140309      0.145269
  520 Atom       -0.287053      0.140016      0.147038
  521 Atom       -0.297299      0.137165      0.160134
  522 Atom       -0.182576      0.087702      0.094874
  523 Atom       -0.290395      0.142512      0.147884
  524 Atom       -0.294060      0.144464      0.149596
  525 Atom       -0.284242      0.140566      0.143676
  526 Atom       -0.280467      0.138727      0.141740
  527 Atom       -0.278169      0.135678      0.142490
  528 Atom       -0.288925      0.142564      0.146361
  529 Atom       -0.288866      0.139683      0.149183
  530 Atom       -0.295420      0.145360      0.150060
  531 Atom       -0.295684      0.144912      0.150773
  532 Atom       -0.296487      0.145456      0.151031
  533 Atom       -0.299563      0.147586      0.151977
  534 Atom       -0.299916      0.148550      0.151366
  535 Atom       -0.299910      0.148683      0.151227
  536 Atom       -0.257635      0.123164      0.134471
  537 Atom       -0.306828      0.147312      0.159517
  538 Atom       -0.293074      0.141387      0.151687
  539 Atom       -0.309487      0.151449      0.158038
  540 Atom       -0.459335      0.201134      0.258201
 -----------------------------------------------------
 Unable to Open any file for archive entry.
 1\1\GINC-EXP-8-37\SP\RwB97XD\6-31G(d)\C182H311N18O24S5(1-)\HKLEM\11-Ju
 l-2024\0\\# wb97xd/6-31G(d) prop=efg\\19nt_mm_min_distance_cutoff6_now
 at_xtb_conf_1\\-1,1\H,0,46.9936,33.7571,30.906\C,0,46.354,34.588,30.60
 1\H,0,45.8603,34.337,29.6621\C,0,45.2971,34.8694,31.6802\H,0,44.6626,3
 3.9867,31.7873\H,0,45.7872,35.0533,32.6393\C,0,44.4659,36.0638,31.3038
 \C,0,43.3264,35.9393,30.5214\H,0,42.9977,34.9578,30.2096\C,0,42.5966,3
 7.0508,30.1446\H,0,41.7062,36.95,29.5433\C,0,43.0056,38.3174,30.5475\O
 ,0,42.2939,39.4051,30.15\H,0,42.5655,40.1938,30.7109\C,0,44.1404,38.45
 21,31.3388\H,0,44.4475,39.433,31.6702\C,0,44.8583,37.3326,31.7055\H,0,
 45.7401,37.4451,32.3166\C,0,47.2192,35.8316,30.3242\O,0,47.1025,36.482
 6,29.3034\N,0,48.1214,36.1506,31.2791\H,0,48.2009,35.5629,32.0941\C,0,
 49.06,37.273,31.205\H,0,48.5762,38.0751,30.648\C,0,49.481,37.7184,32.6
 063\H,0,49.8191,36.8249,33.1489\C,0,50.6643,38.6782,32.5154\H,0,50.951
 1,39.0139,33.5086\H,0,50.4031,39.5456,31.9203\H,0,51.5212,38.19,32.054
 8\C,0,48.3224,38.3253,33.4089\H,0,47.5675,37.5551,33.58\H,0,48.6977,38
 .6124,34.3924\C,0,47.6602,39.5378,32.7689\H,0,46.8775,39.9063,33.4261\
 H,0,47.2125,39.2897,31.8106\H,0,48.3726,40.3451,32.6263\H,0,49.9459,36
 .955,30.6394\H,0,48.002,38.2053,26.9109\C,0,48.063,39.251,26.62\H,0,47
 .1994,39.4831,26.0017\C,0,48.0774,40.1379,27.8631\H,0,48.9558,39.8759,
 28.4636\C,0,48.1662,41.6099,27.4693\H,0,49.0771,41.8126,26.9081\H,0,47
 .318,41.8717,26.8452\H,0,48.1491,42.2503,28.3486\C,0,46.8307,39.8909,2
 8.7071\H,0,46.8461,40.512,29.6009\H,0,46.7723,38.8465,29.0025\H,0,45.9
 37,40.1285,28.134\H,0,48.9636,39.4,26.0267\H,0,43.4096,34.4349,24.6677
 \C,0,42.526,34.831,25.164\H,0,42.2334,34.1349,25.9479\C,0,42.8097,36.2
 08,25.7603\H,0,43.1273,36.8784,24.9527\C,0,41.5377,36.775,26.3852\H,0,
 41.1822,36.1166,27.1755\H,0,40.7517,36.8703,25.6377\H,0,41.7203,37.759
 6,26.805\C,0,43.9474,36.1069,26.7818\H,0,43.5901,35.5742,27.665\H,0,44
 .7563,35.516,26.3448\C,0,44.5147,37.453,27.2085\H,0,45.3573,37.2956,27
 .8756\H,0,44.8557,38.0153,26.3414\H,0,43.7711,38.0432,27.736\H,0,41.71
 9,34.8841,24.4353\H,0,37.8538,33.1053,28.1053\C,0,36.813,32.932,28.368
 \H,0,36.7435,32.8586,29.4512\C,0,35.938,34.0779,27.8598\H,0,36.0129,34
 .1316,26.7707\H,0,34.8956,33.8834,28.1199\C,0,36.3873,35.3759,28.4679\
 C,0,37.5387,35.9986,28.0058\H,0,38.0821,35.5691,27.1755\C,0,38.0034,37
 .1602,28.588\H,0,38.9048,37.6248,28.2194\C,0,37.3135,37.7366,29.6509\O
 ,0,37.7244,38.8809,30.2445\H,0,38.499,39.233,29.7708\C,0,36.1589,37.11
 66,30.1216\H,0,35.6271,37.5663,30.9459\C,0,35.7104,35.9492,29.5358\H,0
 ,34.8136,35.478,29.9134\H,0,36.4985,31.9842,27.9349\H,0,36.2614,46.097
 5,32.5257\C,0,37.164,46.712,32.465\H,0,37.699,46.6614,33.4104\C,0,38.0
 572,46.1885,31.3369\H,0,37.7217,46.5787,30.3746\H,0,38.0157,45.0968,31
 .2831\C,0,39.5417,46.5602,31.5472\O,0,39.8806,46.9362,32.6833\O,0,40.3
 044,46.4147,30.5715\C,0,36.7116,48.1217,32.125\O,0,35.9965,48.3399,31.
 1552\N,0,37.1086,49.1332,32.9179\C,0,36.7271,50.499,32.5942\H,0,37.273
 7,50.8314,31.704\H,0,35.6587,50.5414,32.3681\C,0,37.1294,51.305,33.823
 6\H,0,37.3542,52.3419,33.5819\H,0,36.3307,51.2826,34.5675\C,0,38.3471,
 50.5373,34.3332\H,0,38.5733,50.7381,35.3787\H,0,39.2235,50.7871,33.734
 7\C,0,37.95,49.082,34.098\H,0,38.8168,48.4406,33.9287\H,0,37.3766,48.6
 934,34.9509\H,0,36.9242,43.9448,22.1831\C,0,37.317,44.529,23.018\H,0,3
 7.0773,45.5788,22.8585\C,0,36.7058,44.0441,24.3466\H,0,36.7058,42.9518
 ,24.3823\H,0,35.6671,44.3777,24.3913\C,0,37.4727,44.5819,25.529\C,0,37
 .3046,45.897,25.944\H,0,36.5868,46.5249,25.434\C,0,38.0242,46.3967,27.
 0158\H,0,37.8695,47.4159,27.3374\C,0,38.9285,45.5917,27.6904\H,0,39.47
 78,45.9711,28.5411\C,0,39.0978,44.2796,27.2821\H,0,39.7879,43.634,27.8
 059\C,0,38.3764,43.7789,26.2122\H,0,38.5093,42.7454,25.923\C,0,38.8469
 ,44.4003,23.0558\O,0,39.5686,45.3855,22.9451\N,0,39.3413,43.1568,23.18
 54\H,0,38.6949,42.4054,23.3678\C,0,40.763,42.802,23.272\H,0,41.2109,43
 .3315,24.1196\C,0,40.9386,41.2934,23.434\H,0,40.2753,40.7755,22.7374\H
 ,0,41.967,41.0437,23.1664\C,0,40.6778,40.8499,24.8485\C,0,39.4267,40.4
 126,25.2629\H,0,38.615,40.338,24.5505\C,0,39.1971,40.0415,26.5744\H,0,
 38.2201,39.7099,26.8902\C,0,40.2358,40.0825,27.5011\O,0,39.9927,39.686
 2,28.7723\H,0,40.8311,39.6143,29.2848\C,0,41.4955,40.5089,27.0919\H,0,
 42.3066,40.519,27.8049\C,0,41.7032,40.8981,25.7846\H,0,42.6835,41.2333
 ,25.4808\H,0,41.2489,43.1523,22.3545\H,0,40.5037,46.2616,20.3353\C,0,4
 0.928,47.267,20.313\H,0,41.1979,47.5176,19.2898\C,0,39.9343,48.2676,20
 .9139\H,0,40.057,49.2431,20.4429\H,0,40.1592,48.3942,21.9745\C,0,38.47
 72,47.8089,20.7802\H,0,38.0684,48.0789,19.8073\H,0,38.4235,46.7254,20.
 8994\C,0,37.6309,48.4455,21.874\O,0,36.7983,49.3022,21.6741\N,0,37.908
 8,47.953,23.0996\H,0,38.5851,47.2139,23.2329\H,0,37.4532,48.345,23.906
 7\C,0,42.2317,47.2339,21.1544\O,0,43.3168,47.5185,20.6745\N,0,42.0936,
 46.8348,22.4455\H,0,41.1808,46.4887,22.7205\C,0,43.019,47.115,23.555\H
 ,0,42.5928,46.6666,24.4537\H,0,43.0932,48.1962,23.7132\C,0,44.4663,46.
 6082,23.4368\O,0,45.3449,47.1435,24.0831\N,0,44.6791,45.5292,22.6607\H
 ,0,43.8995,45.1322,22.1587\C,0,45.983,44.912,22.455\H,0,46.7048,45.473
 8,23.0499\C,0,45.9553,43.4344,22.855\H,0,45.3374,42.8913,22.1335\H,0,4
 6.9729,43.053,22.7648\C,0,45.4226,43.1749,24.266\H,0,44.376,43.4998,24
 .3146\C,0,45.4779,41.6743,24.5491\H,0,45.0979,41.4549,25.545\H,0,44.88
 52,41.1191,23.824\H,0,46.5045,41.3202,24.4873\C,0,46.2157,43.9505,25.3
 116\H,0,47.2782,43.7396,25.2192\H,0,46.0618,45.0198,25.2058\H,0,45.892
 1,43.6664,26.3098\C,0,46.4141,44.9753,20.9593\O,0,47.3695,44.324,20.57
 86\N,0,45.6476,45.7093,20.1287\H,0,44.942,46.3436,20.4908\C,0,45.882,4
 5.789,18.692\H,0,46.6864,45.0979,18.4469\H,0,44.9726,45.5107,18.1596\H
 ,0,46.1674,46.8025,18.4103\H,0,51.3493,46.2664,23.6488\C,0,51.26,46.16
 9,24.731\H,0,51.5754,47.0891,25.221\C,0,49.7934,45.8745,25.0942\H,0,49
 .5344,44.8846,24.7001\C,0,49.5782,45.8929,26.6038\H,0,50.1488,45.1127,
 27.1006\H,0,49.877,46.8539,27.0161\H,0,48.5266,45.7405,26.8313\C,0,48.
 9027,46.9184,24.4243\H,0,49.1644,47.9136,24.7748\H,0,49.0148,46.8899,2
 3.3422\H,0,47.8573,46.7485,24.6667\C,0,52.2029,45.0504,25.162\O,0,52.5
 012,44.1395,24.3679\N,0,52.713,45.1062,26.3933\H,0,52.4848,45.915,26.9
 739\C,0,53.485,44.06,27.077\H,0,53.4004,43.1428,26.4863\C,0,54.9496,44
 .4608,27.3161\H,0,55.5718,43.565,27.2622\H,0,55.0896,44.8796,28.3211\C
 ,0,55.4913,45.5402,26.3825\H,0,56.4622,45.8252,26.7897\H,0,54.8503,46.
 4197,26.4309\C,0,55.6187,45.1343,24.9129\H,0,54.6451,45.0298,24.4417\H
 ,0,56.1739,45.9049,24.3718\N,0,56.348,43.8888,24.7589\H,0,57.2912,43.9
 226,25.1204\C,0,55.8124,42.684,24.5817\N,0,54.536,42.4898,24.3058\H,0,
 53.7654,43.2212,24.3445\H,0,54.2272,41.5543,24.1042\N,0,56.6404,41.612
 4,24.6701\H,0,57.6326,41.7462,24.7527\H,0,56.3238,40.7083,24.368\C,0,5
 2.7735,43.8758,28.4363\O,0,52.1602,44.7965,28.9345\N,0,52.8603,42.6636
 ,29.0129\H,0,53.3666,41.9223,28.5574\C,0,52.152,42.334,30.246\H,0,51.8
 763,43.2835,30.7068\C,0,50.9064,41.51,29.9559\H,0,50.3002,41.4299,30.8
 532\H,0,51.1683,40.511,29.6132\H,0,50.3126,41.9986,29.1894\H,0,52.8334
 ,41.7996,30.9116\H,0,45.5201,38.0807,40.5275\C,0,46.435,38.561,40.187\
 H,0,47.24,38.2907,40.866\C,0,46.7702,38.1248,38.7647\H,0,46.9201,37.04
 34,38.7344\H,0,47.7012,38.5957,38.4417\C,0,45.663,38.4975,37.7931\H,0,
 45.5306,39.5799,37.7497\H,0,44.7195,38.0274,38.0778\S,0,46.0671,37.928
 5,36.1042\C,0,44.5678,38.5064,35.2698\H,0,43.7023,38.0419,35.7339\H,0,
 44.5152,39.5894,35.3268\H,0,44.6327,38.195,34.2336\H,0,46.2928,39.6387
 ,40.2323\H,0,49.4244,42.5988,37.9059\C,0,50.213,42.685,37.162\H,0,51.1
 679,42.4786,37.6414\C,0,49.9667,41.7129,36.0066\H,0,50.774,41.8065,35.
 2769\H,0,49.9712,40.6891,36.3911\C,0,48.6448,42.0011,35.3523\C,0,48.56
 99,42.687,34.1484\H,0,49.4825,42.9983,33.6562\C,0,47.342,42.9749,33.57
 53\H,0,47.2939,43.505,32.6352\C,0,46.1744,42.5939,34.2094\H,0,45.2109,
 42.8158,33.7796\C,0,46.2407,41.9277,35.4214\H,0,45.3225,41.67,35.9254\
 C,0,47.4653,41.6249,35.9832\H,0,47.5161,41.094,36.9239\H,0,50.2231,43.
 7088,36.7947\H,0,50.6206,46.4332,32.4209\C,0,50.84,46.417,31.354\H,0,5
 1.4663,45.5604,31.1144\C,0,49.5375,46.3643,30.5391\H,0,49.7514,46.7185
 ,29.5257\C,0,49.0199,44.9328,30.4412\H,0,48.8877,44.5078,31.4337\H,0,4
 9.7259,44.3209,29.8872\H,0,48.0641,44.9121,29.9211\C,0,48.4944,47.2822
 ,31.1631\H,0,48.2005,46.9191,32.1471\H,0,47.6094,47.3429,30.5348\H,0,4
 8.9053,48.2816,31.2692\C,0,51.6038,47.7027,30.9906\O,0,51.4635,48.7447
 ,31.6121\N,0,52.4058,47.5989,29.9107\H,0,52.4462,46.7092,29.4298\C,0,5
 3.236,48.657,29.347\H,0,53.1278,49.5381,29.9823\C,0,54.7044,48.1925,29
 .2388\H,0,55.3006,49.0128,28.8301\H,0,54.7357,47.3644,28.5247\C,0,55.3
 312,47.6891,30.526\H,0,54.6306,47.0443,31.0617\H,0,55.6342,48.5033,31.
 1836\C,0,56.6042,46.8022,30.1791\O,0,56.4208,45.9323,29.3054\O,0,57.63
 24,47.0556,30.8021\C,0,52.7993,48.915,27.8992\O,0,52.5496,47.983,27.14
 33\N,0,52.7794,50.1989,27.4855\H,0,53.1288,50.9345,28.0837\C,0,52.401,
 50.618,26.143\H,0,53.0727,50.1347,25.4156\C,0,50.9592,50.195,25.8226\H
 ,0,50.9228,49.1063,25.8853\H,0,50.7216,50.4676,24.7916\C,0,49.9108,50.
 7607,26.7796\H,0,50.1702,51.7574,27.1315\H,0,48.9373,50.806,26.2918\S,
 0,49.708,49.6802,28.2555\C,0,50.1208,50.8312,29.5896\H,0,50.9813,51.41
 6,29.2832\H,0,49.2671,51.4723,29.7962\H,0,50.3727,50.2384,30.4649\C,0,
 52.6739,52.1492,26.0202\O,0,53.5645,52.6534,26.6779\N,0,51.9524,52.830
 7,25.1027\H,0,51.0916,52.4376,24.7506\C,0,52.113,54.245,24.763\H,0,52.
 9691,54.6166,25.3336\C,0,52.3582,54.3914,23.2505\H,0,51.483,53.9827,22
 .7334\C,0,52.5169,55.8591,22.8625\H,0,53.3517,56.3071,23.3983\H,0,52.7
 155,55.9398,21.7962\H,0,51.6139,56.4215,23.084\C,0,53.597,53.5985,22.8
 402\H,0,54.4762,53.9797,23.3551\H,0,53.4844,52.5472,23.0913\H,0,53.759
 6,53.6823,21.7683\C,0,50.8076,54.9813,25.1716\O,0,49.7357,54.4277,25.0
 44\N,0,50.9514,56.2518,25.6089\H,0,51.8845,56.6007,25.7648\C,0,49.863,
 57.09,26.119\H,0,48.945,56.5208,25.9676\C,0,50.063,57.4006,27.6098\H,0
 ,50.6534,56.5855,28.0379\H,0,50.6187,58.3318,27.7361\C,0,48.7687,57.47
 41,28.3482\C,0,48.2311,58.5408,29.0036\H,0,48.61,59.541,29.1002\N,0,47
 .0523,58.18,29.6033\H,0,46.4636,58.7874,30.1465\C,0,46.8056,56.862,29.
 3392\C,0,45.754,56.0421,29.7293\H,0,44.9515,56.4201,30.3467\C,0,45.770
 5,54.7341,29.2957\H,0,44.9688,54.0698,29.581\C,0,46.8025,54.2484,28.48
 67\H,0,46.7636,53.2266,28.1425\C,0,47.8523,55.0528,28.106\H,0,48.6368,
 54.6671,27.4727\C,0,47.8671,56.3796,28.5397\H,0,49.8164,58.0077,25.526
 3\H,0,53.88,55.4646,29.537\C,0,53.834,54.416,29.825\H,0,54.5114,54.250
 4,30.6597\C,0,52.4216,54.0375,30.2221\H,0,52.3735,53.0148,30.5975\H,0,
 52.0222,54.719,30.9718\S,0,51.323,54.143,28.7521\H,0,50.1746,54.053,29
 .4234\H,0,54.1619,53.8137,28.979\H,0,50.6418,50.645,33.57\C,0,49.755,5
 0.767,34.187\H,0,49.8165,51.7243,34.7013\C,0,48.5076,50.6752,33.3168\H
 ,0,48.609,49.7959,32.6807\H,0,48.4494,51.5481,32.6609\C,0,47.1993,50.5
 487,34.103\H,0,47.3049,49.7254,34.8191\C,0,46.8749,51.8225,34.8781\H,0
 ,47.6542,52.0541,35.6004\H,0,46.7642,52.6632,34.1953\H,0,45.937,51.700
 7,35.4142\C,0,46.0533,50.2146,33.1511\H,0,46.2732,49.3076,32.5935\H,0,
 45.9048,51.0262,32.4414\H,0,45.1251,50.0658,33.6965\H,0,49.753,49.9746
 ,34.9323\H,0,47.1693,46.8995,36.8901\C,0,46.253,46.438,37.253\H,0,45.5
 33,47.2275,37.4617\C,0,45.6914,45.4669,36.2183\H,0,46.4321,44.6777,36.
 0468\C,0,44.4109,44.8197,36.7382\H,0,44.0438,44.0766,36.0352\H,0,44.59
 36,44.3263,37.6917\H,0,43.6398,45.5739,36.8877\C,0,45.4338,46.1808,34.
 8938\H,0,45.044,45.4804,34.1595\H,0,46.3554,46.609,34.5042\H,0,44.713,
 46.986,35.0226\H,0,46.475,45.9223,38.1855\H,0,43.3002,40.7385,37.5736\
 C,0,42.317,41.201,37.522\H,0,42.4498,42.2794,37.4973\C,0,41.5761,40.74
 25,36.2745\H,0,41.5135,39.6534,36.2296\H,0,40.5562,41.1373,36.2628\C,0
 ,42.2418,41.2343,35.0086\O,0,43.124,42.0545,34.9763\O,0,41.7455,40.66,
 33.9239\H,0,42.1789,41.0276,33.0985\H,0,41.7601,40.9324,38.4165\H,0,38
 .1207,37.1158,37.9836\C,0,38.331,36.071,37.764\H,0,37.5818,35.7114,37.
 0616\C,0,39.7297,35.918,37.1797\H,0,39.9319,34.8648,36.9729\H,0,40.473
 1,36.2611,37.9021\C,0,39.8876,36.7108,35.8924\H,0,39.7677,37.7805,36.0
 737\H,0,39.1636,36.3875,35.1422\S,0,41.5556,36.4342,35.1932\C,0,41.375
 6,37.3132,33.618\H,0,41.3161,38.3845,33.7881\H,0,42.2589,37.0802,33.03
 32\H,0,40.4877,36.9525,33.1064\H,0,38.241,35.5006,38.6851\H,0,35.4921,
 38.6619,34.8321\C,0,36.5,39.053,34.953\H,0,37.0954,38.3145,35.4867\C,0
 ,37.1247,39.3668,33.5999\H,0,37.2274,38.4545,33.0077\H,0,36.4761,40.04
 56,33.0427\C,0,38.4994,39.9966,33.7535\H,0,39.1274,39.3944,34.4075\H,0
 ,38.9979,40.1104,32.7926\S,0,38.4323,41.6499,34.524\C,0,38.2043,42.668
 1,33.0447\H,0,37.2996,42.3627,32.526\H,0,39.0722,42.5612,32.3993\H,0,3
 8.1175,43.6971,33.3767\H,0,36.4531,39.9567,35.5568\H,0,38.936,44.3943,
 35.7427\C,0,39.963,44.652,35.992\H,0,40.3133,43.9438,36.7411\C,0,40.84
 52,44.6073,34.7561\H,0,41.8834,44.7906,35.0247\H,0,40.5322,45.3575,34.
 0341\H,0,40.7829,43.6267,34.2908\H,0,39.9686,45.6481,36.4315\H,0,41.89
 72,49.2243,37.8604\C,0,42.518,50.112,37.763\H,0,43.0308,50.2841,38.708
 4\C,0,43.5212,49.9325,36.6234\H,0,44.1471,50.8242,36.5506\H,0,44.1724,
 49.0832,36.8476\C,0,42.8169,49.7031,35.326\C,0,42.2236,48.5393,34.9163
 \H,0,42.1832,47.5901,35.4167\N,0,41.6362,48.6969,33.7006\H,0,41.0661,4
 7.9879,33.2187\C,0,41.8211,49.9787,33.2954\C,0,41.4111,50.6169,32.1294
 \H,0,40.8461,50.0798,31.3818\C,0,41.7535,51.941,31.9693\H,0,41.455,52.
 4678,31.0738\C,0,42.4868,52.6229,32.9466\H,0,42.736,53.6624,32.7812\C,
 0,42.8943,52.0009,34.1044\H,0,43.4591,52.5435,34.8498\C,0,42.5674,50.6
 579,34.2965\H,0,41.8688,50.9616,37.5603\H,0,48.941,55.6303,36.1342\C,0
 ,49.23,55.22,35.169\H,0,48.5288,54.4324,34.9089\C,0,49.2352,56.3136,34
 .1079\H,0,49.9207,57.1053,34.4231\H,0,48.2371,56.7524,34.0335\C,0,49.6
 629,55.8165,32.7222\H,0,50.6015,55.2604,32.8359\C,0,48.6174,54.8874,32
 .1102\H,0,47.6395,55.3641,32.1002\H,0,48.8745,54.6469,31.0796\H,0,48.5
 47,53.9572,32.6666\C,0,49.9094,57.0063,31.7962\H,0,48.9965,57.5854,31.
 6784\H,0,50.6817,57.6586,32.2001\H,0,50.2214,56.6737,30.809\H,0,50.220
 4,54.779,35.266\C,0,43.2454,42.517,31.1243\O,0,42.8751,41.4418,31.6529
 \C,0,43.1282,43.7702,31.755\C,0,43.3839,44.9579,31.126\C,0,43.9692,44.
 9813,29.7408\C,0,44.7144,43.6712,29.4767\C,0,43.7853,42.493,29.7175\C,
 0,42.9391,46.2126,31.7187\C,0,43.7675,47.4422,31.3743\C,0,44.0438,47.4
 822,29.8763\C,0,44.8456,46.2263,29.5002\C,0,44.8334,48.7225,29.4896\C,
 0,45.2085,48.7656,28.001\C,0,46.0953,47.5626,27.6986\C,0,45.3639,46.26
 67,28.0561\C,0,44.2019,50.0923,29.7224\C,0,45.1064,51.0285,28.9033\C,0
 ,45.9243,50.1317,27.9457\C,0,44.0052,48.7915,27.0509\O,0,45.9902,50.72
 24,26.6657\H,0,42.7217,43.7777,32.7565\H,0,43.1161,45.0404,29.0482\H,0
 ,45.575,43.6024,30.147\H,0,45.0792,43.6342,28.4504\H,0,42.9291,42.5584
 ,29.0359\H,0,44.2923,41.5419,29.5345\H,0,42.7828,46.118,32.7926\H,0,41
 .9169,46.3654,31.2619\H,0,44.7114,47.4191,31.926\H,0,43.2305,48.3385,3
 1.6777\H,0,43.0815,47.472,29.3572\H,0,45.7112,46.1686,30.1704\H,0,45.7
 76,48.7007,30.0507\H,0,47.0213,47.6368,28.2736\H,0,46.3626,47.5355,26.
 6394\H,0,44.5271,46.1292,27.3685\H,0,46.0613,45.4417,27.9026\H,0,44.18
 09,50.37,30.7742\H,0,43.1773,50.1027,29.3527\H,0,45.7725,51.5874,29.55
 84\H,0,44.5344,51.7429,28.3126\H,0,46.9478,50.0053,28.3322\H,0,43.5754
 ,49.7876,27.0056\H,0,44.3277,48.5142,26.0484\H,0,43.2317,48.0972,27.36
 28\H,0,46.2137,50.0307,26.0339\\Version=ES64L-G16RevC.01\State=1-A\HF=
 -11902.2843529\RMSD=1.094e-09\Dipole=5.5305064,-6.2550186,-7.8944489\Q
 uadrupole=-122.6134226,81.8745901,40.7388325,-64.3716453,-96.0405715,3
 5.1080897\PG=C01 [X(C182H311N18O24S5)]\\@
 The archive entry for this job was punched.


 Spring appears, and we are once more children.
                                  -- Anonymous
 Job cpu time:       0 days 14 hours  0 minutes 25.1 seconds.
 Elapsed time:       0 days  0 hours 26 minutes 59.7 seconds.
 File lengths (MBytes):  RWF=   8905 Int=      0 D2E=      0 Chk=    954 Scr=      1
 Normal termination of Gaussian 16 at Thu Jul 11 12:18:23 2024.
