 Entering Gaussian System, Link 0=g16
 Initial command:
 /cm/shared/apps/spack/cpu/opt/spack/linux-centos8-zen/gcc-8.3.1/gaussian-16.C.01-po5bqktfeugvmjyga3v7eigbecnokxng/g16/l1.exe "/scratch/hklem/job_32994905/Gau-555151.inp" -scrdir="/scratch/hklem/job_32994905/"
 Entering Link 1 = /cm/shared/apps/spack/cpu/opt/spack/linux-centos8-zen/gcc-8.3.1/gaussian-16.C.01-po5bqktfeugvmjyga3v7eigbecnokxng/g16/l1.exe PID=    555155.
  
 Copyright (c) 1988-2019, Gaussian, Inc.  All Rights Reserved.
  
 This is part of the Gaussian(R) 16 program.  It is based on
 the Gaussian(R) 09 system (copyright 2009, Gaussian, Inc.),
 the Gaussian(R) 03 system (copyright 2003, Gaussian, Inc.),
 the Gaussian(R) 98 system (copyright 1998, Gaussian, Inc.),
 the Gaussian(R) 94 system (copyright 1995, Gaussian, Inc.),
 the Gaussian 92(TM) system (copyright 1992, Gaussian, Inc.),
 the Gaussian 90(TM) system (copyright 1990, Gaussian, Inc.),
 the Gaussian 88(TM) system (copyright 1988, Gaussian, Inc.),
 the Gaussian 86(TM) system (copyright 1986, Carnegie Mellon
 University), and the Gaussian 82(TM) system (copyright 1983,
 Carnegie Mellon University). Gaussian is a federally registered
 trademark of Gaussian, Inc.
  
 This software contains proprietary and confidential information,
 including trade secrets, belonging to Gaussian, Inc.
  
 This software is provided under written license and may be
 used, copied, transmitted, or stored only in accord with that
 written license.
  
 The following legend is applicable only to US Government
 contracts under FAR:
  
                    RESTRICTED RIGHTS LEGEND
  
 Use, reproduction and disclosure by the US Government is
 subject to restrictions as set forth in subparagraphs (a)
 and (c) of the Commercial Computer Software - Restricted
 Rights clause in FAR 52.227-19.
  
 Gaussian, Inc.
 340 Quinnipiac St., Bldg. 40, Wallingford CT 06492
  
  
 ---------------------------------------------------------------
 Warning -- This program may not be used in any manner that
 competes with the business of Gaussian, Inc. or will provide
 assistance to any competitor of Gaussian, Inc.  The licensee
 of this program is prohibited from giving any competitor of
 Gaussian, Inc. access to this program.  By using this program,
 the user acknowledges that Gaussian, Inc. is engaged in the
 business of creating and licensing software in the field of
 computational chemistry and represents and warrants to the
 licensee that it is not a competitor of Gaussian, Inc. and that
 it will not use this program in any manner prohibited above.
 ---------------------------------------------------------------
  

 Cite this work as:
 Gaussian 16, Revision C.01,
 M. J. Frisch, G. W. Trucks, H. B. Schlegel, G. E. Scuseria, 
 M. A. Robb, J. R. Cheeseman, G. Scalmani, V. Barone, 
 G. A. Petersson, H. Nakatsuji, X. Li, M. Caricato, A. V. Marenich, 
 J. Bloino, B. G. Janesko, R. Gomperts, B. Mennucci, H. P. Hratchian, 
 J. V. Ortiz, A. F. Izmaylov, J. L. Sonnenberg, D. Williams-Young, 
 F. Ding, F. Lipparini, F. Egidi, J. Goings, B. Peng, A. Petrone, 
 T. Henderson, D. Ranasinghe, V. G. Zakrzewski, J. Gao, N. Rega, 
 G. Zheng, W. Liang, M. Hada, M. Ehara, K. Toyota, R. Fukuda, 
 J. Hasegawa, M. Ishida, T. Nakajima, Y. Honda, O. Kitao, H. Nakai, 
 T. Vreven, K. Throssell, J. A. Montgomery, Jr., J. E. Peralta, 
 F. Ogliaro, M. J. Bearpark, J. J. Heyd, E. N. Brothers, K. N. Kudin, 
 V. N. Staroverov, T. A. Keith, R. Kobayashi, J. Normand, 
 K. Raghavachari, A. P. Rendell, J. C. Burant, S. S. Iyengar, 
 J. Tomasi, M. Cossi, J. M. Millam, M. Klene, C. Adamo, R. Cammi, 
 J. W. Ochterski, R. L. Martin, K. Morokuma, O. Farkas, 
 J. B. Foresman, and D. J. Fox, Gaussian, Inc., Wallingford CT, 2019.
 
 ******************************************
 Gaussian 16:  ES64L-G16RevC.01  3-Jul-2019
                12-Aug-2024 
 ******************************************
 %nprocshared=24
 Will use up to   24 processors via shared memory.
 %mem=48GB
 --------------------------
 # wb97xd 6-31G(d) prop=efg
 --------------------------
 1/38=1,172=1/1;
 2/12=2,17=6,18=5,40=1/2;
 3/5=1,6=6,7=1,11=2,25=1,30=1,74=-58/1,2,3;
 4//1;
 5/5=2,38=5/2;
 6/7=2,8=2,9=2,10=2,14=1,28=1/1,2;
 99/5=1,9=1/99;
 ----------------------------------------------
 19nt_mm_min_distance_cutoff6_xtb_ligand_conf_1
 ----------------------------------------------
 Symbolic Z-matrix:
 Charge =  0 Multiplicity = 1
 C                     43.2693   42.5498   31.1054 
 O                     42.942    41.4574   31.6111 
 C                     43.1853   43.7796   31.8087 
 C                     43.432    44.9863   31.2353 
 C                     43.9757   45.0911   29.8442 
 C                     44.6609   43.7788   29.454 
 C                     43.7109   42.6108   29.67 
 C                     43.0541   46.2239   31.9562 
 C                     43.9514   47.4208   31.6612 
 C                     44.1657   47.572    30.1593 
 C                     44.8939   46.3176   29.6549 
 C                     44.9852   48.811    29.8339 
 C                     45.286    48.9635   28.3345 
 C                     46.0999   47.7473   27.8976 
 C                     45.3408   46.45     28.1933 
 C                     44.4239   50.1797   30.212 
 C                     45.3265   51.1477   29.4282 
 C                     46.0719   50.2977   28.3749 
 C                     44.0434   49.118    27.4537 
 O                     46.2242   50.9511   27.1343 
 H                     42.8158   43.7293   32.8234 
 H                     43.1093   45.2322   29.1802 
 H                     45.5584   43.6388   30.063 
 H                     44.9597   43.8034   28.4071 
 H                     42.8141   42.7544   29.0562 
 H                     44.1716   41.6621   29.3829 
 H                     43.0022   46.0365   33.0292 
 H                     42.0294   46.4548   31.636 
 H                     44.9158   47.2784   32.1541 
 H                     43.5026   48.3224   32.0745 
 H                     43.1932   47.6468   29.6736 
 H                     45.7872   46.1734   30.2737 
 H                     45.9521   48.7118   30.3414 
 H                     47.0576   47.7442   28.4221 
 H                     46.3159   47.783    26.8288 
 H                     44.4666   46.3837   27.5443 
 H                     46.0031   45.62     27.9427 
 H                     44.4609   50.3676   31.2822 
 H                     43.3872   50.2674   29.892 
 H                     46.0355   51.6467   30.088 
 H                     44.7387   51.9203   28.9315 
 H                     47.093    50.0826   28.709 
 H                     43.5108   50.0387   27.6656 
 H                     44.3325   49.1271   26.4054 
 H                     43.3571   48.2921   27.5971 
 H                     45.4599   51.5459   26.9921 
 
                          Input orientation:                          
 ---------------------------------------------------------------------
 Center     Atomic      Atomic             Coordinates (Angstroms)
 Number     Number       Type             X           Y           Z
 ---------------------------------------------------------------------
      1          6           0       43.269300   42.549800   31.105400
      2          8           0       42.942000   41.457400   31.611100
      3          6           0       43.185300   43.779600   31.808700
      4          6           0       43.432000   44.986300   31.235300
      5          6           0       43.975700   45.091100   29.844200
      6          6           0       44.660900   43.778800   29.454000
      7          6           0       43.710900   42.610800   29.670000
      8          6           0       43.054100   46.223900   31.956200
      9          6           0       43.951400   47.420800   31.661200
     10          6           0       44.165700   47.572000   30.159300
     11          6           0       44.893900   46.317600   29.654900
     12          6           0       44.985200   48.811000   29.833900
     13          6           0       45.286000   48.963500   28.334500
     14          6           0       46.099900   47.747300   27.897600
     15          6           0       45.340800   46.450000   28.193300
     16          6           0       44.423900   50.179700   30.212000
     17          6           0       45.326500   51.147700   29.428200
     18          6           0       46.071900   50.297700   28.374900
     19          6           0       44.043400   49.118000   27.453700
     20          8           0       46.224200   50.951100   27.134300
     21          1           0       42.815800   43.729300   32.823400
     22          1           0       43.109300   45.232200   29.180200
     23          1           0       45.558400   43.638800   30.063000
     24          1           0       44.959700   43.803400   28.407100
     25          1           0       42.814100   42.754400   29.056200
     26          1           0       44.171600   41.662100   29.382900
     27          1           0       43.002200   46.036500   33.029200
     28          1           0       42.029400   46.454800   31.636000
     29          1           0       44.915800   47.278400   32.154100
     30          1           0       43.502600   48.322400   32.074500
     31          1           0       43.193200   47.646800   29.673600
     32          1           0       45.787200   46.173400   30.273700
     33          1           0       45.952100   48.711800   30.341400
     34          1           0       47.057600   47.744200   28.422100
     35          1           0       46.315900   47.783000   26.828800
     36          1           0       44.466600   46.383700   27.544300
     37          1           0       46.003100   45.620000   27.942700
     38          1           0       44.460900   50.367600   31.282200
     39          1           0       43.387200   50.267400   29.892000
     40          1           0       46.035500   51.646700   30.088000
     41          1           0       44.738700   51.920300   28.931500
     42          1           0       47.093000   50.082600   28.709000
     43          1           0       43.510800   50.038700   27.665600
     44          1           0       44.332500   49.127100   26.405400
     45          1           0       43.357100   48.292100   27.597100
     46          1           0       45.459900   51.545900   26.992100
 ---------------------------------------------------------------------
                    Distance matrix (angstroms):
                    1          2          3          4          5
     1  C    0.000000
     2  O    1.247476   0.000000
     3  C    1.419188   2.343257   0.000000
     4  C    2.445379   3.582522   1.358592   0.000000
     5  C    2.923668   4.170641   2.490788   1.497248   0.000000
     6  C    2.484776   3.605079   2.778850   2.478161   1.530976
     7  C    1.503032   2.385248   2.493268   2.858487   2.500471
     8  C    3.777457   4.780291   2.452259   1.481269   2.567708
     9  C    4.949830   6.048433   3.723842   2.525462   2.954587
    10  C    5.188558   6.402617   4.250177   2.895157   2.508038
    11  C    4.351964   5.590901   3.741606   2.531240   1.543771
    12  C    6.615410   7.836360   5.696882   4.359436   3.854459
    13  C    7.271899   8.518919   6.584514   5.260235   4.357931
    14  C    6.731737   7.957717   6.287626   5.087342   3.918785
    15  C    5.289896   6.508583   4.984810   3.878105   2.536844
    16  C    7.768310   8.957233   6.711547   5.385389   5.121524
    17  C    8.998275  10.215322   8.033705   6.694594   6.219334
    18  C    8.679870   9.920694   7.912589   6.584978   5.801860
    19  C    7.554826   8.785320   6.942685   5.634293   4.683481
    20  O    9.751047  10.997496   9.083796   7.758442   6.836586
    21  H    2.132699   2.578202   1.081053   2.117029   3.474982
    22  H    3.305641   4.492925   3.004136   2.094764   1.100661
    23  H    2.740894   3.741747   2.949389   2.776980   2.159164
    24  H    3.421957   4.454261   3.836658   3.425177   2.166029
    25  H    2.109097   2.868115   2.960588   3.179883   2.725881
    26  H    2.137560   2.553173   3.367655   3.876687   3.465432
    27  H    3.991168   4.794037   2.572303   2.122669   3.462038
    28  H    4.131333   5.080105   2.919354   2.069865   2.976291
    29  H    5.115701   6.170476   3.918614   2.880899   3.317184
    30  H    5.858028   6.903422   4.561618   3.440756   3.954663
    31  H    5.294833   6.490430   4.417460   3.094219   2.678248
    32  H    4.490214   5.667844   3.854398   2.807285   2.153457
    33  H    6.763975   7.956077   5.842495   4.585773   4.154857
    34  H    6.966571   8.162827   6.494753   5.353978   4.308064
    35  H    7.413330   8.617819   7.115284   5.962856   4.670706
    36  H    5.367844   6.567473   5.158311   4.080025   2.683531
    37  H    5.186758   6.336776   5.125722   4.225322   2.829450
    38  H    7.910067   9.044716   6.730981   5.478980   5.490420
    39  H    7.813296   8.987191   6.768017   5.449448   5.209866
    40  H    9.562455  10.756924   8.542582   7.242613   6.875908
    41  H    9.730943  10.949003   8.772818   7.422622   6.932039
    42  H    8.781030  10.002353   8.037790   6.764421   5.993439
    43  H    8.244645   9.461988   7.513159   6.186737   5.425972
    44  H    8.153605   9.373212   7.688139   6.425345   5.314315
    45  H    6.729776   7.937105   6.174929   4.916342   3.959612
    46  H   10.131524  11.377733   9.417476   8.071275   7.211225
                    6          7          8          9         10
     6  C    0.000000
     7  C    1.520980   0.000000
     8  C    3.849847   4.325805   0.000000
     9  C    4.317324   5.211412   1.524710   0.000000
    10  C    3.889863   5.005973   2.506367   1.524628   0.000000
    11  C    2.557373   3.891026   2.947817   2.476004   1.535648
    12  C    5.056929   6.331918   3.863469   2.518020   1.520719
    13  C    5.340894   6.679917   5.059990   3.902309   2.553672
    14  C    4.499121   5.935685   5.298101   4.345957   2.981132
    15  C    3.030996   4.424553   4.409029   3.859950   2.550471
    16  C    6.449981   7.621705   4.535079   3.151978   2.620981
    17  C    7.398944   8.691795   5.983176   4.557079   3.829830
    18  C    6.756585   8.144939   6.207147   4.855187   3.774536
    19  C    5.734942   6.882310   5.443072   4.537842   3.118548
    20  O    7.698494   9.072324   7.459670   6.174258   4.980599
    21  H    3.841836   3.463550   2.651764   4.033295   4.866827
    22  H    2.143549   2.733782   2.948337   3.413863   2.747596
    23  H    1.093612   2.150463   4.066751   4.409106   4.173601
    24  H    1.088984   2.139325   4.699600   4.969046   4.231192
    25  H    2.149025   1.096185   4.528248   5.463951   5.123761
    26  H    2.173681   1.093025   5.355436   6.196916   5.960684
    27  H    4.542087   4.849938   1.090478   2.165339   3.456562
    28  H    4.341301   4.633458   1.098113   2.151250   2.827111
    29  H    4.427495   5.423009   2.148735   1.092381   2.151297
    30  H    5.371497   6.200595   2.149151   1.088633   2.161202
    31  H    4.142921   5.062541   2.693373   2.139275   1.089613
    32  H    2.770301   4.167445   3.209859   2.617504   2.144395
    33  H    5.175825   6.534214   4.146761   2.722380   2.126859
    34  H    4.746934   6.253755   5.552404   4.499426   3.377958
    35  H    5.065996   6.450589   6.273784   5.392044   3.969901
    36  H    3.235770   4.395959   4.635251   4.276666   2.888048
    37  H    2.734144   4.158489   5.016919   4.612981   3.478456
    38  H    6.840658   7.957992   4.427597   3.014442   3.027115
    39  H    6.626921   7.666654   4.552117   3.398753   2.818278
    40  H    8.012199   9.339485   6.464184   4.967561   4.483795
    41  H    8.158620   9.395134   6.666008   5.321335   4.554507
    42  H    6.797649   8.257719   6.461160   5.066588   4.120142
    43  H    6.611161   7.696191   5.759386   4.797119   3.568199
    44  H    6.164910   7.314791   6.393298   5.538965   4.066685
    45  H    5.051519   6.057991   4.834358   4.198722   2.781591
    46  H    8.187014   9.490319   7.665106   6.410345   5.243853
                   11         12         13         14         15
    11  C    0.000000
    12  C    2.501484   0.000000
    13  C    2.982949   1.536860   0.000000
    14  C    2.566434   2.474524   1.527238   0.000000
    15  C    1.534120   2.896954   2.518059   1.531881   0.000000
    16  C    3.930277   1.526878   2.397366   3.752598   4.338953
    17  C    4.854730   2.396090   2.443062   3.808360   4.857321
    18  C    4.343648   2.349441   1.548987   2.594829   3.920750
    19  C    3.662086   2.578098   1.530926   2.510987   3.057528
    20  O    5.439894   3.661009   2.504247   3.295817   4.707630
    21  H    4.588811   6.282283   7.324545   7.154938   5.934278
    22  H    2.142016   4.093181   4.401799   4.112722   2.727013
    23  H    2.789996   5.208906   5.604850   4.675677   3.383190
    24  H    2.807585   5.206963   5.170916   4.136906   2.682432
    25  H    4.168981   6.480810   6.721909   6.088340   4.559196
    26  H    4.719045   7.209169   7.459991   6.553939   5.070125
    27  H    3.878588   4.673337   5.985255   6.233450   5.387575
    28  H    3.485533   4.187600   5.272468   5.675840   4.776775
    29  H    2.677614   2.781548   4.191176   4.442944   4.068760
    30  H    3.436481   2.730773   4.192747   4.952091   4.684931
    31  H    2.158588   2.142970   2.811885   3.407812   2.869809
    32  H    1.096217   2.791695   3.434582   2.867193   2.145657
    33  H    2.706153   1.096491   2.129481   2.631400   3.178641
    34  H    2.869944   2.725084   2.152425   1.091925   2.162107
    35  H    3.486592   3.443570   2.172880   1.090992   2.142328
    36  H    2.154434   3.376833   2.819787   2.156825   1.090790
    37  H    2.156061   3.846458   3.441908   2.129979   1.091028
    38  H    4.386125   2.189855   3.367673   4.583428   5.065878
    39  H    4.234062   2.162887   2.780540   4.205624   4.612448
    40  H    5.467187   3.034616   3.291819   4.472954   5.574781
    41  H    5.651340   3.246973   3.065716   4.509517   5.552625
    42  H    4.461613   2.706508   2.158213   2.664253   4.065948
    43  H    4.440368   2.895277   2.180554   3.465224   4.062774
    44  H    4.332172   3.504361   2.158090   2.693364   3.373443
    45  H    3.239590   2.814825   2.171449   2.812483   2.771976
    46  H    5.894572   3.972511   2.915659   3.957132   5.236914
                   16         17         18         19         20
    16  C    0.000000
    17  C    1.538198   0.000000
    18  C    2.470782   1.545174   0.000000
    19  C    2.979967   3.108807   2.520935   0.000000
    20  O    3.648065   2.471132   1.410395   2.866733   0.000000
    21  H    7.142342   8.536021   8.575268   7.705762   9.804970
    22  H    5.222120   6.322232   5.923242   4.353480   6.825989
    23  H    6.640231   7.539252   6.888709   6.255022   7.905081
    24  H    6.648455   7.424010   6.588927   5.476637   7.369437
    25  H    7.685207   8.769152   8.244926   6.676420   9.083412
    26  H    8.561575   9.555755   8.899483   7.702512   9.775218
    27  H    5.208066   6.670378   7.017364   6.454916   8.323727
    28  H    4.651482   6.145613   6.460995   5.351679   7.620916
    29  H    3.525799   4.750862   4.973439   5.122399   6.356023
    30  H    2.786981   4.279233   4.918349   4.719877   6.222760
    31  H    2.867068   4.107005   4.123203   2.795572   5.153000
    32  H    4.232356   5.066634   4.549324   4.434400   5.733517
    33  H    2.122939   2.675616   2.529141   3.485247   3.920968
    34  H    4.008962   3.948766   2.737553   3.451163   3.554883
    35  H    4.557398   4.365432   2.962039   2.708686   3.184116
    36  H    4.639834   5.194632   4.311181   2.768339   4.911049
    37  H    5.332397   5.763676   4.698128   4.039251   5.396575
    38  H    1.087200   2.189780   3.324545   4.048854   4.544752
    39  H    1.088503   2.179661   3.083849   2.774351   4.015087
    40  H    2.182824   1.089504   2.180788   4.159606   3.040364
    41  H    2.183682   1.090473   2.172569   3.243489   2.525072
    42  H    3.064724   2.184539   1.095690   3.436028   1.997194
    43  H    2.708835   2.762862   2.670098   1.084552   2.911579
    44  H    3.950509   3.769374   2.876586   1.087472   2.727050
    45  H    3.396881   3.922488   3.463747   1.083366   3.937604
    46  H    3.647952   2.472032   1.960786   2.848551   0.978858
                   21         22         23         24         25
    21  H    0.000000
    22  H    3.951931   0.000000
    23  H    3.892281   3.052270   0.000000
    24  H    4.909736   2.462343   1.768485   0.000000
    25  H    3.891302   2.498402   3.054012   2.474941   0.000000
    26  H    4.236573   3.730306   2.508604   2.481623   1.772754
    27  H    2.323848   3.933595   4.591456   5.493847   5.156771
    28  H    3.075174   2.948201   4.781007   5.103173   4.578655
    29  H    4.177807   4.036639   4.246448   5.110534   5.872027
    30  H    4.704159   4.252175   5.496231   5.999527   6.370776
    31  H    5.040881   2.465923   4.670104   4.415458   4.945753
    32  H    4.615605   3.041833   2.553613   3.128235   4.691609
    33  H    6.389210   4.640853   5.095865   5.368311   6.854881
    34  H    7.313257   4.740668   4.668454   4.464450   6.580842
    35  H    8.038558   4.724187   5.311144   4.490827   6.520025
    36  H    6.135135   2.417516   3.882055   2.765053   4.264788
    37  H    6.128202   3.171100   2.935742   2.145783   4.429590
    38  H    7.010612   5.711178   6.925872   7.183573   8.101101
    39  H    7.187931   5.092851   6.977226   6.816229   7.581040
    40  H    8.974080   7.108626   8.022139   8.093215   9.513939
    41  H    9.270216   6.888213   8.398538   8.136824   9.366609
    42  H    8.694087   6.294305   6.760982   6.638559   8.493059
    43  H    8.178903   5.055458   7.134347   6.444230   7.448502
    44  H    8.522168   4.936191   6.708376   5.722059   7.067078
    45  H    6.958905   3.454070   5.707853   4.834548   5.752386
    46  H   10.104185   7.083496   8.483063   7.886617   9.410167
                   26         27         28         29         30
    26  H    0.000000
    27  H    5.813637   0.000000
    28  H    5.712745   1.749949   0.000000
    29  H    6.306838   2.443354   3.045989   0.000000
    30  H    7.214698   2.527289   2.418787   1.758808   0.000000
    31  H    6.071113   3.726875   2.574162   3.042359   2.513262
    32  H    4.873963   3.920172   4.007007   2.348673   3.616694
    33  H    7.333974   4.804520   4.707187   2.532673   3.025776
    34  H    6.800299   6.370862   6.105285   4.328060   5.129558
    35  H    6.970428   7.244020   6.576273   5.529351   5.976870
    36  H    5.075528   5.687631   4.763088   4.717258   5.021012
    37  H    4.592770   5.920419   5.488866   4.654933   5.534188
    38  H    8.914974   4.892672   4.620321   3.241959   2.393516
    39  H    8.655961   5.281171   4.406935   4.048189   2.925688
    40  H   10.181529   7.023241   6.738024   4.960297   4.627390
    41  H   10.283775   7.377376   6.672804   5.653649   4.934701
    42  H    8.938319   7.195116   6.882464   4.946964   5.226458
    43  H    8.576316   6.711519   5.550042   5.453431   4.731189
    44  H    8.038509   7.429417   6.309091   6.066752   5.785756
    45  H    6.914434   5.892486   4.631541   4.921726   4.479866
    46  H   10.250129   8.534656   7.697625   6.719661   6.328725
                   31         32         33         34         35
    31  H    0.000000
    32  H    3.043002   0.000000
    33  H    3.031783   2.544651   0.000000
    34  H    4.063167   2.740393   2.417042   0.000000
    35  H    4.226428   3.838968   3.651490   1.757905   0.000000
    36  H    2.784042   3.039381   3.930716   3.055286   2.426910
    37  H    3.872915   2.405499   3.913514   2.419508   2.452995
    38  H    3.405497   4.513032   2.418772   4.669609   5.473021
    39  H    2.636831   4.760938   3.033243   4.690307   4.912507
    40  H    4.924388   5.482075   2.946999   4.364564   5.062528
    41  H    4.604572   5.993973   3.708723   4.803811   4.901649
    42  H    4.698086   4.408542   2.417742   2.356200   3.070374
    43  H    3.139127   5.188904   3.857527   4.291481   3.695538
    44  H    3.764362   5.079787   4.276409   3.661374   2.433053
    45  H    2.180625   4.190282   3.800178   3.830734   3.099026
    46  H    5.247033   6.303950   4.414997   4.364684   3.862489
                   36         37         38         39         40
    36  H    0.000000
    37  H    1.761475   0.000000
    38  H    5.462910   6.005859   0.000000
    39  H    4.664754   5.678119   1.759411   0.000000
    40  H    6.052357   6.397224   2.354055   2.992387   0.000000
    41  H    5.714219   6.501555   2.830873   2.341194   1.758988
    42  H    4.683627   4.657241   3.691955   3.894431   2.338024
    43  H    3.779853   5.080675   3.753753   2.241526   3.850688
    44  H    2.973436   4.177792   5.033737   3.788173   4.775996
    45  H    2.208114   3.776357   4.371045   3.028082   4.963038
    46  H    5.285819   6.026193   4.559753   3.786828   3.150567
                   41         42         43         44         45
    41  H    0.000000
    42  H    2.994892   0.000000
    43  H    2.578887   3.731323   0.000000
    44  H    3.787895   3.720203   1.759065   0.000000
    45  H    4.105274   4.289424   1.754687   1.751793   0.000000
    46  H    2.102755   2.784961   2.554260   2.732369   3.921098
                   46
    46  H    0.000000
 Stoichiometry    C18H26O2
 Framework group  C1[X(C18H26O2)]
 Deg. of freedom   132
 Full point group                 C1      NOp   1
 Largest Abelian subgroup         C1      NOp   1
 Largest concise Abelian subgroup C1      NOp   1
                         Standard orientation:                         
 ---------------------------------------------------------------------
 Center     Atomic      Atomic             Coordinates (Angstroms)
 Number     Number       Type             X           Y           Z
 ---------------------------------------------------------------------
      1          6           0        4.694871   -0.134634    0.035955
      2          8           0        5.937956   -0.035753    0.001895
      3          6           0        3.830369    0.985993   -0.068574
      4          6           0        2.482150    0.905529    0.078409
      5          6           0        1.789479   -0.416181    0.201062
      6          6           0        2.675747   -1.522767   -0.376764
      7          6           0        4.053928   -1.474744    0.264868
      8          6           0        1.692556    2.149527    0.230621
      9          6           0        0.275869    2.065739   -0.326800
     10          6           0       -0.409881    0.787884    0.143651
     11          6           0        0.375169   -0.406603   -0.417697
     12          6           0       -1.854608    0.723542   -0.326678
     13          6           0       -2.563151   -0.582708    0.065260
     14          6           0       -1.812874   -1.735686   -0.598205
     15          6           0       -0.340601   -1.741644   -0.175082
     16          6           0       -2.828208    1.798420    0.150918
     17          6           0       -4.198748    1.208937   -0.223494
     18          6           0       -3.965604   -0.288879   -0.523085
     19          6           0       -2.670262   -0.814633    1.574720
     20          8           0       -5.005696   -1.120950   -0.059317
     21          1           0        4.304846    1.950978   -0.179708
     22          1           0        1.668118   -0.606250    1.278373
     23          1           0        2.769997   -1.389634   -1.458143
     24          1           0        2.232383   -2.499895   -0.190929
     25          1           0        3.954652   -1.610700    1.348049
     26          1           0        4.701978   -2.266512   -0.119627
     27          1           0        2.228332    2.993934   -0.204193
     28          1           0        1.643494    2.341671    1.310680
     29          1           0        0.316851    2.076317   -1.418360
     30          1           0       -0.291074    2.940189   -0.012103
     31          1           0       -0.384997    0.758814    1.232592
     32          1           0        0.477539   -0.265432   -1.499956
     33          1           0       -1.848723    0.763036   -1.422441
     34          1           0       -1.886316   -1.639582   -1.683410
     35          1           0       -2.252035   -2.697017   -0.327567
     36          1           0       -0.266629   -2.000522    0.881958
     37          1           0        0.159325   -2.526842   -0.744185
     38          1           0       -2.657304    2.760977   -0.324769
     39          1           0       -2.744020    1.936890    1.227290
     40          1           0       -4.619369    1.711840   -1.093657
     41          1           0       -4.911075    1.315982    0.595201
     42          1           0       -3.925398   -0.461632   -1.604323
     43          1           0       -3.298909   -0.071653    2.053299
     44          1           0       -3.097492   -1.795752    1.768303
     45          1           0       -1.695032   -0.783304    2.045493
     46          1           0       -5.394423   -0.724829    0.746996
 ---------------------------------------------------------------------
 Rotational constants (GHZ):           0.9403789           0.1749578           0.1552125
 Standard basis: 6-31G(d) (6D, 7F)
 There are   352 symmetry adapted cartesian basis functions of A   symmetry.
 There are   352 symmetry adapted basis functions of A   symmetry.
   352 basis functions,   664 primitive gaussians,   352 cartesian basis functions
    75 alpha electrons       75 beta electrons
       nuclear repulsion energy      1669.0417734216 Hartrees.
 NAtoms=   46 NActive=   46 NUniq=   46 SFac= 1.00D+00 NAtFMM=   60 NAOKFM=F Big=F
 Integral buffers will be    131072 words long.
 Raffenetti 2 integral format.
 Two-electron integral symmetry is turned on.
 Nuclear repulsion after empirical dispersion term =     1668.9928768891 Hartrees.
 One-electron integrals computed using PRISM.
 NBasis=   352 RedAO= T EigKep=  1.21D-03  NBF=   352
 NBsUse=   352 1.00D-06 EigRej= -1.00D+00 NBFU=   352
 ExpMin= 1.61D-01 ExpMax= 5.48D+03 ExpMxC= 8.25D+02 IAcc=3 IRadAn=         5 AccDes= 0.00D+00
 Harris functional with IExCor= 4639 and IRadAn=       5 diagonalized for initial guess.
 HarFok:  IExCor= 4639 AccDes= 0.00D+00 IRadAn=         5 IDoV= 1 UseB2=F ITyADJ=14
 ICtDFT=  3500011 ScaDFX=  1.000000  1.000000  1.000000  1.000000
 FoFCou: FMM=F IPFlag=           0 FMFlag=      100000 FMFlg1=           0
         NFxFlg=           0 DoJE=T BraDBF=F KetDBF=T FulRan=T
         wScrn=  0.000000 ICntrl=       500 IOpCl=  0 I1Cent=   200000004 NGrid=           0
         NMat0=    1 NMatS0=      1 NMatT0=    0 NMatD0=    1 NMtDS0=    0 NMtDT0=    0
 Petite list used in FoFCou.
 Requested convergence on RMS density matrix=1.00D-08 within 128 cycles.
 Requested convergence on MAX density matrix=1.00D-06.
 Requested convergence on             energy=1.00D-06.
 No special actions if energy rises.
 Integral accuracy reduced to 1.0D-05 until final iterations.
 Initial convergence to 1.0D-05 achieved.  Increase integral accuracy.
 SCF Done:  E(RwB97XD) =  -851.788666901     A.U. after   15 cycles
            NFock= 15  Conv=0.37D-08     -V/T= 2.0088

 **********************************************************************

            Population analysis using the SCF Density.

 **********************************************************************

 Orbital symmetries:
       Occupied  (A) (A) (A) (A) (A) (A) (A) (A) (A) (A) (A) (A)
                 (A) (A) (A) (A) (A) (A) (A) (A) (A) (A) (A) (A)
                 (A) (A) (A) (A) (A) (A) (A) (A) (A) (A) (A) (A)
                 (A) (A) (A) (A) (A) (A) (A) (A) (A) (A) (A) (A)
                 (A) (A) (A) (A) (A) (A) (A) (A) (A) (A) (A) (A)
                 (A) (A) (A) (A) (A) (A) (A) (A) (A) (A) (A) (A)
                 (A) (A) (A)
       Virtual   (A) (A) (A) (A) (A) (A) (A) (A) (A) (A) (A) (A)
                 (A) (A) (A) (A) (A) (A) (A) (A) (A) (A) (A) (A)
                 (A) (A) (A) (A) (A) (A) (A) (A) (A) (A) (A) (A)
                 (A) (A) (A) (A) (A) (A) (A) (A) (A) (A) (A) (A)
                 (A) (A) (A) (A) (A) (A) (A) (A) (A) (A) (A) (A)
                 (A) (A) (A) (A) (A) (A) (A) (A) (A) (A) (A) (A)
                 (A) (A) (A) (A) (A) (A) (A) (A) (A) (A) (A) (A)
                 (A) (A) (A) (A) (A) (A) (A) (A) (A) (A) (A) (A)
                 (A) (A) (A) (A) (A) (A) (A) (A) (A) (A) (A) (A)
                 (A) (A) (A) (A) (A) (A) (A) (A) (A) (A) (A) (A)
                 (A) (A) (A) (A) (A) (A) (A) (A) (A) (A) (A) (A)
                 (A) (A) (A) (A) (A) (A) (A) (A) (A) (A) (A) (A)
                 (A) (A) (A) (A) (A) (A) (A) (A) (A) (A) (A) (A)
                 (A) (A) (A) (A) (A) (A) (A) (A) (A) (A) (A) (A)
                 (A) (A) (A) (A) (A) (A) (A) (A) (A) (A) (A) (A)
                 (A) (A) (A) (A) (A) (A) (A) (A) (A) (A) (A) (A)
                 (A) (A) (A) (A) (A) (A) (A) (A) (A) (A) (A) (A)
                 (A) (A) (A) (A) (A) (A) (A) (A) (A) (A) (A) (A)
                 (A) (A) (A) (A) (A) (A) (A) (A) (A) (A) (A) (A)
                 (A) (A) (A) (A) (A) (A) (A) (A) (A) (A) (A) (A)
                 (A) (A) (A) (A) (A) (A) (A) (A) (A) (A) (A) (A)
                 (A) (A) (A) (A) (A) (A) (A) (A) (A) (A) (A) (A)
                 (A) (A) (A) (A) (A) (A) (A) (A) (A) (A) (A) (A)
                 (A)
 The electronic state is 1-A.
 Alpha  occ. eigenvalues --  -19.26678 -19.23298 -10.36484 -10.34138 -10.33007
 Alpha  occ. eigenvalues --  -10.31413 -10.30659 -10.30646 -10.30199 -10.29976
 Alpha  occ. eigenvalues --  -10.29923 -10.29877 -10.29738 -10.29727 -10.29541
 Alpha  occ. eigenvalues --  -10.29454 -10.29229 -10.29027 -10.28918 -10.28698
 Alpha  occ. eigenvalues --   -1.11970  -1.10098  -0.98417  -0.95933  -0.91094
 Alpha  occ. eigenvalues --   -0.90320  -0.87299  -0.84519  -0.82616  -0.81591
 Alpha  occ. eigenvalues --   -0.77949  -0.77803  -0.73631  -0.71918  -0.69978
 Alpha  occ. eigenvalues --   -0.67827  -0.66954  -0.65587  -0.63102  -0.61100
 Alpha  occ. eigenvalues --   -0.59142  -0.57824  -0.56355  -0.55425  -0.55307
 Alpha  occ. eigenvalues --   -0.54283  -0.53203  -0.53040  -0.52020  -0.50975
 Alpha  occ. eigenvalues --   -0.50377  -0.49703  -0.49440  -0.48472  -0.48100
 Alpha  occ. eigenvalues --   -0.47661  -0.46861  -0.46578  -0.44977  -0.44332
 Alpha  occ. eigenvalues --   -0.43564  -0.43291  -0.43006  -0.42301  -0.41706
 Alpha  occ. eigenvalues --   -0.41424  -0.40877  -0.40546  -0.39681  -0.39178
 Alpha  occ. eigenvalues --   -0.37591  -0.36008  -0.33289  -0.32406  -0.30764
 Alpha virt. eigenvalues --    0.02162   0.13312   0.14246   0.14990   0.16656
 Alpha virt. eigenvalues --    0.17275   0.17979   0.18237   0.19052   0.20798
 Alpha virt. eigenvalues --    0.20944   0.21329   0.22381   0.22664   0.23427
 Alpha virt. eigenvalues --    0.23522   0.23980   0.24379   0.25267   0.25376
 Alpha virt. eigenvalues --    0.25796   0.26352   0.26613   0.26724   0.27498
 Alpha virt. eigenvalues --    0.27859   0.28432   0.29042   0.29884   0.30691
 Alpha virt. eigenvalues --    0.30864   0.31524   0.31996   0.32490   0.33582
 Alpha virt. eigenvalues --    0.33862   0.34422   0.35177   0.36008   0.36359
 Alpha virt. eigenvalues --    0.37302   0.37958   0.39352   0.39670   0.40872
 Alpha virt. eigenvalues --    0.42088   0.42696   0.45223   0.45264   0.50441
 Alpha virt. eigenvalues --    0.51866   0.58250   0.58811   0.59033   0.60127
 Alpha virt. eigenvalues --    0.61407   0.61996   0.62559   0.62914   0.64759
 Alpha virt. eigenvalues --    0.65906   0.66011   0.66361   0.68314   0.69010
 Alpha virt. eigenvalues --    0.70418   0.71187   0.72270   0.73256   0.73358
 Alpha virt. eigenvalues --    0.73919   0.74151   0.75221   0.75897   0.76462
 Alpha virt. eigenvalues --    0.77431   0.77976   0.79139   0.80218   0.81608
 Alpha virt. eigenvalues --    0.82937   0.83666   0.85044   0.85555   0.86120
 Alpha virt. eigenvalues --    0.87015   0.87988   0.89010   0.90200   0.90938
 Alpha virt. eigenvalues --    0.91013   0.91990   0.93256   0.93449   0.94569
 Alpha virt. eigenvalues --    0.94642   0.95458   0.96061   0.96597   0.97061
 Alpha virt. eigenvalues --    0.97657   0.97795   0.98330   0.98771   0.99207
 Alpha virt. eigenvalues --    0.99547   1.00382   1.01021   1.01808   1.03451
 Alpha virt. eigenvalues --    1.03771   1.04246   1.04605   1.04701   1.05259
 Alpha virt. eigenvalues --    1.05557   1.06133   1.07498   1.07917   1.08021
 Alpha virt. eigenvalues --    1.09154   1.10360   1.11441   1.12808   1.13320
 Alpha virt. eigenvalues --    1.14139   1.15421   1.16625   1.20130   1.20196
 Alpha virt. eigenvalues --    1.21517   1.24677   1.27105   1.28074   1.29764
 Alpha virt. eigenvalues --    1.31363   1.31805   1.34177   1.35284   1.37490
 Alpha virt. eigenvalues --    1.39161   1.42419   1.42998   1.43508   1.47231
 Alpha virt. eigenvalues --    1.51922   1.52856   1.54488   1.57389   1.58059
 Alpha virt. eigenvalues --    1.62069   1.63330   1.64681   1.66813   1.69156
 Alpha virt. eigenvalues --    1.69908   1.71842   1.73103   1.74326   1.78068
 Alpha virt. eigenvalues --    1.79112   1.79820   1.81629   1.82496   1.84005
 Alpha virt. eigenvalues --    1.85478   1.86362   1.86833   1.88468   1.88643
 Alpha virt. eigenvalues --    1.89548   1.90234   1.92349   1.93793   1.95430
 Alpha virt. eigenvalues --    1.96427   1.96596   1.97304   1.99556   1.99914
 Alpha virt. eigenvalues --    2.00756   2.01765   2.02481   2.02918   2.03960
 Alpha virt. eigenvalues --    2.05158   2.05841   2.06982   2.07392   2.08515
 Alpha virt. eigenvalues --    2.09062   2.10076   2.10617   2.12051   2.12362
 Alpha virt. eigenvalues --    2.13856   2.15478   2.15830   2.16518   2.18638
 Alpha virt. eigenvalues --    2.20200   2.20885   2.21695   2.23926   2.25156
 Alpha virt. eigenvalues --    2.26722   2.28397   2.30651   2.30888   2.33623
 Alpha virt. eigenvalues --    2.34545   2.35847   2.37110   2.37891   2.40778
 Alpha virt. eigenvalues --    2.41440   2.42381   2.43819   2.44467   2.45698
 Alpha virt. eigenvalues --    2.48860   2.49211   2.51216   2.51673   2.53898
 Alpha virt. eigenvalues --    2.55449   2.58091   2.58850   2.61678   2.63528
 Alpha virt. eigenvalues --    2.63803   2.65361   2.66517   2.66989   2.67905
 Alpha virt. eigenvalues --    2.69435   2.71688   2.72729   2.75647   2.76709
 Alpha virt. eigenvalues --    2.79314   2.79455   2.81927   2.83493   2.85176
 Alpha virt. eigenvalues --    2.87127   2.90265   2.94011   2.97946   2.99989
 Alpha virt. eigenvalues --    3.01235   3.02981   3.07757   3.09071   3.10688
 Alpha virt. eigenvalues --    3.21960   3.28248   4.00531   4.08625   4.25924
 Alpha virt. eigenvalues --    4.27605   4.31285   4.34993   4.36557   4.38466
 Alpha virt. eigenvalues --    4.42023   4.42737   4.48571   4.54769   4.56453
 Alpha virt. eigenvalues --    4.65958   4.68280   4.74870   4.77608   4.81121
 Alpha virt. eigenvalues --    4.86719   4.92269
          Condensed to atoms (all electrons):
               1          2          3          4          5          6
     1  C    4.426942   0.529366   0.371836   0.001153  -0.022663  -0.027918
     2  O    0.529366   8.113936  -0.061305   0.005300   0.000285   0.002598
     3  C    0.371836  -0.061305   5.298068   0.515093  -0.044910   0.006382
     4  C    0.001153   0.005300   0.515093   4.873007   0.375551  -0.047606
     5  C   -0.022663   0.000285  -0.044910   0.375551   5.099386   0.353012
     6  C   -0.027918   0.002598   0.006382  -0.047606   0.353012   5.148754
     7  C    0.340813  -0.078970  -0.138413  -0.000706  -0.035242   0.288100
     8  C    0.003871  -0.000100  -0.037551   0.362247  -0.067216   0.005067
     9  C   -0.000140   0.000000   0.003036  -0.035218  -0.012067  -0.000305
    10  C   -0.000012   0.000000   0.000491  -0.014062  -0.041486   0.004212
    11  C   -0.000090   0.000001   0.003750  -0.031391   0.365223  -0.048431
    12  C   -0.000000   0.000000   0.000002   0.000321   0.003972  -0.000136
    13  C   -0.000000   0.000000   0.000000   0.000007   0.000039  -0.000007
    14  C    0.000000  -0.000000   0.000001  -0.000094   0.003565   0.000212
    15  C   -0.000003  -0.000000  -0.000117   0.004470  -0.042680  -0.004491
    16  C   -0.000000  -0.000000   0.000000  -0.000001  -0.000114   0.000001
    17  C    0.000000  -0.000000  -0.000000   0.000000   0.000002  -0.000000
    18  C    0.000000   0.000000  -0.000000  -0.000000   0.000004   0.000000
    19  C   -0.000000   0.000000   0.000000   0.000001   0.000041   0.000000
    20  O   -0.000000   0.000000   0.000000   0.000000  -0.000000  -0.000000
    21  H   -0.029679   0.000846   0.359777  -0.047581   0.004875  -0.000452
    22  H    0.000909   0.000010  -0.004674  -0.043101   0.367074  -0.034910
    23  H   -0.002794   0.000078   0.003796  -0.004514  -0.042160   0.386029
    24  H    0.003597  -0.000073  -0.000218   0.005031  -0.032605   0.377259
    25  H   -0.027501  -0.000333   0.002159  -0.001666  -0.004188  -0.039771
    26  H   -0.024801   0.002665   0.005433  -0.000182   0.004250  -0.031182
    27  H    0.000273  -0.000002  -0.002774  -0.039978   0.004135  -0.000160
    28  H   -0.000125   0.000005  -0.008957  -0.038022   0.000898   0.000106
    29  H    0.000000  -0.000000  -0.000217  -0.003311   0.000526   0.000008
    30  H    0.000001  -0.000000  -0.000086   0.004299   0.000033   0.000011
    31  H    0.000004   0.000000  -0.000253  -0.004532  -0.001178   0.000171
    32  H    0.000025  -0.000000  -0.000105  -0.003841  -0.040677  -0.004616
    33  H    0.000000   0.000000  -0.000001  -0.000074   0.000187   0.000001
    34  H    0.000000   0.000000  -0.000000   0.000002   0.000054  -0.000020
    35  H   -0.000000  -0.000000  -0.000000   0.000001  -0.000101   0.000001
    36  H    0.000002  -0.000000  -0.000011   0.000150  -0.003869  -0.001059
    37  H   -0.000009  -0.000000   0.000013  -0.000109  -0.006008   0.001486
    38  H    0.000000  -0.000000   0.000000  -0.000002   0.000001  -0.000000
    39  H    0.000000   0.000000  -0.000000  -0.000000   0.000001   0.000000
    40  H    0.000000  -0.000000   0.000000   0.000000  -0.000000   0.000000
    41  H    0.000000  -0.000000   0.000000  -0.000000  -0.000000   0.000000
    42  H    0.000000  -0.000000  -0.000000   0.000000  -0.000000  -0.000000
    43  H   -0.000000  -0.000000   0.000000   0.000000  -0.000002  -0.000000
    44  H    0.000000   0.000000  -0.000000   0.000000  -0.000003   0.000000
    45  H    0.000000  -0.000000  -0.000000   0.000001   0.000053   0.000002
    46  H   -0.000000  -0.000000  -0.000000   0.000000  -0.000000   0.000000
               7          8          9         10         11         12
     1  C    0.340813   0.003871  -0.000140  -0.000012  -0.000090  -0.000000
     2  O   -0.078970  -0.000100   0.000000   0.000000   0.000001   0.000000
     3  C   -0.138413  -0.037551   0.003036   0.000491   0.003750   0.000002
     4  C   -0.000706   0.362247  -0.035218  -0.014062  -0.031391   0.000321
     5  C   -0.035242  -0.067216  -0.012067  -0.041486   0.365223   0.003972
     6  C    0.288100   0.005067  -0.000305   0.004212  -0.048431  -0.000136
     7  C    5.360175  -0.000133   0.000041  -0.000104   0.004630   0.000002
     8  C   -0.000133   5.152746   0.337107  -0.043468  -0.016146   0.003992
     9  C    0.000041   0.337107   5.104399   0.369041  -0.044514  -0.044104
    10  C   -0.000104  -0.043468   0.369041   5.021036   0.372715   0.368709
    11  C    0.004630  -0.016146  -0.044514   0.372715   5.044203  -0.037595
    12  C    0.000002   0.003992  -0.044104   0.368709  -0.037595   5.113106
    13  C    0.000000  -0.000139   0.004399  -0.027903  -0.012416   0.353184
    14  C   -0.000001  -0.000009  -0.000105  -0.011442  -0.038519  -0.054625
    15  C    0.000147   0.000335   0.004674  -0.042796   0.363666  -0.017899
    16  C   -0.000000   0.000083  -0.004593  -0.034502   0.004374   0.355369
    17  C    0.000000  -0.000000   0.000152   0.004653  -0.000200  -0.056769
    18  C    0.000000   0.000002  -0.000131   0.003944   0.000117  -0.063440
    19  C    0.000000  -0.000000   0.000162  -0.006541  -0.001957  -0.057618
    20  O    0.000000  -0.000000   0.000000  -0.000068  -0.000002   0.002932
    21  H    0.007019  -0.007863   0.000261   0.000003  -0.000094   0.000000
    22  H   -0.006253   0.001468  -0.000511  -0.005797  -0.043099   0.000016
    23  H   -0.041924   0.000033  -0.000041   0.000079  -0.003353  -0.000001
    24  H   -0.030964  -0.000118  -0.000008   0.000003  -0.008240  -0.000002
    25  H    0.367044  -0.000040  -0.000002   0.000000   0.000053   0.000000
    26  H    0.368500   0.000009   0.000000   0.000002  -0.000073  -0.000000
    27  H    0.000010   0.380124  -0.031979   0.004284  -0.000195  -0.000117
    28  H   -0.000086   0.378501  -0.040084  -0.004806  -0.000569  -0.000018
    29  H   -0.000004  -0.036381   0.381377  -0.039433  -0.008224  -0.004434
    30  H   -0.000000  -0.031338   0.379265  -0.033983   0.005040  -0.007162
    31  H   -0.000012   0.000729  -0.048286   0.382082  -0.048959  -0.043190
    32  H   -0.000073   0.000203  -0.006852  -0.046407   0.378375  -0.004147
    33  H   -0.000000   0.000106  -0.005791  -0.044326  -0.005709   0.383435
    34  H   -0.000000   0.000000  -0.000028  -0.000492  -0.003898  -0.006004
    35  H   -0.000000  -0.000000   0.000010  -0.000050   0.004304   0.006085
    36  H   -0.000067  -0.000005  -0.000011  -0.003911  -0.044870  -0.000441
    37  H    0.000024  -0.000011  -0.000135   0.004567  -0.031357   0.000094
    38  H    0.000000  -0.000018   0.001153  -0.001786  -0.000075  -0.027085
    39  H   -0.000000  -0.000027  -0.000440  -0.003993   0.000065  -0.038738
    40  H   -0.000000  -0.000000  -0.000007  -0.000055   0.000004   0.000265
    41  H   -0.000000  -0.000000   0.000001  -0.000168   0.000003   0.004306
    42  H   -0.000000  -0.000000   0.000008  -0.000352  -0.000010  -0.001690
    43  H    0.000000  -0.000000  -0.000020  -0.000069   0.000025  -0.004126
    44  H    0.000000  -0.000000   0.000001   0.000004   0.000069   0.005326
    45  H   -0.000000   0.000009  -0.000047   0.001677  -0.000366  -0.005579
    46  H   -0.000000  -0.000000  -0.000000  -0.000003   0.000001  -0.000056
              13         14         15         16         17         18
     1  C   -0.000000   0.000000  -0.000003  -0.000000   0.000000   0.000000
     2  O    0.000000  -0.000000  -0.000000  -0.000000  -0.000000   0.000000
     3  C    0.000000   0.000001  -0.000117   0.000000  -0.000000  -0.000000
     4  C    0.000007  -0.000094   0.004470  -0.000001   0.000000  -0.000000
     5  C    0.000039   0.003565  -0.042680  -0.000114   0.000002   0.000004
     6  C   -0.000007   0.000212  -0.004491   0.000001  -0.000000   0.000000
     7  C    0.000000  -0.000001   0.000147  -0.000000   0.000000   0.000000
     8  C   -0.000139  -0.000009   0.000335   0.000083  -0.000000   0.000002
     9  C    0.004399  -0.000105   0.004674  -0.004593   0.000152  -0.000131
    10  C   -0.027903  -0.011442  -0.042796  -0.034502   0.004653   0.003944
    11  C   -0.012416  -0.038519   0.363666   0.004374  -0.000200   0.000117
    12  C    0.353184  -0.054625  -0.017899   0.355369  -0.056769  -0.063440
    13  C    5.109618   0.382078  -0.039512  -0.050291  -0.090073   0.348226
    14  C    0.382078   5.097660   0.353762   0.006039   0.006427  -0.038852
    15  C   -0.039512   0.353762   5.106314   0.000235  -0.000227   0.004259
    16  C   -0.050291   0.006039   0.000235   5.127300   0.323998  -0.065419
    17  C   -0.090073   0.006427  -0.000227   0.323998   5.222813   0.355561
    18  C    0.348226  -0.038852   0.004259  -0.065419   0.355561   4.810477
    19  C    0.336842  -0.063608  -0.004198  -0.004397  -0.005520  -0.046483
    20  O   -0.060581   0.001251   0.000003   0.002764  -0.036811   0.265693
    21  H   -0.000000  -0.000000   0.000002  -0.000000  -0.000000  -0.000000
    22  H   -0.000026   0.000058  -0.007263  -0.000000   0.000000  -0.000000
    23  H    0.000000  -0.000035  -0.000856   0.000000   0.000000  -0.000000
    24  H   -0.000002   0.000024   0.003382   0.000000   0.000000   0.000000
    25  H    0.000000  -0.000000  -0.000026   0.000000   0.000000  -0.000000
    26  H   -0.000000  -0.000000  -0.000001   0.000000  -0.000000  -0.000000
    27  H    0.000001  -0.000000   0.000009  -0.000002  -0.000000  -0.000000
    28  H    0.000003   0.000000  -0.000003  -0.000010  -0.000000  -0.000000
    29  H    0.000010  -0.000014   0.000151  -0.000399  -0.000023  -0.000002
    30  H    0.000040  -0.000004  -0.000147   0.003800  -0.000020  -0.000011
    31  H   -0.008250   0.000269  -0.002529  -0.004402  -0.000031   0.000069
    32  H   -0.001028  -0.000464  -0.043763  -0.000046   0.000003  -0.000050
    33  H   -0.052918  -0.006072  -0.000971  -0.046983  -0.002634  -0.003006
    34  H   -0.037683   0.378388  -0.037370   0.000044   0.000104  -0.006348
    35  H   -0.032715   0.377367  -0.035953  -0.000235   0.000009  -0.003531
    36  H   -0.007658  -0.035960   0.381679  -0.000018  -0.000001  -0.000040
    37  H    0.004849  -0.034331   0.380514   0.000009   0.000003  -0.000078
    38  H    0.005154  -0.000160  -0.000003   0.377850  -0.028216   0.002883
    39  H   -0.006638   0.000046  -0.000024   0.385822  -0.034172   0.001404
    40  H    0.004158  -0.000135   0.000003  -0.028888   0.377185  -0.024705
    41  H   -0.001073  -0.000109   0.000004  -0.028958   0.371515  -0.036107
    42  H   -0.065139  -0.007353   0.000107   0.002837  -0.042456   0.396328
    43  H   -0.035161   0.005057   0.000048   0.001484   0.003199  -0.004767
    44  H   -0.028859  -0.004737  -0.000485  -0.000228   0.000376  -0.005683
    45  H   -0.031995  -0.004514   0.001735  -0.000294  -0.000021   0.005021
    46  H   -0.005196  -0.000150   0.000002   0.000238  -0.008815  -0.029291
              19         20         21         22         23         24
     1  C   -0.000000  -0.000000  -0.029679   0.000909  -0.002794   0.003597
     2  O    0.000000   0.000000   0.000846   0.000010   0.000078  -0.000073
     3  C    0.000000   0.000000   0.359777  -0.004674   0.003796  -0.000218
     4  C    0.000001   0.000000  -0.047581  -0.043101  -0.004514   0.005031
     5  C    0.000041  -0.000000   0.004875   0.367074  -0.042160  -0.032605
     6  C    0.000000  -0.000000  -0.000452  -0.034910   0.386029   0.377259
     7  C    0.000000   0.000000   0.007019  -0.006253  -0.041924  -0.030964
     8  C   -0.000000  -0.000000  -0.007863   0.001468   0.000033  -0.000118
     9  C    0.000162   0.000000   0.000261  -0.000511  -0.000041  -0.000008
    10  C   -0.006541  -0.000068   0.000003  -0.005797   0.000079   0.000003
    11  C   -0.001957  -0.000002  -0.000094  -0.043099  -0.003353  -0.008240
    12  C   -0.057618   0.002932   0.000000   0.000016  -0.000001  -0.000002
    13  C    0.336842  -0.060581  -0.000000  -0.000026   0.000000  -0.000002
    14  C   -0.063608   0.001251  -0.000000   0.000058  -0.000035   0.000024
    15  C   -0.004198   0.000003   0.000002  -0.007263  -0.000856   0.003382
    16  C   -0.004397   0.002764  -0.000000  -0.000000   0.000000   0.000000
    17  C   -0.005520  -0.036811  -0.000000   0.000000   0.000000   0.000000
    18  C   -0.046483   0.265693  -0.000000  -0.000000  -0.000000   0.000000
    19  C    5.223720   0.003196   0.000000  -0.000063  -0.000000  -0.000001
    20  O    0.003196   8.267269   0.000000  -0.000000   0.000000   0.000000
    21  H    0.000000   0.000000   0.538118  -0.000223  -0.000131   0.000014
    22  H   -0.000063  -0.000000  -0.000223   0.588028   0.005510  -0.002802
    23  H   -0.000000   0.000000  -0.000131   0.005510   0.553845  -0.029354
    24  H   -0.000001   0.000000   0.000014  -0.002802  -0.029354   0.550988
    25  H   -0.000000   0.000000  -0.000183   0.006140   0.005059  -0.004003
    26  H    0.000000   0.000000  -0.000116  -0.000134  -0.002546  -0.003111
    27  H    0.000000   0.000000   0.005218  -0.000094  -0.000002   0.000002
    28  H   -0.000003  -0.000000   0.000245   0.001080   0.000002   0.000008
    29  H   -0.000003  -0.000000  -0.000009   0.000086  -0.000003   0.000003
    30  H   -0.000007   0.000000  -0.000008  -0.000004   0.000000   0.000000
    31  H    0.001998  -0.000000  -0.000002   0.005377   0.000007  -0.000000
    32  H    0.000040   0.000000  -0.000012   0.005891   0.004740   0.000048
    33  H    0.006536   0.000086  -0.000000   0.000002  -0.000002  -0.000000
    34  H    0.005991  -0.000033   0.000000   0.000004   0.000000   0.000009
    35  H   -0.006004   0.002037   0.000000  -0.000004   0.000000   0.000005
    36  H    0.002903  -0.000002  -0.000000   0.006110   0.000102   0.000840
    37  H    0.000035   0.000001   0.000000   0.000019   0.000604   0.002132
    38  H    0.000154  -0.000041  -0.000000   0.000000   0.000000  -0.000000
    39  H    0.002219   0.000031   0.000000  -0.000002  -0.000000  -0.000000
    40  H    0.000096   0.002174  -0.000000  -0.000000  -0.000000  -0.000000
    41  H    0.000720  -0.004118   0.000000  -0.000000  -0.000000   0.000000
    42  H    0.006458  -0.041383  -0.000000  -0.000000  -0.000000   0.000000
    43  H    0.377773   0.000146   0.000000   0.000001   0.000000   0.000000
    44  H    0.377523   0.005933   0.000000   0.000000   0.000000   0.000000
    45  H    0.375951   0.000376  -0.000000   0.000064   0.000000  -0.000000
    46  H    0.004168   0.242610   0.000000   0.000000   0.000000   0.000000
              25         26         27         28         29         30
     1  C   -0.027501  -0.024801   0.000273  -0.000125   0.000000   0.000001
     2  O   -0.000333   0.002665  -0.000002   0.000005  -0.000000  -0.000000
     3  C    0.002159   0.005433  -0.002774  -0.008957  -0.000217  -0.000086
     4  C   -0.001666  -0.000182  -0.039978  -0.038022  -0.003311   0.004299
     5  C   -0.004188   0.004250   0.004135   0.000898   0.000526   0.000033
     6  C   -0.039771  -0.031182  -0.000160   0.000106   0.000008   0.000011
     7  C    0.367044   0.368500   0.000010  -0.000086  -0.000004  -0.000000
     8  C   -0.000040   0.000009   0.380124   0.378501  -0.036381  -0.031338
     9  C   -0.000002   0.000000  -0.031979  -0.040084   0.381377   0.379265
    10  C    0.000000   0.000002   0.004284  -0.004806  -0.039433  -0.033983
    11  C    0.000053  -0.000073  -0.000195  -0.000569  -0.008224   0.005040
    12  C    0.000000  -0.000000  -0.000117  -0.000018  -0.004434  -0.007162
    13  C    0.000000  -0.000000   0.000001   0.000003   0.000010   0.000040
    14  C   -0.000000  -0.000000  -0.000000   0.000000  -0.000014  -0.000004
    15  C   -0.000026  -0.000001   0.000009  -0.000003   0.000151  -0.000147
    16  C    0.000000   0.000000  -0.000002  -0.000010  -0.000399   0.003800
    17  C    0.000000  -0.000000  -0.000000  -0.000000  -0.000023  -0.000020
    18  C   -0.000000  -0.000000  -0.000000  -0.000000  -0.000002  -0.000011
    19  C   -0.000000   0.000000   0.000000  -0.000003  -0.000003  -0.000007
    20  O    0.000000   0.000000   0.000000  -0.000000  -0.000000   0.000000
    21  H   -0.000183  -0.000116   0.005218   0.000245  -0.000009  -0.000008
    22  H    0.006140  -0.000134  -0.000094   0.001080   0.000086  -0.000004
    23  H    0.005059  -0.002546  -0.000002   0.000002  -0.000003   0.000000
    24  H   -0.004003  -0.003111   0.000002   0.000008   0.000003   0.000000
    25  H    0.535604  -0.020623  -0.000000   0.000009   0.000000   0.000000
    26  H   -0.020623   0.508127   0.000000  -0.000001  -0.000000   0.000000
    27  H   -0.000000   0.000000   0.529272  -0.025398  -0.003451  -0.001513
    28  H    0.000009  -0.000001  -0.025398   0.549122   0.005051  -0.005282
    29  H    0.000000  -0.000000  -0.003451   0.005051   0.564571  -0.030996
    30  H    0.000000   0.000000  -0.001513  -0.005282  -0.030996   0.554397
    31  H   -0.000002   0.000000   0.000055   0.004345   0.005578  -0.002452
    32  H    0.000010  -0.000001  -0.000030   0.000089   0.006101   0.000105
    33  H   -0.000000   0.000000   0.000004   0.000003   0.004430  -0.000064
    34  H   -0.000000   0.000000  -0.000000  -0.000000  -0.000010   0.000001
    35  H    0.000000   0.000000   0.000000  -0.000000   0.000000  -0.000000
    36  H    0.000003   0.000001  -0.000000  -0.000002  -0.000001   0.000004
    37  H    0.000012   0.000002  -0.000000   0.000000  -0.000006   0.000002
    38  H    0.000000  -0.000000   0.000002   0.000005   0.000240   0.001289
    39  H   -0.000000   0.000000   0.000001  -0.000001   0.000051   0.000382
    40  H   -0.000000   0.000000   0.000000  -0.000000  -0.000000   0.000003
    41  H   -0.000000   0.000000   0.000000   0.000000   0.000000   0.000002
    42  H   -0.000000   0.000000   0.000000  -0.000000  -0.000002  -0.000000
    43  H    0.000000  -0.000000  -0.000000   0.000000   0.000000   0.000000
    44  H    0.000000  -0.000000   0.000000   0.000000   0.000000  -0.000000
    45  H    0.000000   0.000000  -0.000000  -0.000004  -0.000001   0.000002
    46  H    0.000000   0.000000  -0.000000   0.000000  -0.000000  -0.000000
              31         32         33         34         35         36
     1  C    0.000004   0.000025   0.000000   0.000000  -0.000000   0.000002
     2  O    0.000000  -0.000000   0.000000   0.000000  -0.000000  -0.000000
     3  C   -0.000253  -0.000105  -0.000001  -0.000000  -0.000000  -0.000011
     4  C   -0.004532  -0.003841  -0.000074   0.000002   0.000001   0.000150
     5  C   -0.001178  -0.040677   0.000187   0.000054  -0.000101  -0.003869
     6  C    0.000171  -0.004616   0.000001  -0.000020   0.000001  -0.001059
     7  C   -0.000012  -0.000073  -0.000000  -0.000000  -0.000000  -0.000067
     8  C    0.000729   0.000203   0.000106   0.000000  -0.000000  -0.000005
     9  C   -0.048286  -0.006852  -0.005791  -0.000028   0.000010  -0.000011
    10  C    0.382082  -0.046407  -0.044326  -0.000492  -0.000050  -0.003911
    11  C   -0.048959   0.378375  -0.005709  -0.003898   0.004304  -0.044870
    12  C   -0.043190  -0.004147   0.383435  -0.006004   0.006085  -0.000441
    13  C   -0.008250  -0.001028  -0.052918  -0.037683  -0.032715  -0.007658
    14  C    0.000269  -0.000464  -0.006072   0.378388   0.377367  -0.035960
    15  C   -0.002529  -0.043763  -0.000971  -0.037370  -0.035953   0.381679
    16  C   -0.004402  -0.000046  -0.046983   0.000044  -0.000235  -0.000018
    17  C   -0.000031   0.000003  -0.002634   0.000104   0.000009  -0.000001
    18  C    0.000069  -0.000050  -0.003006  -0.006348  -0.003531  -0.000040
    19  C    0.001998   0.000040   0.006536   0.005991  -0.006004   0.002903
    20  O   -0.000000   0.000000   0.000086  -0.000033   0.002037  -0.000002
    21  H   -0.000002  -0.000012  -0.000000   0.000000   0.000000  -0.000000
    22  H    0.005377   0.005891   0.000002   0.000004  -0.000004   0.006110
    23  H    0.000007   0.004740  -0.000002   0.000000   0.000000   0.000102
    24  H   -0.000000   0.000048  -0.000000   0.000009   0.000005   0.000840
    25  H   -0.000002   0.000010  -0.000000  -0.000000   0.000000   0.000003
    26  H    0.000000  -0.000001   0.000000   0.000000   0.000000   0.000001
    27  H    0.000055  -0.000030   0.000004  -0.000000   0.000000  -0.000000
    28  H    0.004345   0.000089   0.000003  -0.000000  -0.000000  -0.000002
    29  H    0.005578   0.006101   0.004430  -0.000010   0.000000  -0.000001
    30  H   -0.002452   0.000105  -0.000064   0.000001  -0.000000   0.000004
    31  H    0.606080   0.005880   0.006088   0.000039  -0.000010   0.001707
    32  H    0.005880   0.600827   0.004423   0.003093  -0.000077   0.005532
    33  H    0.006088   0.004423   0.618043   0.005055   0.000030   0.000086
    34  H    0.000039   0.003093   0.005055   0.576175  -0.029650   0.005034
    35  H   -0.000010  -0.000077   0.000030  -0.029650   0.553370  -0.004307
    36  H    0.001707   0.005532   0.000086   0.005034  -0.004307   0.576679
    37  H   -0.000071  -0.005281  -0.000085  -0.004582  -0.002182  -0.031292
    38  H   -0.000138  -0.000001  -0.005587  -0.000001   0.000003   0.000000
    39  H    0.004098   0.000003   0.005441  -0.000007   0.000004  -0.000006
    40  H    0.000002  -0.000000   0.000846  -0.000017  -0.000000   0.000000
    41  H   -0.000003  -0.000000  -0.000003  -0.000002   0.000001  -0.000000
    42  H   -0.000009  -0.000005   0.004338   0.005947   0.000253  -0.000000
    43  H    0.000063   0.000001  -0.000074  -0.000147  -0.000009  -0.000035
    44  H   -0.000026   0.000002  -0.000105   0.000073   0.004846   0.000440
    45  H    0.003695  -0.000013  -0.000001  -0.000080  -0.000086   0.001633
    46  H   -0.000001  -0.000000   0.000003  -0.000000  -0.000043  -0.000001
              37         38         39         40         41         42
     1  C   -0.000009   0.000000   0.000000   0.000000   0.000000   0.000000
     2  O   -0.000000  -0.000000   0.000000  -0.000000  -0.000000  -0.000000
     3  C    0.000013   0.000000  -0.000000   0.000000   0.000000  -0.000000
     4  C   -0.000109  -0.000002  -0.000000   0.000000  -0.000000   0.000000
     5  C   -0.006008   0.000001   0.000001  -0.000000  -0.000000  -0.000000
     6  C    0.001486  -0.000000   0.000000   0.000000   0.000000  -0.000000
     7  C    0.000024   0.000000  -0.000000  -0.000000  -0.000000  -0.000000
     8  C   -0.000011  -0.000018  -0.000027  -0.000000  -0.000000  -0.000000
     9  C   -0.000135   0.001153  -0.000440  -0.000007   0.000001   0.000008
    10  C    0.004567  -0.001786  -0.003993  -0.000055  -0.000168  -0.000352
    11  C   -0.031357  -0.000075   0.000065   0.000004   0.000003  -0.000010
    12  C    0.000094  -0.027085  -0.038738   0.000265   0.004306  -0.001690
    13  C    0.004849   0.005154  -0.006638   0.004158  -0.001073  -0.065139
    14  C   -0.034331  -0.000160   0.000046  -0.000135  -0.000109  -0.007353
    15  C    0.380514  -0.000003  -0.000024   0.000003   0.000004   0.000107
    16  C    0.000009   0.377850   0.385822  -0.028888  -0.028958   0.002837
    17  C    0.000003  -0.028216  -0.034172   0.377185   0.371515  -0.042456
    18  C   -0.000078   0.002883   0.001404  -0.024705  -0.036107   0.396328
    19  C    0.000035   0.000154   0.002219   0.000096   0.000720   0.006458
    20  O    0.000001  -0.000041   0.000031   0.002174  -0.004118  -0.041383
    21  H    0.000000  -0.000000   0.000000  -0.000000   0.000000  -0.000000
    22  H    0.000019   0.000000  -0.000002  -0.000000  -0.000000  -0.000000
    23  H    0.000604   0.000000  -0.000000  -0.000000  -0.000000  -0.000000
    24  H    0.002132  -0.000000  -0.000000  -0.000000   0.000000   0.000000
    25  H    0.000012   0.000000  -0.000000  -0.000000  -0.000000  -0.000000
    26  H    0.000002  -0.000000   0.000000   0.000000   0.000000   0.000000
    27  H   -0.000000   0.000002   0.000001   0.000000   0.000000   0.000000
    28  H    0.000000   0.000005  -0.000001  -0.000000   0.000000  -0.000000
    29  H   -0.000006   0.000240   0.000051  -0.000000   0.000000  -0.000002
    30  H    0.000002   0.001289   0.000382   0.000003   0.000002  -0.000000
    31  H   -0.000071  -0.000138   0.004098   0.000002  -0.000003  -0.000009
    32  H   -0.005281  -0.000001   0.000003  -0.000000  -0.000000  -0.000005
    33  H   -0.000085  -0.005587   0.005441   0.000846  -0.000003   0.004338
    34  H   -0.004582  -0.000001  -0.000007  -0.000017  -0.000002   0.005947
    35  H   -0.002182   0.000003   0.000004  -0.000000   0.000001   0.000253
    36  H   -0.031292   0.000000  -0.000006   0.000000  -0.000000  -0.000000
    37  H    0.556200  -0.000000   0.000000  -0.000000  -0.000000  -0.000006
    38  H   -0.000000   0.548232  -0.032243  -0.006710   0.002270  -0.000102
    39  H    0.000000  -0.032243   0.563830   0.003847  -0.009015  -0.000161
    40  H   -0.000000  -0.006710   0.003847   0.529423  -0.027749  -0.006889
    41  H   -0.000000   0.002270  -0.009015  -0.027749   0.567942   0.004106
    42  H   -0.000006  -0.000102  -0.000161  -0.006889   0.004106   0.586298
    43  H    0.000000   0.000012   0.000930  -0.000029   0.000380   0.000075
    44  H   -0.000034   0.000001   0.000014  -0.000006  -0.000003   0.000017
    45  H    0.000027  -0.000018   0.000308   0.000001  -0.000003  -0.000098
    46  H   -0.000000  -0.000007  -0.000120  -0.000111   0.010347   0.006830
              43         44         45         46
     1  C   -0.000000   0.000000   0.000000  -0.000000
     2  O   -0.000000   0.000000  -0.000000  -0.000000
     3  C    0.000000  -0.000000  -0.000000  -0.000000
     4  C    0.000000   0.000000   0.000001   0.000000
     5  C   -0.000002  -0.000003   0.000053  -0.000000
     6  C   -0.000000   0.000000   0.000002   0.000000
     7  C    0.000000   0.000000  -0.000000  -0.000000
     8  C   -0.000000  -0.000000   0.000009  -0.000000
     9  C   -0.000020   0.000001  -0.000047  -0.000000
    10  C   -0.000069   0.000004   0.001677  -0.000003
    11  C    0.000025   0.000069  -0.000366   0.000001
    12  C   -0.004126   0.005326  -0.005579  -0.000056
    13  C   -0.035161  -0.028859  -0.031995  -0.005196
    14  C    0.005057  -0.004737  -0.004514  -0.000150
    15  C    0.000048  -0.000485   0.001735   0.000002
    16  C    0.001484  -0.000228  -0.000294   0.000238
    17  C    0.003199   0.000376  -0.000021  -0.008815
    18  C   -0.004767  -0.005683   0.005021  -0.029291
    19  C    0.377773   0.377523   0.375951   0.004168
    20  O    0.000146   0.005933   0.000376   0.242610
    21  H    0.000000   0.000000  -0.000000   0.000000
    22  H    0.000001   0.000000   0.000064   0.000000
    23  H    0.000000   0.000000   0.000000   0.000000
    24  H    0.000000   0.000000  -0.000000   0.000000
    25  H    0.000000   0.000000   0.000000   0.000000
    26  H   -0.000000  -0.000000   0.000000   0.000000
    27  H   -0.000000   0.000000  -0.000000  -0.000000
    28  H    0.000000   0.000000  -0.000004   0.000000
    29  H    0.000000   0.000000  -0.000001  -0.000000
    30  H    0.000000  -0.000000   0.000002  -0.000000
    31  H    0.000063  -0.000026   0.003695  -0.000001
    32  H    0.000001   0.000002  -0.000013  -0.000000
    33  H   -0.000074  -0.000105  -0.000001   0.000003
    34  H   -0.000147   0.000073  -0.000080  -0.000000
    35  H   -0.000009   0.004846  -0.000086  -0.000043
    36  H   -0.000035   0.000440   0.001633  -0.000001
    37  H    0.000000  -0.000034   0.000027  -0.000000
    38  H    0.000012   0.000001  -0.000018  -0.000007
    39  H    0.000930   0.000014   0.000308  -0.000120
    40  H   -0.000029  -0.000006   0.000001  -0.000111
    41  H    0.000380  -0.000003  -0.000003   0.010347
    42  H    0.000075   0.000017  -0.000098   0.006830
    43  H    0.558394  -0.026942  -0.027626   0.001097
    44  H   -0.026942   0.517295  -0.027541  -0.000283
    45  H   -0.027626  -0.027541   0.543326  -0.000013
    46  H    0.001097  -0.000283  -0.000013   0.377762
 Mulliken charges:
               1
     1  C    0.456942
     2  O   -0.514308
     3  C   -0.270246
     4  C    0.169354
     5  C   -0.185996
     6  C   -0.332346
     7  C   -0.403550
     8  C   -0.386068
     9  C   -0.309671
    10  C   -0.129488
    11  C   -0.116264
    12  C   -0.126138
    13  C    0.046657
    14  C   -0.310911
    15  C   -0.324186
    16  C   -0.322468
    17  C   -0.360012
    18  C    0.133959
    19  C   -0.530123
    20  O   -0.653464
    21  H    0.169975
    22  H    0.161111
    23  H    0.167830
    24  H    0.168159
    25  H    0.182244
    26  H    0.193785
    27  H    0.182306
    28  H    0.183897
    29  H    0.158741
    30  H    0.164401
    31  H    0.135999
    32  H    0.142098
    33  H    0.135263
    34  H    0.146356
    35  H    0.166632
    36  H    0.150661
    37  H    0.164984
    38  H    0.162943
    39  H    0.157089
    40  H    0.177296
    41  H    0.145714
    42  H    0.152051
    43  H    0.150323
    44  H    0.183015
    45  H    0.164422
    46  H    0.401033
 Sum of Mulliken charges =  -0.00000
 Mulliken charges with hydrogens summed into heavy atoms:
               1
     1  C    0.456942
     2  O   -0.514308
     3  C   -0.100270
     4  C    0.169354
     5  C   -0.024886
     6  C    0.003643
     7  C   -0.027521
     8  C   -0.019865
     9  C    0.013472
    10  C    0.006511
    11  C    0.025834
    12  C    0.009124
    13  C    0.046657
    14  C    0.002077
    15  C   -0.008541
    16  C   -0.002436
    17  C   -0.037002
    18  C    0.286010
    19  C   -0.032363
    20  O   -0.252431
 Electronic spatial extent (au):  <R**2>=           6879.1591
 Charge=             -0.0000 electrons
 Dipole moment (field-independent basis, Debye):
    X=             -4.6018    Y=              1.3384    Z=              1.0587  Tot=              4.9080
 Quadrupole moment (field-independent basis, Debye-Ang):
   XX=           -163.9482   YY=           -118.1401   ZZ=           -117.2892
   XY=             -8.3539   XZ=             -4.4080   YZ=             -1.0305
 Traceless Quadrupole moment (field-independent basis, Debye-Ang):
   XX=            -30.8224   YY=             14.9857   ZZ=             15.8366
   XY=             -8.3539   XZ=             -4.4080   YZ=             -1.0305
 Octapole moment (field-independent basis, Debye-Ang**2):
  XXX=           -276.7509  YYY=              1.5621  ZZZ=             -0.6538  XYY=             23.1643
  XXY=             29.5223  XXZ=             34.8277  XZZ=             -8.2170  YZZ=             -2.7166
  YYZ=              0.0453  XYZ=              5.8676
 Hexadecapole moment (field-independent basis, Debye-Ang**3):
 XXXX=          -9090.0351 YYYY=          -1395.7382 ZZZZ=           -403.4455 XXXY=           -189.0799
 XXXZ=           -199.9589 YYYX=             11.7958 YYYZ=             -5.5253 ZZZX=              8.3379
 ZZZY=              1.4773 XXYY=          -1434.0374 XXZZ=          -1195.8118 YYZZ=           -301.9663
 XXYZ=            -34.2027 YYXZ=             -6.8420 ZZXY=              1.3539
 N-N= 1.668992876889D+03 E-N=-5.315236821748D+03  KE= 8.443384598320D+02

 **********************************************************************

            Electrostatic Properties Using The SCF Density.

 **********************************************************************

       Atomic Center    1 is at   4.694871 -0.134634  0.035955
       Atomic Center    2 is at   5.937956 -0.035753  0.001895
       Atomic Center    3 is at   3.830369  0.985993 -0.068574
       Atomic Center    4 is at   2.482150  0.905529  0.078409
       Atomic Center    5 is at   1.789479 -0.416181  0.201062
       Atomic Center    6 is at   2.675747 -1.522767 -0.376764
       Atomic Center    7 is at   4.053928 -1.474744  0.264868
       Atomic Center    8 is at   1.692556  2.149527  0.230621
       Atomic Center    9 is at   0.275869  2.065739 -0.326800
       Atomic Center   10 is at  -0.409881  0.787884  0.143651
       Atomic Center   11 is at   0.375169 -0.406603 -0.417697
       Atomic Center   12 is at  -1.854608  0.723542 -0.326678
       Atomic Center   13 is at  -2.563151 -0.582708  0.065260
       Atomic Center   14 is at  -1.812874 -1.735686 -0.598205
       Atomic Center   15 is at  -0.340601 -1.741644 -0.175082
       Atomic Center   16 is at  -2.828208  1.798420  0.150918
       Atomic Center   17 is at  -4.198748  1.208937 -0.223494
       Atomic Center   18 is at  -3.965604 -0.288879 -0.523085
       Atomic Center   19 is at  -2.670262 -0.814633  1.574720
       Atomic Center   20 is at  -5.005696 -1.120950 -0.059317
       Atomic Center   21 is at   4.304846  1.950978 -0.179708
       Atomic Center   22 is at   1.668118 -0.606250  1.278373
       Atomic Center   23 is at   2.769997 -1.389634 -1.458143
       Atomic Center   24 is at   2.232383 -2.499895 -0.190929
       Atomic Center   25 is at   3.954652 -1.610700  1.348049
       Atomic Center   26 is at   4.701978 -2.266512 -0.119627
       Atomic Center   27 is at   2.228332  2.993934 -0.204193
       Atomic Center   28 is at   1.643494  2.341671  1.310680
       Atomic Center   29 is at   0.316851  2.076317 -1.418360
       Atomic Center   30 is at  -0.291074  2.940189 -0.012103
       Atomic Center   31 is at  -0.384997  0.758814  1.232592
       Atomic Center   32 is at   0.477539 -0.265432 -1.499956
       Atomic Center   33 is at  -1.848723  0.763036 -1.422441
       Atomic Center   34 is at  -1.886316 -1.639582 -1.683410
       Atomic Center   35 is at  -2.252035 -2.697017 -0.327567
       Atomic Center   36 is at  -0.266629 -2.000522  0.881958
       Atomic Center   37 is at   0.159325 -2.526842 -0.744185
       Atomic Center   38 is at  -2.657304  2.760977 -0.324769
       Atomic Center   39 is at  -2.744020  1.936890  1.227290
       Atomic Center   40 is at  -4.619369  1.711840 -1.093657
       Atomic Center   41 is at  -4.911075  1.315982  0.595201
       Atomic Center   42 is at  -3.925398 -0.461632 -1.604323
       Atomic Center   43 is at  -3.298909 -0.071653  2.053299
       Atomic Center   44 is at  -3.097492 -1.795752  1.768303
       Atomic Center   45 is at  -1.695032 -0.783304  2.045493
       Atomic Center   46 is at  -5.394423 -0.724829  0.746996
 -----------------------------------------------------------------

              Electrostatic Properties (Atomic Units)

 -----------------------------------------------------------------
    Center     Electric         -------- Electric Field --------
               Potential          X             Y             Z
 -----------------------------------------------------------------
    1 Atom    -14.676197      0.004432     -0.003426     -0.000088
    2 Atom    -22.355315      0.104092      0.007970     -0.003124
    3 Atom    -14.751057     -0.009720      0.000850      0.000875
    4 Atom    -14.711150      0.013069      0.000143     -0.002006
    5 Atom    -14.721142     -0.002534     -0.004667     -0.003108
    6 Atom    -14.735489     -0.000275     -0.000733      0.000667
    7 Atom    -14.743781      0.001171     -0.000540     -0.002959
    8 Atom    -14.728333     -0.002362      0.002775     -0.001235
    9 Atom    -14.735173     -0.002047     -0.002198      0.000652
   10 Atom    -14.733315     -0.001174      0.000176     -0.003940
   11 Atom    -14.728736     -0.002149      0.000064      0.002157
   12 Atom    -14.739129      0.000031     -0.002140      0.004645
   13 Atom    -14.737056     -0.001828      0.000723     -0.004556
   14 Atom    -14.745912     -0.002512      0.001950      0.002192
   15 Atom    -14.740088     -0.000771      0.000512     -0.001562
   16 Atom    -14.739337      0.002219     -0.000611     -0.000959
   17 Atom    -14.738102      0.000673     -0.001679     -0.001543
   18 Atom    -14.693007      0.019467      0.010827     -0.005865
   19 Atom    -14.747918      0.000398     -0.001453     -0.003161
   20 Atom    -22.313512     -0.033944     -0.095276     -0.051759
   21 Atom     -1.109349      0.017947      0.032919     -0.003456
   22 Atom     -1.102946     -0.005180     -0.007802      0.032569
   23 Atom     -1.118447      0.001351      0.001986     -0.032829
   24 Atom     -1.119852     -0.014262     -0.029916      0.003175
   25 Atom     -1.106992     -0.000125     -0.007419      0.031891
   26 Atom     -1.119012      0.022021     -0.019002     -0.008668
   27 Atom     -1.109415      0.016880      0.025824     -0.012241
   28 Atom     -1.101879     -0.002838      0.009448      0.031205
   29 Atom     -1.117423     -0.001043      0.002226     -0.033870
   30 Atom     -1.118168     -0.017934      0.028361      0.008408
   31 Atom     -1.117270     -0.000392     -0.000758      0.037903
   32 Atom     -1.118980      0.002504      0.004103     -0.033864
   33 Atom     -1.121999      0.001301      0.000668     -0.034762
   34 Atom     -1.126450     -0.003398      0.000946     -0.034107
   35 Atom     -1.130178     -0.017243     -0.028731      0.005767
   36 Atom     -1.121492      0.003307     -0.011957      0.032525
   37 Atom     -1.123875      0.015886     -0.024736     -0.013800
   38 Atom     -1.121942      0.005505      0.031161     -0.013423
   39 Atom     -1.120619      0.003786      0.006803      0.033875
   40 Atom     -1.119112     -0.015482      0.015211     -0.024066
   41 Atom     -1.111529     -0.023588      0.008166      0.023455
   42 Atom     -1.127471      0.001320     -0.005197     -0.031507
   43 Atom     -1.115160     -0.019301      0.024043      0.020338
   44 Atom     -1.120202     -0.015454     -0.029837      0.004885
   45 Atom     -1.117130      0.030664      0.000840      0.019139
   46 Atom     -0.996442     -0.013939      0.009076      0.025568
 -----------------------------------------------------------------
 -----------------------------------------------------
    Center         ---- Electric Field Gradient ----
                     XX            YY            ZZ
 -----------------------------------------------------
    1 Atom     -493.301818   -493.227377   -493.979654
    2 Atom    -1217.185479  -1214.590110  -1217.615201
    3 Atom     -493.150928   -493.212170   -493.461235
    4 Atom     -493.186496   -493.275524   -493.858032
    5 Atom     -492.766561   -492.804703   -492.797345
    6 Atom     -492.660474   -492.625299   -492.633519
    7 Atom     -492.726328   -492.741346   -492.758837
    8 Atom     -492.592997   -492.632337   -492.611024
    9 Atom     -492.695991   -492.646006   -492.660983
   10 Atom     -492.783106   -492.798010   -492.792831
   11 Atom     -492.846302   -492.801257   -492.815928
   12 Atom     -492.934384   -492.944771   -492.939024
   13 Atom     -492.937033   -492.941059   -492.992705
   14 Atom     -492.727269   -492.683961   -492.704777
   15 Atom     -492.656089   -492.659146   -492.633372
   16 Atom     -492.694634   -492.635470   -492.627870
   17 Atom     -492.733211   -492.725487   -492.710597
   18 Atom     -492.894094   -492.841721   -492.695870
   19 Atom     -492.569244   -492.564611   -492.602094
   20 Atom    -1214.405459  -1213.887151  -1214.638232
   21 Atom       -1.704306     -1.988034     -1.605558
   22 Atom       -1.625636     -1.632546     -2.016697
   23 Atom       -1.626944     -1.626570     -2.046856
   24 Atom       -1.711215     -1.992770     -1.644252
   25 Atom       -1.606585     -1.609616     -2.024042
   26 Atom       -1.757620     -1.835545     -1.659436
   27 Atom       -1.734535     -1.888595     -1.689754
   28 Atom       -1.609951     -1.622891     -2.020420
   29 Atom       -1.630910     -1.629414     -2.066684
   30 Atom       -1.756817     -1.923653     -1.669277
   31 Atom       -1.648418     -1.646942     -2.087973
   32 Atom       -1.643531     -1.648502     -2.052521
   33 Atom       -1.652260     -1.645895     -2.068400
   34 Atom       -1.635830     -1.636159     -2.068030
   35 Atom       -1.700069     -1.972473     -1.655998
   36 Atom       -1.637170     -1.658038     -2.050109
   37 Atom       -1.731474     -1.863944     -1.751287
   38 Atom       -1.645578     -1.989602     -1.720533
   39 Atom       -1.637573     -1.640372     -2.074328
   40 Atom       -1.693386     -1.723093     -1.913064
   41 Atom       -1.821538     -1.642106     -1.884735
   42 Atom       -1.671987     -1.678359     -2.078212
   43 Atom       -1.779805     -1.841011     -1.715696
   44 Atom       -1.672454     -1.975485     -1.620687
   45 Atom       -2.001025     -1.617578     -1.710325
   46 Atom       -1.523969     -1.537852     -1.836362
 -----------------------------------------------------
 -----------------------------------------------------
    Center         ---- Electric Field Gradient ----
                     XY            XZ            YZ
 -----------------------------------------------------
    1 Atom       -0.019469     -0.006792     -0.103603
    2 Atom       -0.195646      0.030988     -0.404137
    3 Atom       -0.009983     -0.029563     -0.024844
    4 Atom        0.000037     -0.067331      0.000702
    5 Atom       -0.021113     -0.010652     -0.005146
    6 Atom        0.028854     -0.001958     -0.027135
    7 Atom       -0.006391     -0.032547      0.002345
    8 Atom        0.022712     -0.021118     -0.007926
    9 Atom       -0.007076     -0.018812      0.020066
   10 Atom       -0.002908      0.007195      0.000723
   11 Atom       -0.005191     -0.015996     -0.011073
   12 Atom        0.020467     -0.006872     -0.000497
   13 Atom       -0.000181      0.010070      0.013180
   14 Atom        0.005645     -0.011899     -0.020334
   15 Atom       -0.019218     -0.003435      0.017764
   16 Atom       -0.010397     -0.007334     -0.014722
   17 Atom       -0.007802      0.008800     -0.032305
   18 Atom       -0.173734      0.126388      0.115662
   19 Atom        0.014590      0.008649      0.006452
   20 Atom       -0.751379      1.487132     -0.378004
   21 Atom       -0.175951      0.021830      0.043850
   22 Atom       -0.007831      0.046995      0.071657
   23 Atom       -0.002234      0.035357      0.051872
   24 Atom       -0.162681      0.030671      0.067600
   25 Atom       -0.006593      0.039681      0.053883
   26 Atom        0.186749      0.089920     -0.112219
   27 Atom       -0.165886      0.086974      0.138174
   28 Atom        0.006461      0.020870     -0.074463
   29 Atom       -0.002263      0.014844      0.003393
   30 Atom        0.186430      0.066815     -0.105246
   31 Atom       -0.001002     -0.010440      0.013018
   32 Atom       -0.005029      0.038245      0.054886
   33 Atom       -0.000287      0.002657      0.014295
   34 Atom        0.005727     -0.029113      0.039882
   35 Atom       -0.156569      0.044615      0.096585
   36 Atom        0.004684     -0.030310      0.101635
   37 Atom        0.145697      0.105752     -0.165702
   38 Atom       -0.064247      0.030137      0.176775
   39 Atom       -0.005339     -0.033354     -0.056039
   40 Atom        0.079242     -0.138170      0.164878
   41 Atom        0.023511      0.222386     -0.029811
   42 Atom       -0.002806      0.021283     -0.061221
   43 Atom        0.188072      0.118046     -0.139192
   44 Atom       -0.160848      0.035337      0.073032
   45 Atom       -0.012860     -0.181756     -0.006190
   46 Atom        0.076441      0.214076     -0.211748
 -----------------------------------------------------
 -----------------------------------------------------
    Center         ---- Electric Field Gradient ----
                   ----       Eigenvalues       ----
 -----------------------------------------------------
    1 Atom     -493.993788   -493.305365   -493.209697
    2 Atom    -1217.668320  -1217.200144  -1214.522327
    3 Atom     -493.466618   -493.210497   -493.147217
    4 Atom     -493.864717   -493.275524   -493.179812
    5 Atom     -492.818183   -492.794699   -492.755728
    6 Atom     -492.680193   -492.645730   -492.593370
    7 Atom     -492.779014   -492.742520   -492.704978
    8 Atom     -492.642818   -492.623334   -492.570207
    9 Atom     -492.704230   -492.670861   -492.627889
   10 Atom     -492.799610   -492.795318   -492.779020
   11 Atom     -492.854776   -492.813619   -492.795091
   12 Atom     -492.961371   -492.939855   -492.916952
   13 Atom     -492.997476   -492.939136   -492.934185
   14 Atom     -492.732627   -492.713994   -492.669387
   15 Atom     -492.679687   -492.649060   -492.619861
   16 Atom     -492.697809   -492.643703   -492.616461
   17 Atom     -492.751219   -492.735890   -492.682186
   18 Atom     -493.113783   -492.692552   -492.625351
   19 Atom     -492.604462   -492.581467   -492.550021
   20 Atom    -1216.041460  -1214.349737  -1212.539645
   21 Atom       -2.077273     -1.620182     -1.600443
   22 Atom       -2.035170     -1.620533     -1.619175
   23 Atom       -2.056078     -1.624925     -1.619367
   24 Atom       -2.079781     -1.636865     -1.631592
   25 Atom       -2.034708     -1.604268     -1.601267
   26 Atom       -2.041477     -1.606540     -1.604584
   27 Atom       -2.065419     -1.628754     -1.618710
   28 Atom       -2.035017     -1.611771     -1.606474
   29 Atom       -2.067217     -1.632102     -1.627690
   30 Atom       -2.082118     -1.636265     -1.631365
   31 Atom       -2.088603     -1.648903     -1.645828
   32 Atom       -2.063388     -1.641183     -1.639983
   33 Atom       -2.068900     -1.652248     -1.645407
   34 Atom       -2.073671     -1.636288     -1.630060
   35 Atom       -2.071061     -1.629286     -1.628193
   36 Atom       -2.077012     -1.636924     -1.631381
   37 Atom       -2.076550     -1.637750     -1.632404
   38 Atom       -2.088577     -1.635209     -1.631928
   39 Atom       -2.084001     -1.635539     -1.632733
   40 Atom       -2.074864     -1.628013     -1.626667
   41 Atom       -2.081033     -1.639127     -1.628219
   42 Atom       -2.088398     -1.676065     -1.664096
   43 Atom       -2.089954     -1.626703     -1.619855
   44 Atom       -2.059903     -1.608055     -1.600669
   45 Atom       -2.088834     -1.622948     -1.617145
   46 Atom       -2.044009     -1.455254     -1.398920
 -----------------------------------------------------
 -----------------------------------------------------
    Center         ---- Electric Field Gradient ----
                       ( tensor representation )
                   3XX-RR        3YY-RR        3ZZ-RR
 -----------------------------------------------------
    1 Atom        0.201132      0.275573     -0.476705
    2 Atom       -0.721882      1.873487     -1.151604
    3 Atom        0.123850      0.062608     -0.186457
    4 Atom        0.253521      0.164493     -0.418014
    5 Atom        0.022975     -0.015167     -0.007809
    6 Atom       -0.020710      0.014465      0.006245
    7 Atom        0.015842      0.000824     -0.016667
    8 Atom        0.019123     -0.020218      0.001095
    9 Atom       -0.028331      0.021654      0.006677
   10 Atom        0.008209     -0.006694     -0.001515
   11 Atom       -0.025140      0.019905      0.005235
   12 Atom        0.005009     -0.005378      0.000369
   13 Atom        0.019899      0.015873     -0.035773
   14 Atom       -0.021933      0.021374      0.000559
   15 Atom       -0.006554     -0.009610      0.016164
   16 Atom       -0.041976      0.017188      0.024788
   17 Atom       -0.010113     -0.002389      0.012502
   18 Atom       -0.083532     -0.031159      0.114691
   19 Atom        0.009405      0.014039     -0.023444
   20 Atom       -0.095178      0.423129     -0.327951
   21 Atom        0.061660     -0.222068      0.160408
   22 Atom        0.132657      0.125747     -0.258404
   23 Atom        0.139846      0.140220     -0.280066
   24 Atom        0.071530     -0.210024      0.138494
   25 Atom        0.140163      0.137132     -0.277295
   26 Atom       -0.006753     -0.084678      0.091431
   27 Atom        0.036426     -0.117634      0.081208
   28 Atom        0.141137      0.128196     -0.269333
   29 Atom        0.144759      0.146255     -0.291015
   30 Atom        0.026432     -0.140404      0.113972
   31 Atom        0.146026      0.147502     -0.293529
   32 Atom        0.137987      0.133016     -0.271003
   33 Atom        0.136592      0.142956     -0.279548
   34 Atom        0.144176      0.143847     -0.288023
   35 Atom        0.076111     -0.196293      0.120182
   36 Atom        0.144602      0.123735     -0.268337
   37 Atom        0.050761     -0.081709      0.030948
   38 Atom        0.139660     -0.204364      0.064704
   39 Atom        0.146518      0.143719     -0.290237
   40 Atom        0.083129      0.053421     -0.136550
   41 Atom       -0.038745      0.140687     -0.101942
   42 Atom        0.137532      0.131160     -0.268693
   43 Atom       -0.000968     -0.062173      0.063141
   44 Atom        0.083755     -0.219276      0.135522
   45 Atom       -0.224716      0.158731      0.065984
   46 Atom        0.108758      0.094876     -0.203634
 -----------------------------------------------------
 -----------------------------------------------------
    Center         ---- Electric Field Gradient ----
                       ( tensor representation )
                   ----       Eigenvalues       ----
 -----------------------------------------------------
    1 Atom       -0.490838      0.197585      0.293253
    2 Atom       -1.204723     -0.736547      1.941270
    3 Atom       -0.191841      0.064280      0.127560
    4 Atom       -0.424699      0.164494      0.260206
    5 Atom       -0.028646     -0.005162      0.033809
    6 Atom       -0.040429     -0.005966      0.046394
    7 Atom       -0.036843     -0.000349      0.037192
    8 Atom       -0.030698     -0.011215      0.041913
    9 Atom       -0.036570     -0.003201      0.039771
   10 Atom       -0.008294     -0.004002      0.012296
   11 Atom       -0.033614      0.007543      0.026071
   12 Atom       -0.021978     -0.000462      0.022441
   13 Atom       -0.040544      0.017796      0.022747
   14 Atom       -0.027291     -0.008658      0.035949
   15 Atom       -0.030151      0.000476      0.029675
   16 Atom       -0.045152      0.008955      0.036197
   17 Atom       -0.028120     -0.012792      0.040912
   18 Atom       -0.303221      0.118010      0.185211
   19 Atom       -0.025812     -0.002817      0.028629
   20 Atom       -1.731179     -0.039456      1.770636
   21 Atom       -0.311307      0.145784      0.165523
   22 Atom       -0.276877      0.137760      0.139118
   23 Atom       -0.289288      0.141865      0.147423
   24 Atom       -0.297035      0.145881      0.151154
   25 Atom       -0.287960      0.142480      0.145480
   26 Atom       -0.290610      0.144327      0.146283
   27 Atom       -0.294458      0.142207      0.152251
   28 Atom       -0.283930      0.139317      0.144613
   29 Atom       -0.291547      0.143568      0.147980
   30 Atom       -0.298869      0.146985      0.151884
   31 Atom       -0.294159      0.145542      0.148617
   32 Atom       -0.281870      0.140335      0.141535
   33 Atom       -0.280048      0.136603      0.143445
   34 Atom       -0.293665      0.143718      0.149946
   35 Atom       -0.294882      0.146894      0.147987
   36 Atom       -0.295240      0.144848      0.150391
   37 Atom       -0.294316      0.144485      0.149831
   38 Atom       -0.303339      0.150029      0.153310
   39 Atom       -0.299910      0.148552      0.151358
   40 Atom       -0.298349      0.148502      0.149848
   41 Atom       -0.298240      0.143666      0.154574
   42 Atom       -0.278879      0.133455      0.145424
   43 Atom       -0.311117      0.152135      0.158982
   44 Atom       -0.303694      0.148154      0.155540
   45 Atom       -0.312525      0.153361      0.159164
   46 Atom       -0.411281      0.177474      0.233808
 -----------------------------------------------------
 Unable to Open any file for archive entry.
 1\1\GINC-EXP-3-49\SP\RwB97XD\6-31G(d)\C18H26O2\HKLEM\12-Aug-2024\0\\# 
 wb97xd 6-31G(d) prop=efg\\19nt_mm_min_distance_cutoff6_xtb_ligand_conf
 _1\\0,1\C,0,43.2693,42.5498,31.1054\O,0,42.942,41.4574,31.6111\C,0,43.
 1853,43.7796,31.8087\C,0,43.432,44.9863,31.2353\C,0,43.9757,45.0911,29
 .8442\C,0,44.6609,43.7788,29.454\C,0,43.7109,42.6108,29.67\C,0,43.0541
 ,46.2239,31.9562\C,0,43.9514,47.4208,31.6612\C,0,44.1657,47.572,30.159
 3\C,0,44.8939,46.3176,29.6549\C,0,44.9852,48.811,29.8339\C,0,45.286,48
 .9635,28.3345\C,0,46.0999,47.7473,27.8976\C,0,45.3408,46.45,28.1933\C,
 0,44.4239,50.1797,30.212\C,0,45.3265,51.1477,29.4282\C,0,46.0719,50.29
 77,28.3749\C,0,44.0434,49.118,27.4537\O,0,46.2242,50.9511,27.1343\H,0,
 42.8158,43.7293,32.8234\H,0,43.1093,45.2322,29.1802\H,0,45.5584,43.638
 8,30.063\H,0,44.9597,43.8034,28.4071\H,0,42.8141,42.7544,29.0562\H,0,4
 4.1716,41.6621,29.3829\H,0,43.0022,46.0365,33.0292\H,0,42.0294,46.4548
 ,31.636\H,0,44.9158,47.2784,32.1541\H,0,43.5026,48.3224,32.0745\H,0,43
 .1932,47.6468,29.6736\H,0,45.7872,46.1734,30.2737\H,0,45.9521,48.7118,
 30.3414\H,0,47.0576,47.7442,28.4221\H,0,46.3159,47.783,26.8288\H,0,44.
 4666,46.3837,27.5443\H,0,46.0031,45.62,27.9427\H,0,44.4609,50.3676,31.
 2822\H,0,43.3872,50.2674,29.892\H,0,46.0355,51.6467,30.088\H,0,44.7387
 ,51.9203,28.9315\H,0,47.093,50.0826,28.709\H,0,43.5108,50.0387,27.6656
 \H,0,44.3325,49.1271,26.4054\H,0,43.3571,48.2921,27.5971\H,0,45.4599,5
 1.5459,26.9921\\Version=ES64L-G16RevC.01\State=1-A\HF=-851.7886669\RMS
 D=3.682e-09\Dipole=-0.0928273,1.9001036,-0.3310544\Quadrupole=6.187176
 5,-11.8354938,5.6483172,-11.7265584,6.2845583,12.7164892\PG=C01 [X(C18
 H26O2)]\\@
 The archive entry for this job was punched.


 NEVER LISTEN TO CRITICISM
 OR YOU'LL BE DOIN' EVERYBODY ELSE'S THING BUT BUT YOUR OWN.

                                               -- ANDY CAPP
 Job cpu time:       0 days  0 hours 10 minutes 37.6 seconds.
 Elapsed time:       0 days  0 hours  0 minutes 27.0 seconds.
 File lengths (MBytes):  RWF=     71 Int=      0 D2E=      0 Chk=      8 Scr=      1
 Normal termination of Gaussian 16 at Mon Aug 12 07:19:57 2024.
