 Entering Gaussian System, Link 0=g16
 Initial command:
 /cm/shared/apps/spack/cpu/opt/spack/linux-centos8-zen/gcc-8.3.1/gaussian-16.C.01-po5bqktfeugvmjyga3v7eigbecnokxng/g16/l1.exe "/scratch/hklem/job_32994903/Gau-402874.inp" -scrdir="/scratch/hklem/job_32994903/"
 Entering Link 1 = /cm/shared/apps/spack/cpu/opt/spack/linux-centos8-zen/gcc-8.3.1/gaussian-16.C.01-po5bqktfeugvmjyga3v7eigbecnokxng/g16/l1.exe PID=    402876.
  
 Copyright (c) 1988-2019, Gaussian, Inc.  All Rights Reserved.
  
 This is part of the Gaussian(R) 16 program.  It is based on
 the Gaussian(R) 09 system (copyright 2009, Gaussian, Inc.),
 the Gaussian(R) 03 system (copyright 2003, Gaussian, Inc.),
 the Gaussian(R) 98 system (copyright 1998, Gaussian, Inc.),
 the Gaussian(R) 94 system (copyright 1995, Gaussian, Inc.),
 the Gaussian 92(TM) system (copyright 1992, Gaussian, Inc.),
 the Gaussian 90(TM) system (copyright 1990, Gaussian, Inc.),
 the Gaussian 88(TM) system (copyright 1988, Gaussian, Inc.),
 the Gaussian 86(TM) system (copyright 1986, Carnegie Mellon
 University), and the Gaussian 82(TM) system (copyright 1983,
 Carnegie Mellon University). Gaussian is a federally registered
 trademark of Gaussian, Inc.
  
 This software contains proprietary and confidential information,
 including trade secrets, belonging to Gaussian, Inc.
  
 This software is provided under written license and may be
 used, copied, transmitted, or stored only in accord with that
 written license.
  
 The following legend is applicable only to US Government
 contracts under FAR:
  
                    RESTRICTED RIGHTS LEGEND
  
 Use, reproduction and disclosure by the US Government is
 subject to restrictions as set forth in subparagraphs (a)
 and (c) of the Commercial Computer Software - Restricted
 Rights clause in FAR 52.227-19.
  
 Gaussian, Inc.
 340 Quinnipiac St., Bldg. 40, Wallingford CT 06492
  
  
 ---------------------------------------------------------------
 Warning -- This program may not be used in any manner that
 competes with the business of Gaussian, Inc. or will provide
 assistance to any competitor of Gaussian, Inc.  The licensee
 of this program is prohibited from giving any competitor of
 Gaussian, Inc. access to this program.  By using this program,
 the user acknowledges that Gaussian, Inc. is engaged in the
 business of creating and licensing software in the field of
 computational chemistry and represents and warrants to the
 licensee that it is not a competitor of Gaussian, Inc. and that
 it will not use this program in any manner prohibited above.
 ---------------------------------------------------------------
  

 Cite this work as:
 Gaussian 16, Revision C.01,
 M. J. Frisch, G. W. Trucks, H. B. Schlegel, G. E. Scuseria, 
 M. A. Robb, J. R. Cheeseman, G. Scalmani, V. Barone, 
 G. A. Petersson, H. Nakatsuji, X. Li, M. Caricato, A. V. Marenich, 
 J. Bloino, B. G. Janesko, R. Gomperts, B. Mennucci, H. P. Hratchian, 
 J. V. Ortiz, A. F. Izmaylov, J. L. Sonnenberg, D. Williams-Young, 
 F. Ding, F. Lipparini, F. Egidi, J. Goings, B. Peng, A. Petrone, 
 T. Henderson, D. Ranasinghe, V. G. Zakrzewski, J. Gao, N. Rega, 
 G. Zheng, W. Liang, M. Hada, M. Ehara, K. Toyota, R. Fukuda, 
 J. Hasegawa, M. Ishida, T. Nakajima, Y. Honda, O. Kitao, H. Nakai, 
 T. Vreven, K. Throssell, J. A. Montgomery, Jr., J. E. Peralta, 
 F. Ogliaro, M. J. Bearpark, J. J. Heyd, E. N. Brothers, K. N. Kudin, 
 V. N. Staroverov, T. A. Keith, R. Kobayashi, J. Normand, 
 K. Raghavachari, A. P. Rendell, J. C. Burant, S. S. Iyengar, 
 J. Tomasi, M. Cossi, J. M. Millam, M. Klene, C. Adamo, R. Cammi, 
 J. W. Ochterski, R. L. Martin, K. Morokuma, O. Farkas, 
 J. B. Foresman, and D. J. Fox, Gaussian, Inc., Wallingford CT, 2019.
 
 ******************************************
 Gaussian 16:  ES64L-G16RevC.01  3-Jul-2019
                12-Aug-2024 
 ******************************************
 %nprocshared=24
 Will use up to   24 processors via shared memory.
 %mem=48GB
 --------------------------
 # wb97xd 6-31G(d) prop=efg
 --------------------------
 1/38=1,172=1/1;
 2/12=2,17=6,18=5,40=1/2;
 3/5=1,6=6,7=1,11=2,25=1,30=1,74=-58/1,2,3;
 4//1;
 5/5=2,38=5/2;
 6/7=2,8=2,9=2,10=2,14=1,28=1/1,2;
 99/5=1,9=1/99;
 ----------------------------------------------
 19nt_mm_min_distance_cutoff5_xtb_ligand_conf_1
 ----------------------------------------------
 Symbolic Z-matrix:
 Charge =  0 Multiplicity = 1
 C                     43.3644   42.4527   31.0083 
 O                     43.1976   41.3677   31.5924 
 C                     43.3346   43.7081   31.6795 
 C                     43.4018   44.8969   31.0309 
 C                     43.6946   44.9792   29.5642 
 C                     44.3515   43.6847   29.0799 
 C                     43.5241   42.4869   29.5165 
 C                     43.0536   46.1463   31.7441 
 C                     43.8855   47.3487   31.3122 
 C                     43.8531   47.4767   29.7941 
 C                     44.5107   46.2319   29.1795 
 C                     44.5854   48.7158   29.299 
 C                     44.5139   48.8518   27.7689 
 C                     45.2666   47.6609   27.179 
 C                     44.6406   46.3437   27.6524 
 C                     44.1263   50.0806   29.8014 
 C                     44.7719   51.0592   28.8097 
 C                     45.1817   50.2388   27.5645 
 C                     43.088    48.9081   27.2214 
 O                     44.7805   50.9516   26.4179 
 H                     43.124    43.6832   32.7407 
 H                     42.7154   45.0793   29.0755 
 H                     45.3614   43.6089   29.4944 
 H                     44.4265   43.6796   27.9928 
 H                     42.5202   42.5781   29.0916 
 H                     43.9516   41.5461   29.1611 
 H                     43.1042   46.0013   32.8238 
 H                     41.9995   46.3336   31.4919 
 H                     44.9165   47.2227   31.6541 
 H                     43.4872   48.25     31.775 
 H                     42.809    47.5189   29.4825 
 H                     45.5189   46.1366   29.6051 
 H                     45.6464   48.6071   29.5658 
 H                     46.3122   47.6999   27.5016 
 H                     45.2574   47.6858   26.088 
 H                     43.6528   46.2311   27.2072 
 H                     45.2632   45.5283   27.2812 
 H                     44.4395   50.2777   30.824 
 H                     43.0414   50.1449   29.767 
 H                     45.643    51.546    29.2473 
 H                     44.0791   51.8395   28.4987 
 H                     46.2758   50.106    27.5413 
 H                     42.5569   49.7576   27.635 
 H                     43.122    49.0168   26.1399 
 H                     42.5324   48.0096   27.4545 
 H                     45.1052   50.52     25.6111 
 
                          Input orientation:                          
 ---------------------------------------------------------------------
 Center     Atomic      Atomic             Coordinates (Angstroms)
 Number     Number       Type             X           Y           Z
 ---------------------------------------------------------------------
      1          6           0       43.364400   42.452700   31.008300
      2          8           0       43.197600   41.367700   31.592400
      3          6           0       43.334600   43.708100   31.679500
      4          6           0       43.401800   44.896900   31.030900
      5          6           0       43.694600   44.979200   29.564200
      6          6           0       44.351500   43.684700   29.079900
      7          6           0       43.524100   42.486900   29.516500
      8          6           0       43.053600   46.146300   31.744100
      9          6           0       43.885500   47.348700   31.312200
     10          6           0       43.853100   47.476700   29.794100
     11          6           0       44.510700   46.231900   29.179500
     12          6           0       44.585400   48.715800   29.299000
     13          6           0       44.513900   48.851800   27.768900
     14          6           0       45.266600   47.660900   27.179000
     15          6           0       44.640600   46.343700   27.652400
     16          6           0       44.126300   50.080600   29.801400
     17          6           0       44.771900   51.059200   28.809700
     18          6           0       45.181700   50.238800   27.564500
     19          6           0       43.088000   48.908100   27.221400
     20          8           0       44.780500   50.951600   26.417900
     21          1           0       43.124000   43.683200   32.740700
     22          1           0       42.715400   45.079300   29.075500
     23          1           0       45.361400   43.608900   29.494400
     24          1           0       44.426500   43.679600   27.992800
     25          1           0       42.520200   42.578100   29.091600
     26          1           0       43.951600   41.546100   29.161100
     27          1           0       43.104200   46.001300   32.823800
     28          1           0       41.999500   46.333600   31.491900
     29          1           0       44.916500   47.222700   31.654100
     30          1           0       43.487200   48.250000   31.775000
     31          1           0       42.809000   47.518900   29.482500
     32          1           0       45.518900   46.136600   29.605100
     33          1           0       45.646400   48.607100   29.565800
     34          1           0       46.312200   47.699900   27.501600
     35          1           0       45.257400   47.685800   26.088000
     36          1           0       43.652800   46.231100   27.207200
     37          1           0       45.263200   45.528300   27.281200
     38          1           0       44.439500   50.277700   30.824000
     39          1           0       43.041400   50.144900   29.767000
     40          1           0       45.643000   51.546000   29.247300
     41          1           0       44.079100   51.839500   28.498700
     42          1           0       46.275800   50.106000   27.541300
     43          1           0       42.556900   49.757600   27.635000
     44          1           0       43.122000   49.016800   26.139900
     45          1           0       42.532400   48.009600   27.454500
     46          1           0       45.105200   50.520000   25.611100
 ---------------------------------------------------------------------
                    Distance matrix (angstroms):
                    1          2          3          4          5
     1  C    0.000000
     2  O    1.243471   0.000000
     3  C    1.423877   2.346024   0.000000
     4  C    2.444591   3.579418   1.355892   0.000000
     5  C    2.928764   4.171755   2.493951   1.497903   0.000000
     6  C    2.492171   3.607302   2.791515   2.485510   1.530292
     7  C    1.500713   2.380876   2.491146   2.848941   2.498581
     8  C    3.778979   4.783175   2.455189   1.480168   2.554402
     9  C    4.933023   6.026946   3.700320   2.514840   2.950674
    10  C    5.191694   6.401831   4.245694   2.896328   2.513062
    11  C    4.352110   5.586301   3.742029   2.537630   1.543785
    12  C    6.605980   7.821780   5.684043   4.357107   3.850459
    13  C    7.263852   8.506677   6.568195   5.245822   4.346422
    14  C    6.738490   7.960102   6.293787   5.094537   3.918147
    15  C    5.294396   6.508950   4.986939   3.878417   2.532144
    16  C    7.760281   8.943422   6.690501   5.376552   5.125125
    17  C    8.993706  10.205244   8.021238   6.692148   6.220631
    18  C    8.705498   9.942688   7.936942   6.612100   5.820108
    19  C    7.489272   8.716380   6.853865   5.540802   4.614426
    20  O    9.762603  11.006006   9.068812   7.735630   6.837247
    21  H    2.138488   2.585643   1.082182   2.115102   3.477837
    22  H    3.325048   4.510352   3.007393   2.080386   1.098945
    23  H    2.759837   3.755877   2.982016   2.803535   2.158892
    24  H    3.424409   4.451089   3.845103   3.429560   2.166549
    25  H    2.098127   2.859710   2.938941   3.148799   2.714378
    26  H    2.139831   2.551776   3.375985   3.876376   3.466225
    27  H    3.994535   4.795343   2.573183   2.126677   3.466735
    28  H    4.142246   5.109374   2.951429   2.059872   2.902377
    29  H    5.057566   6.102413   3.854279   2.844651   3.300608
    30  H    5.849068   6.890810   4.545466   3.435732   3.953326
    31  H    5.320049   6.514595   4.430041   3.102231   2.690918
    32  H    4.492434   5.663939   3.869356   2.837582   2.160860
    33  H    6.720489   7.906494   5.814839   4.577153   4.119610
    34  H    6.965600   8.156723   6.500417   5.364997   4.302134
    35  H    7.428199   8.628997   7.126298   5.971053   4.674612
    36  H    5.367294   6.564286   5.144730   4.057557   2.669167
    37  H    5.191920   6.337487   5.135919   4.233642   2.823846
    38  H    7.900660   9.028890   6.716571   5.483852   5.496915
    39  H    7.798403   8.966366   6.721311   5.410068   5.210783
    40  H    9.538409  10.727407   8.525080   7.239802   6.857080
    41  H    9.742736  10.954753   8.763072   7.420948   6.953190
    42  H    8.892094  10.111608   8.167526   6.897239   6.085951
    43  H    8.086580   9.298491   7.318418   5.989357   5.277242
    44  H    8.176031   9.393839   7.675589   6.401074   5.325027
    45  H    6.648372   7.853632   6.082520   4.820311   3.871029
    46  H    9.861110  11.098625   9.293142   7.993438   6.951062
                    6          7          8          9         10
     6  C    0.000000
     7  C    1.519847   0.000000
     8  C    3.852529   4.309847   0.000000
     9  C    4.315694   5.195406   1.524586   0.000000
    10  C    3.890726   5.008334   2.492321   1.523831   0.000000
    11  C    2.554113   3.887412   2.950871   2.487273   1.536131
    12  C    5.041298   6.322409   3.863581   2.532153   1.522089
    13  C    5.333293   6.674261   5.025378   3.899894   2.535546
    14  C    4.501222   5.938896   5.294480   4.369010   2.978365
    15  C    3.031768   4.426776   4.393125   3.869669   2.547690
    16  C    6.440405   7.622866   4.517022   3.131099   2.618203
    17  C    7.391414   8.691427   5.974935   4.562458   3.827211
    18  C    6.778045   8.163939   6.224662   4.906941   3.790183
    19  C    5.686331   6.832970   5.299390   4.449986   3.041886
    20  O    7.751008   9.101154   7.378448   6.142970   4.932923
    21  H    3.861116   3.462178   2.658012   4.007042   4.858465
    22  H    2.149826   2.751184   2.893837   3.394427   2.749232
    23  H    1.094282   2.152915   4.101889   4.412344   4.162291
    24  H    1.089696   2.135069   4.694860   4.977288   4.241631
    25  H    2.139710   1.093925   4.477982   5.436335   5.125077
    26  H    2.177182   1.092781   5.351648   6.188842   5.965099
    27  H    4.575935   4.844126   1.090567   2.170449   3.452063
    28  H    4.285594   4.585162   1.099915   2.149352   2.761347
    29  H    4.411709   5.379211   2.153400   1.093496   2.157530
    30  H    5.371456   6.189952   2.148143   1.088654   2.157740
    31  H    4.152407   5.082671   2.656820   2.129700   1.090422
    32  H    2.765949   4.160215   3.263912   2.655442   2.146271
    33  H    5.113011   6.477919   4.186065   2.781052   2.132100
    34  H    4.738904   6.245694   5.570543   4.531323   3.369354
    35  H    5.077492   6.464325   6.262449   5.411840   3.968748
    36  H    3.237181   4.400962   4.577083   4.260775   2.878140
    37  H    2.732285   4.155857   5.018140   4.632588   3.478406
    38  H    6.820358   7.952615   4.453736   3.020645   3.041408
    39  H    6.627417   7.677286   4.460703   3.304373   2.789065
    40  H    7.968440   9.307497   6.488125   4.996994   4.479055
    41  H    8.180022   9.424175   6.633008   5.302881   4.556661
    42  H    6.877740   8.338102   6.612513   5.247468   4.225849
    43  H    6.495263   7.572225   5.492987   4.592361   3.397698
    44  H    6.211808   7.362249   6.296944   5.488003   4.032319
    45  H    4.965462   5.977920   4.705763   4.141198   2.738970
    46  H    7.702075   9.070982   7.807176   6.636818   5.322304
                   11         12         13         14         15
    11  C    0.000000
    12  C    2.487895   0.000000
    13  C    2.975513   1.537795   0.000000
    14  C    2.572047   2.463990   1.527345   0.000000
    15  C    1.536687   2.888113   2.513999   1.533297   0.000000
    16  C    3.917527   1.525076   2.406499   3.745960   4.341328
    17  C    4.848485   2.401191   2.454067   3.801625   4.857214
    18  C    4.371923   2.384029   1.552902   2.607947   3.933487
    19  C    3.608362   2.568192   1.528436   2.510698   3.028609
    20  O    5.474924   3.652068   2.511063   3.412371   4.772453
    21  H    4.593577   6.269613   7.305138   7.165566   5.938782
    22  H    2.135979   4.095239   4.378763   4.095118   2.707456
    23  H    2.775425   5.169215   5.584228   4.667844   3.375152
    24  H    2.815951   5.205259   5.177782   4.149553   2.694279
    25  H    4.161739   6.479153   6.714439   6.085689   4.554902
    26  H    4.719073   7.198980   7.458395   6.561153   5.076206
    27  H    3.913099   4.688995   5.971986   6.268494   5.405658
    28  H    3.415210   4.143738   5.150172   5.571066   4.660179
    29  H    2.696294   2.808108   4.232119   4.510112   4.106381
    30  H    3.443385   2.748379   4.179128   4.963519   4.686165
    31  H    2.154985   2.149846   2.760386   3.371361   2.843434
    32  H    1.098492   2.759962   3.428406   2.876301   2.151125
    33  H    2.660943   1.099418   2.138056   2.595449   3.129810
    34  H    2.866317   2.691568   2.152256   1.094930   2.157838
    35  H    3.496964   3.438460   2.176643   1.091323   2.151516
    36  H    2.150805   3.379216   2.815150   2.156264   1.089326
    37  H    2.159827   3.832895   3.441650   2.135050   1.091007
    38  H    4.367831   2.187794   3.372293   4.562649   5.057257
    39  H    4.220849   2.155293   2.798708   4.221317   4.634447
    40  H    5.433816   3.021791   3.274026   4.417414   5.532851
    41  H    5.665240   3.264096   3.106125   4.540095   5.588857
    42  H    4.561571   2.807066   2.174652   2.669880   4.103794
    43  H    4.316639   2.822952   2.160614   3.456380   3.999603
    44  H    4.350095   3.494575   2.149012   2.741806   3.426261
    45  H    3.170097   2.848808   2.175888   2.770080   2.694234
    46  H    5.610233   4.138349   2.790811   3.264784   4.671642
                   16         17         18         19         20
    16  C    0.000000
    17  C    1.535554   0.000000
    18  C    2.478431   1.546452   0.000000
    19  C    3.018149   3.159976   2.504408   0.000000
    20  O    3.554531   2.394235   1.408452   2.772375   0.000000
    21  H    7.111316   8.519021   8.602504   7.600233   9.775041
    22  H    5.246958   6.329222   5.914913   4.270390   6.768411
    23  H    6.595652   7.504885   6.907415   6.198096   7.982327
    24  H    6.658375   7.432706   6.616409   5.451959   7.449001
    25  H    7.705250   8.779446   8.252390   6.624873   9.075964
    26  H    8.560268   9.554865   8.923302   7.662068   9.832378
    27  H    5.178830   6.669076   7.066304   6.311627   8.267467
    28  H    4.628291   6.100139   6.387602   5.103925   7.403064
    29  H    3.496356   4.778101   5.088420   5.082599   6.429695
    30  H    2.766702   4.281946   4.955297   4.618195   6.137572
    31  H    2.898152   4.103579   4.087332   2.668387   5.006198
    32  H    4.187243   5.042089   4.594105   4.390047   5.821315
    33  H    2.130121   2.710947   2.623660   3.483134   4.019420
    34  H    3.966733   3.920274   2.779928   3.454522   3.754206
    35  H    4.561118   4.361558   2.950185   2.735856   3.316884
    36  H    4.666125   5.208737   4.304284   2.735970   4.917095
    37  H    5.326104   5.759214   4.719715   4.019716   5.512755
    38  H    1.087499   2.186009   3.343159   4.084248   4.470362
    39  H    1.087348   2.178761   3.072573   2.830534   3.858977
    40  H    2.180551   1.089625   2.180226   4.194140   3.017072
    41  H    2.189289   1.088835   2.156547   3.347668   2.368556
    42  H    3.119142   2.186125   1.102374   3.420434   2.052557
    43  H    2.694556   2.824944   2.669475   1.083874   2.802029
    44  H    3.942952   3.744516   2.786599   1.087481   2.563466
    45  H    3.512477   4.018954   3.464134   1.081818   3.844978
    46  H    4.325498   3.260808   1.975018   3.043088   0.970894
                   21         22         23         24         25
    21  H    0.000000
    22  H    3.943316   0.000000
    23  H    3.943342   3.055956   0.000000
    24  H    4.923319   2.461557   1.770265   0.000000
    25  H    3.860279   2.508857   3.049133   2.460618   0.000000
    26  H    4.250371   3.744198   2.520668   2.478362   1.766001
    27  H    2.319674   3.879562   4.680110   5.520628   5.097909
    28  H    3.138251   2.815097   4.766169   5.017743   4.487354
    29  H    4.113614   4.011008   4.233414   5.118474   5.820736
    30  H    4.681896   4.235129   5.500325   6.006320   6.348714
    31  H    5.042587   2.475087   4.669367   4.424448   4.964646
    32  H    4.646149   3.042692   2.535020   3.135235   4.681752
    33  H    6.378658   4.612649   5.006828   5.314390   6.807851
    34  H    7.331212   4.720347   4.648823   4.467656   6.568120
    35  H    8.051746   4.709646   5.313708   4.513125   6.527057
    36  H    6.114822   2.386610   3.876407   2.779556   4.263585
    37  H    6.147090   3.148396   2.931210   2.150380   4.416478
    38  H    6.992261   5.749186   6.862261   7.179888   8.122116
    39  H    7.113598   5.122963   6.940894   6.845903   7.614741
    40  H    8.965089   7.100603   7.945937   8.058157   9.497334
    41  H    9.242944   6.920454   8.389189   8.182945   9.410379
    42  H    8.844205   6.348065   6.845658   6.702416   8.554370
    43  H    7.955382   4.897617   7.009215   6.369106   7.325862
    44  H    8.486333   4.928182   6.746330   5.798333   7.108555
    45  H    6.856503   3.353772   5.615211   4.756709   5.672869
    46  H   10.074631   6.878548   7.931517   7.274902   9.048198
                   26         27         28         29         30
    26  H    0.000000
    27  H    5.829431   0.000000
    28  H    5.671286   1.762028   0.000000
    29  H    6.274541   2.478800   3.053800   0.000000
    30  H    7.210438   2.510642   2.442537   1.764330   0.000000
    31  H    6.089595   3.681649   2.469396   3.040582   2.500004
    32  H    4.870960   4.026054   3.998125   2.396018   3.647291
    33  H    7.272816   4.885441   4.709410   2.609658   3.109699
    34  H    6.796736   6.442229   6.032301   4.406694   5.152202
    35  H    6.988918   7.269444   6.453254   5.595725   5.982800
    36  H    5.084902   5.648005   4.593752   4.728121   4.996817
    37  H    4.594805   5.967028   5.387972   4.702494   5.545815
    38  H    8.901917   4.906101   4.685682   3.201503   2.433689
    39  H    8.668041   5.149504   4.311246   3.951759   2.796685
    40  H   10.142301   7.069693   6.744067   5.001141   4.679782
    41  H   10.315479   7.330859   6.602948   5.654435   4.895814
    42  H    9.016515   7.403541   6.937217   5.203483   5.398633
    43  H    8.467757   6.429072   5.187499   5.305336   4.503101
    44  H    8.101064   7.332672   6.091262   6.070043   5.698746
    45  H    6.833992   5.761042   4.403812   4.892830   4.431270
    46  H    9.719268   8.743323   7.858443   6.886628   6.764945
                   31         32         33         34         35
    31  H    0.000000
    32  H    3.044559   0.000000
    33  H    3.040059   2.474100   0.000000
    34  H    4.028540   2.738237   2.351005   0.000000
    35  H    4.188693   3.852064   3.618730   1.763822   0.000000
    36  H    2.747256   3.039932   3.896513   3.052287   2.437930
    37  H    3.851144   2.415765   3.852953   2.421740   2.465475
    38  H    3.474065   4.449666   2.414659   4.603303   5.460458
    39  H    2.651570   4.714943   3.031722   4.669924   4.949027
    40  H    4.929950   5.422641   2.956110   4.276422   5.003100
    41  H    4.609620   5.984999   3.747471   4.808038   4.945006
    42  H    4.741313   4.537434   2.596429   2.406703   3.001098
    43  H    2.913518   5.076059   3.820556   4.284181   3.738752
    44  H    3.676227   5.103753   4.275189   3.710233   2.516781
    45  H    2.104775   4.129454   3.809408   3.792759   3.065582
    46  H    5.409887   5.944525   4.426255   3.603304   2.878070
                   36         37         38         39         40
    36  H    0.000000
    37  H    1.758634   0.000000
    38  H    5.484078   5.982200   0.000000
    39  H    4.716377   5.694611   1.757717   0.000000
    40  H    6.030843   6.342122   2.354353   3.000249   0.000000
    41  H    5.770949   6.535721   2.824204   2.357345   1.758501
    42  H    4.691119   4.695567   3.765315   3.926397   2.320446
    43  H    3.717555   5.033509   3.739573   2.220398   3.914320
    44  H    3.030017   4.249345   5.026576   3.799337   4.733733
    45  H    2.116487   3.693799   4.487186   3.188455   5.039453
    46  H    4.801215   5.266049   5.260817   4.655263   3.816262
                   41         42         43         44         45
    41  H    0.000000
    42  H    2.957554   0.000000
    43  H    2.719812   3.736359   0.000000
    44  H    3.801002   3.618941   1.761660   0.000000
    45  H    4.260372   4.291325   1.757465   1.757912   0.000000
    46  H    3.336494   2.295076   3.342343   2.544076   4.039744
                   46
    46  H    0.000000
 Stoichiometry    C18H26O2
 Framework group  C1[X(C18H26O2)]
 Deg. of freedom   132
 Full point group                 C1      NOp   1
 Largest Abelian subgroup         C1      NOp   1
 Largest concise Abelian subgroup C1      NOp   1
                         Standard orientation:                         
 ---------------------------------------------------------------------
 Center     Atomic      Atomic             Coordinates (Angstroms)
 Number     Number       Type             X           Y           Z
 ---------------------------------------------------------------------
      1          6           0        4.691612   -0.123956    0.019798
      2          8           0        5.930160   -0.021251   -0.021072
      3          6           0        3.817281    0.998102   -0.043107
      4          6           0        2.474241    0.900784    0.115693
      5          6           0        1.783561   -0.426205    0.191673
      6          6           0        2.672089   -1.522515   -0.400289
      7          6           0        4.054839   -1.466819    0.228071
      8          6           0        1.669570    2.120691    0.350700
      9          6           0        0.283797    2.070186   -0.282897
     10          6           0       -0.419591    0.780816    0.123096
     11          6           0        0.372869   -0.410821   -0.435211
     12          6           0       -1.848388    0.709068   -0.396663
     13          6           0       -2.557850   -0.579913    0.050558
     14          6           0       -1.819012   -1.746108   -0.602810
     15          6           0       -0.343692   -1.747018   -0.185162
     16          6           0       -2.823440    1.811419    0.003279
     17          6           0       -4.196190    1.207753   -0.326979
     18          6           0       -3.997969   -0.319376   -0.468752
     19          6           0       -2.608284   -0.760821    1.567412
     20          8           0       -5.032385   -0.963541    0.237486
     21          1           0        4.285344    1.972316   -0.097340
     22          1           0        1.649157   -0.625147    1.264071
     23          1           0        2.750871   -1.385512   -1.483099
     24          1           0        2.241552   -2.505324   -0.210129
     25          1           0        3.957109   -1.607874    1.308452
     26          1           0        4.706753   -2.256747   -0.152970
     27          1           0        2.214719    3.009916    0.032220
     28          1           0        1.559416    2.182803    1.443321
     29          1           0        0.376707    2.117724   -1.371401
     30          1           0       -0.294739    2.933400    0.041644
     31          1           0       -0.422585    0.728092    1.212238
     32          1           0        0.473951   -0.271693   -1.520159
     33          1           0       -1.804986    0.691108   -1.495077
     34          1           0       -1.885725   -1.650286   -1.691497
     35          1           0       -2.265676   -2.703295   -0.328458
     36          1           0       -0.266604   -1.993681    0.873065
     37          1           0        0.158826   -2.537673   -0.744301
     38          1           0       -2.650804    2.739590   -0.536488
     39          1           0       -2.732291    2.022205    1.066099
     40          1           0       -4.598674    1.625706   -1.249262
     41          1           0       -4.922291    1.391656    0.463285
     42          1           0       -4.050727   -0.611522   -1.530400
     43          1           0       -3.138995    0.063515    2.029579
     44          1           0       -3.133866   -1.683420    1.802337
     45          1           0       -1.617634   -0.815794    1.998594
     46          1           0       -5.003656   -1.923333    0.093931
 ---------------------------------------------------------------------
 Rotational constants (GHZ):           0.9450638           0.1753205           0.1557348
 Standard basis: 6-31G(d) (6D, 7F)
 There are   352 symmetry adapted cartesian basis functions of A   symmetry.
 There are   352 symmetry adapted basis functions of A   symmetry.
   352 basis functions,   664 primitive gaussians,   352 cartesian basis functions
    75 alpha electrons       75 beta electrons
       nuclear repulsion energy      1670.7351588877 Hartrees.
 NAtoms=   46 NActive=   46 NUniq=   46 SFac= 1.00D+00 NAtFMM=   60 NAOKFM=F Big=F
 Integral buffers will be    131072 words long.
 Raffenetti 2 integral format.
 Two-electron integral symmetry is turned on.
 Nuclear repulsion after empirical dispersion term =     1670.6862852212 Hartrees.
 One-electron integrals computed using PRISM.
 NBasis=   352 RedAO= T EigKep=  1.22D-03  NBF=   352
 NBsUse=   352 1.00D-06 EigRej= -1.00D+00 NBFU=   352
 ExpMin= 1.61D-01 ExpMax= 5.48D+03 ExpMxC= 8.25D+02 IAcc=3 IRadAn=         5 AccDes= 0.00D+00
 Harris functional with IExCor= 4639 and IRadAn=       5 diagonalized for initial guess.
 HarFok:  IExCor= 4639 AccDes= 0.00D+00 IRadAn=         5 IDoV= 1 UseB2=F ITyADJ=14
 ICtDFT=  3500011 ScaDFX=  1.000000  1.000000  1.000000  1.000000
 FoFCou: FMM=F IPFlag=           0 FMFlag=      100000 FMFlg1=           0
         NFxFlg=           0 DoJE=T BraDBF=F KetDBF=T FulRan=T
         wScrn=  0.000000 ICntrl=       500 IOpCl=  0 I1Cent=   200000004 NGrid=           0
         NMat0=    1 NMatS0=      1 NMatT0=    0 NMatD0=    1 NMtDS0=    0 NMtDT0=    0
 Petite list used in FoFCou.
 Requested convergence on RMS density matrix=1.00D-08 within 128 cycles.
 Requested convergence on MAX density matrix=1.00D-06.
 Requested convergence on             energy=1.00D-06.
 No special actions if energy rises.
 Integral accuracy reduced to 1.0D-05 until final iterations.
 Initial convergence to 1.0D-05 achieved.  Increase integral accuracy.
 SCF Done:  E(RwB97XD) =  -851.789627120     A.U. after   15 cycles
            NFock= 15  Conv=0.40D-08     -V/T= 2.0088

 **********************************************************************

            Population analysis using the SCF Density.

 **********************************************************************

 Orbital symmetries:
       Occupied  (A) (A) (A) (A) (A) (A) (A) (A) (A) (A) (A) (A)
                 (A) (A) (A) (A) (A) (A) (A) (A) (A) (A) (A) (A)
                 (A) (A) (A) (A) (A) (A) (A) (A) (A) (A) (A) (A)
                 (A) (A) (A) (A) (A) (A) (A) (A) (A) (A) (A) (A)
                 (A) (A) (A) (A) (A) (A) (A) (A) (A) (A) (A) (A)
                 (A) (A) (A) (A) (A) (A) (A) (A) (A) (A) (A) (A)
                 (A) (A) (A)
       Virtual   (A) (A) (A) (A) (A) (A) (A) (A) (A) (A) (A) (A)
                 (A) (A) (A) (A) (A) (A) (A) (A) (A) (A) (A) (A)
                 (A) (A) (A) (A) (A) (A) (A) (A) (A) (A) (A) (A)
                 (A) (A) (A) (A) (A) (A) (A) (A) (A) (A) (A) (A)
                 (A) (A) (A) (A) (A) (A) (A) (A) (A) (A) (A) (A)
                 (A) (A) (A) (A) (A) (A) (A) (A) (A) (A) (A) (A)
                 (A) (A) (A) (A) (A) (A) (A) (A) (A) (A) (A) (A)
                 (A) (A) (A) (A) (A) (A) (A) (A) (A) (A) (A) (A)
                 (A) (A) (A) (A) (A) (A) (A) (A) (A) (A) (A) (A)
                 (A) (A) (A) (A) (A) (A) (A) (A) (A) (A) (A) (A)
                 (A) (A) (A) (A) (A) (A) (A) (A) (A) (A) (A) (A)
                 (A) (A) (A) (A) (A) (A) (A) (A) (A) (A) (A) (A)
                 (A) (A) (A) (A) (A) (A) (A) (A) (A) (A) (A) (A)
                 (A) (A) (A) (A) (A) (A) (A) (A) (A) (A) (A) (A)
                 (A) (A) (A) (A) (A) (A) (A) (A) (A) (A) (A) (A)
                 (A) (A) (A) (A) (A) (A) (A) (A) (A) (A) (A) (A)
                 (A) (A) (A) (A) (A) (A) (A) (A) (A) (A) (A) (A)
                 (A) (A) (A) (A) (A) (A) (A) (A) (A) (A) (A) (A)
                 (A) (A) (A) (A) (A) (A) (A) (A) (A) (A) (A) (A)
                 (A) (A) (A) (A) (A) (A) (A) (A) (A) (A) (A) (A)
                 (A) (A) (A) (A) (A) (A) (A) (A) (A) (A) (A) (A)
                 (A) (A) (A) (A) (A) (A) (A) (A) (A) (A) (A) (A)
                 (A) (A) (A) (A) (A) (A) (A) (A) (A) (A) (A) (A)
                 (A)
 The electronic state is 1-A.
 Alpha  occ. eigenvalues --  -19.26837 -19.23362 -10.36533 -10.34221 -10.32920
 Alpha  occ. eigenvalues --  -10.31439 -10.30782 -10.30596 -10.30081 -10.30027
 Alpha  occ. eigenvalues --  -10.29929 -10.29885 -10.29738 -10.29579 -10.29560
 Alpha  occ. eigenvalues --  -10.29215 -10.29045 -10.28948 -10.28650 -10.28113
 Alpha  occ. eigenvalues --   -1.12264  -1.10353  -0.98420  -0.95796  -0.90985
 Alpha  occ. eigenvalues --   -0.90323  -0.87290  -0.84451  -0.82602  -0.81548
 Alpha  occ. eigenvalues --   -0.77990  -0.77293  -0.73648  -0.71950  -0.69592
 Alpha  occ. eigenvalues --   -0.67892  -0.65587  -0.65457  -0.62816  -0.61147
 Alpha  occ. eigenvalues --   -0.60560  -0.58171  -0.57164  -0.55482  -0.55302
 Alpha  occ. eigenvalues --   -0.54204  -0.53429  -0.53043  -0.51877  -0.50874
 Alpha  occ. eigenvalues --   -0.49960  -0.49558  -0.48763  -0.47837  -0.47801
 Alpha  occ. eigenvalues --   -0.46799  -0.46585  -0.46546  -0.44988  -0.44361
 Alpha  occ. eigenvalues --   -0.43616  -0.43437  -0.42891  -0.42591  -0.41885
 Alpha  occ. eigenvalues --   -0.41404  -0.40814  -0.40272  -0.39476  -0.38473
 Alpha  occ. eigenvalues --   -0.37515  -0.36055  -0.33729  -0.32481  -0.30812
 Alpha virt. eigenvalues --    0.02305   0.13356   0.14213   0.15236   0.16977
 Alpha virt. eigenvalues --    0.17480   0.17695   0.18651   0.19244   0.20488
 Alpha virt. eigenvalues --    0.20864   0.21370   0.22775   0.23006   0.23339
 Alpha virt. eigenvalues --    0.23783   0.24026   0.24722   0.25144   0.25470
 Alpha virt. eigenvalues --    0.25811   0.26258   0.26619   0.27100   0.27344
 Alpha virt. eigenvalues --    0.27798   0.28464   0.29326   0.29793   0.30436
 Alpha virt. eigenvalues --    0.30807   0.31325   0.32106   0.32803   0.33814
 Alpha virt. eigenvalues --    0.34035   0.34709   0.35304   0.35840   0.36342
 Alpha virt. eigenvalues --    0.37170   0.38017   0.39094   0.39619   0.40604
 Alpha virt. eigenvalues --    0.42224   0.42578   0.44769   0.45345   0.50075
 Alpha virt. eigenvalues --    0.52184   0.58529   0.59020   0.59581   0.60258
 Alpha virt. eigenvalues --    0.61518   0.61813   0.62347   0.63350   0.65342
 Alpha virt. eigenvalues --    0.65955   0.66390   0.66643   0.68527   0.69127
 Alpha virt. eigenvalues --    0.70302   0.71439   0.72439   0.72873   0.73619
 Alpha virt. eigenvalues --    0.73859   0.74462   0.75500   0.75936   0.76451
 Alpha virt. eigenvalues --    0.76956   0.78020   0.79015   0.80356   0.81643
 Alpha virt. eigenvalues --    0.82614   0.82986   0.84805   0.85704   0.86138
 Alpha virt. eigenvalues --    0.86405   0.87284   0.88972   0.90151   0.90491
 Alpha virt. eigenvalues --    0.91304   0.93023   0.93370   0.93767   0.94487
 Alpha virt. eigenvalues --    0.95017   0.95779   0.96505   0.96727   0.97168
 Alpha virt. eigenvalues --    0.97829   0.97881   0.98684   0.98820   0.99062
 Alpha virt. eigenvalues --    0.99283   1.00847   1.01390   1.01519   1.03128
 Alpha virt. eigenvalues --    1.03621   1.04359   1.04576   1.04786   1.04924
 Alpha virt. eigenvalues --    1.05690   1.06443   1.07230   1.07970   1.08345
 Alpha virt. eigenvalues --    1.09656   1.10495   1.11420   1.11886   1.13468
 Alpha virt. eigenvalues --    1.14604   1.15645   1.16539   1.20116   1.20987
 Alpha virt. eigenvalues --    1.21207   1.23911   1.25996   1.27936   1.28696
 Alpha virt. eigenvalues --    1.29642   1.32302   1.34114   1.35363   1.39393
 Alpha virt. eigenvalues --    1.41796   1.43550   1.44399   1.48096   1.49174
 Alpha virt. eigenvalues --    1.51749   1.53104   1.53903   1.55812   1.57966
 Alpha virt. eigenvalues --    1.62028   1.62586   1.64082   1.66172   1.67106
 Alpha virt. eigenvalues --    1.70294   1.72125   1.73363   1.76651   1.77208
 Alpha virt. eigenvalues --    1.77900   1.79465   1.80900   1.82332   1.84008
 Alpha virt. eigenvalues --    1.85251   1.86557   1.87082   1.88900   1.89783
 Alpha virt. eigenvalues --    1.89864   1.92136   1.92341   1.94803   1.96307
 Alpha virt. eigenvalues --    1.96630   1.97369   1.97620   1.99423   1.99839
 Alpha virt. eigenvalues --    2.00497   2.02145   2.02815   2.03199   2.04302
 Alpha virt. eigenvalues --    2.05655   2.06281   2.07135   2.07392   2.08065
 Alpha virt. eigenvalues --    2.08608   2.10441   2.11347   2.12039   2.12838
 Alpha virt. eigenvalues --    2.14125   2.15360   2.16317   2.16866   2.19550
 Alpha virt. eigenvalues --    2.20566   2.21290   2.22101   2.23416   2.24654
 Alpha virt. eigenvalues --    2.26737   2.28476   2.30581   2.30834   2.33092
 Alpha virt. eigenvalues --    2.34072   2.36468   2.38004   2.38877   2.41349
 Alpha virt. eigenvalues --    2.41707   2.42004   2.43945   2.45863   2.48177
 Alpha virt. eigenvalues --    2.48441   2.49536   2.50649   2.52647   2.53008
 Alpha virt. eigenvalues --    2.56141   2.58219   2.59542   2.61998   2.62832
 Alpha virt. eigenvalues --    2.64289   2.65144   2.66248   2.66957   2.68222
 Alpha virt. eigenvalues --    2.70120   2.71713   2.72730   2.75608   2.76965
 Alpha virt. eigenvalues --    2.79190   2.79283   2.81488   2.83048   2.84742
 Alpha virt. eigenvalues --    2.87190   2.90305   2.93592   2.97919   2.99993
 Alpha virt. eigenvalues --    3.01615   3.03313   3.07947   3.08452   3.11474
 Alpha virt. eigenvalues --    3.22091   3.28144   3.98706   4.08866   4.25802
 Alpha virt. eigenvalues --    4.27683   4.31347   4.35153   4.36449   4.39219
 Alpha virt. eigenvalues --    4.42497   4.43309   4.49175   4.54883   4.56590
 Alpha virt. eigenvalues --    4.65965   4.68617   4.74360   4.77943   4.81216
 Alpha virt. eigenvalues --    4.87099   4.94089
          Condensed to atoms (all electrons):
               1          2          3          4          5          6
     1  C    4.423904   0.532913   0.368361   0.000463  -0.022637  -0.026450
     2  O    0.532913   8.108548  -0.061535   0.005303   0.000299   0.002588
     3  C    0.368361  -0.061535   5.300449   0.520060  -0.045059   0.006008
     4  C    0.000463   0.005303   0.520060   4.869548   0.376187  -0.047584
     5  C   -0.022637   0.000299  -0.045059   0.376187   5.101611   0.351711
     6  C   -0.026450   0.002588   0.006008  -0.047584   0.351711   5.147005
     7  C    0.342066  -0.079116  -0.138892   0.000457  -0.035738   0.287823
     8  C    0.003954  -0.000099  -0.035867   0.362086  -0.069047   0.005239
     9  C   -0.000148   0.000000   0.002591  -0.035489  -0.012038  -0.000340
    10  C   -0.000011   0.000000   0.000493  -0.014825  -0.041592   0.004191
    11  C   -0.000113   0.000001   0.003654  -0.030904   0.365284  -0.048756
    12  C   -0.000000   0.000000   0.000003   0.000295   0.004017  -0.000139
    13  C   -0.000000   0.000000   0.000000   0.000006   0.000035  -0.000007
    14  C    0.000000  -0.000000   0.000001  -0.000095   0.003569   0.000200
    15  C   -0.000003  -0.000000  -0.000119   0.004445  -0.043628  -0.004439
    16  C   -0.000000  -0.000000   0.000000   0.000000  -0.000119   0.000001
    17  C    0.000000  -0.000000  -0.000000   0.000000   0.000002  -0.000000
    18  C    0.000000   0.000000  -0.000000  -0.000000   0.000004   0.000000
    19  C   -0.000000   0.000000   0.000000   0.000001   0.000078   0.000001
    20  O    0.000000   0.000000   0.000000   0.000000  -0.000000   0.000000
    21  H   -0.029833   0.000864   0.359208  -0.046068   0.004895  -0.000426
    22  H    0.000953   0.000009  -0.004461  -0.044626   0.366617  -0.033760
    23  H   -0.002789   0.000081   0.003822  -0.004564  -0.041965   0.385935
    24  H    0.003554  -0.000073  -0.000287   0.004928  -0.032264   0.377597
    25  H   -0.028246  -0.000391   0.002151  -0.001920  -0.004120  -0.040523
    26  H   -0.024565   0.002754   0.005546  -0.000164   0.004241  -0.030783
    27  H    0.000277  -0.000002  -0.002972  -0.039687   0.004320  -0.000150
    28  H   -0.000100   0.000004  -0.008117  -0.040858   0.000365   0.000138
    29  H    0.000000  -0.000000  -0.000160  -0.003581   0.000408   0.000010
    30  H    0.000001  -0.000000  -0.000083   0.004429   0.000045   0.000012
    31  H    0.000004   0.000000  -0.000242  -0.004695  -0.000862   0.000153
    32  H    0.000027  -0.000000  -0.000084  -0.003666  -0.040082  -0.004729
    33  H    0.000000   0.000000  -0.000002  -0.000076   0.000238  -0.000000
    34  H    0.000000   0.000000  -0.000000   0.000002   0.000056  -0.000019
    35  H    0.000000  -0.000000  -0.000000   0.000001  -0.000103   0.000001
    36  H    0.000002  -0.000000  -0.000011   0.000154  -0.003918  -0.001035
    37  H   -0.000009  -0.000000   0.000013  -0.000095  -0.006024   0.001622
    38  H    0.000000  -0.000000   0.000000  -0.000002   0.000001  -0.000000
    39  H    0.000000   0.000000  -0.000000  -0.000001   0.000001   0.000000
    40  H    0.000000  -0.000000   0.000000   0.000000  -0.000000   0.000000
    41  H    0.000000  -0.000000   0.000000  -0.000000  -0.000000   0.000000
    42  H    0.000000  -0.000000  -0.000000   0.000000   0.000000  -0.000000
    43  H   -0.000000  -0.000000   0.000000   0.000000  -0.000005  -0.000000
    44  H    0.000000   0.000000  -0.000000  -0.000000  -0.000004   0.000000
    45  H    0.000000  -0.000000  -0.000000   0.000001   0.000119   0.000002
    46  H   -0.000000   0.000000  -0.000000   0.000000  -0.000000  -0.000000
               7          8          9         10         11         12
     1  C    0.342066   0.003954  -0.000148  -0.000011  -0.000113  -0.000000
     2  O   -0.079116  -0.000099   0.000000   0.000000   0.000001   0.000000
     3  C   -0.138892  -0.035867   0.002591   0.000493   0.003654   0.000003
     4  C    0.000457   0.362086  -0.035489  -0.014825  -0.030904   0.000295
     5  C   -0.035738  -0.069047  -0.012038  -0.041592   0.365284   0.004017
     6  C    0.287823   0.005239  -0.000340   0.004191  -0.048756  -0.000139
     7  C    5.360537  -0.000169   0.000047  -0.000110   0.004687   0.000002
     8  C   -0.000169   5.153386   0.336013  -0.043374  -0.015894   0.004165
     9  C    0.000047   0.336013   5.105104   0.370027  -0.044157  -0.044130
    10  C   -0.000110  -0.043374   0.370027   5.020615   0.373401   0.369293
    11  C    0.004687  -0.015894  -0.044157   0.373401   5.041647  -0.037696
    12  C    0.000002   0.004165  -0.044130   0.369293  -0.037696   5.111686
    13  C    0.000000  -0.000143   0.004583  -0.027655  -0.012704   0.354336
    14  C   -0.000001  -0.000011  -0.000069  -0.012500  -0.037962  -0.050878
    15  C    0.000138   0.000290   0.004734  -0.042499   0.366627  -0.019133
    16  C   -0.000000   0.000087  -0.004733  -0.034772   0.004415   0.357169
    17  C    0.000000  -0.000001   0.000178   0.004197  -0.000180  -0.059698
    18  C    0.000000   0.000002  -0.000122   0.004070   0.000123  -0.066929
    19  C    0.000000  -0.000003   0.000207  -0.007168  -0.002634  -0.059176
    20  O    0.000000  -0.000000   0.000000  -0.000068  -0.000002   0.003572
    21  H    0.006930  -0.008152   0.000259   0.000000  -0.000091   0.000000
    22  H   -0.006015   0.001074  -0.000675  -0.005360  -0.043537   0.000015
    23  H   -0.041655   0.000010  -0.000042   0.000094  -0.003517  -0.000001
    24  H   -0.031171  -0.000118  -0.000009  -0.000007  -0.008026  -0.000003
    25  H    0.367288  -0.000049  -0.000002   0.000001   0.000059   0.000000
    26  H    0.368136   0.000009   0.000000   0.000002  -0.000070  -0.000000
    27  H    0.000007   0.379631  -0.031783   0.004314  -0.000172  -0.000119
    28  H   -0.000094   0.379527  -0.041481  -0.005745  -0.000654   0.000007
    29  H   -0.000005  -0.036307   0.380378  -0.039340  -0.007611  -0.003564
    30  H   -0.000000  -0.031916   0.379852  -0.033248   0.004876  -0.007602
    31  H   -0.000010   0.000187  -0.049715   0.383039  -0.048927  -0.042105
    32  H   -0.000065   0.000230  -0.006545  -0.045745   0.378188  -0.004472
    33  H    0.000000   0.000063  -0.004987  -0.043745  -0.006377   0.381856
    34  H   -0.000000   0.000000  -0.000026  -0.000491  -0.003878  -0.007094
    35  H   -0.000000  -0.000000   0.000011  -0.000118   0.004223   0.006719
    36  H   -0.000065  -0.000003  -0.000012  -0.004056  -0.044637  -0.000464
    37  H    0.000015  -0.000011  -0.000131   0.004561  -0.031202   0.000068
    38  H   -0.000000  -0.000005   0.001230  -0.001999  -0.000079  -0.027098
    39  H   -0.000000  -0.000040  -0.000732  -0.004056   0.000084  -0.040428
    40  H   -0.000000  -0.000000  -0.000007  -0.000064   0.000004   0.000784
    41  H   -0.000000  -0.000000   0.000001  -0.000137   0.000002   0.004019
    42  H   -0.000000  -0.000000   0.000006  -0.000261  -0.000007   0.000209
    43  H    0.000000   0.000000  -0.000039  -0.000243   0.000076  -0.005406
    44  H    0.000000  -0.000000  -0.000000   0.000069   0.000060   0.005930
    45  H   -0.000000   0.000010  -0.000003   0.000770  -0.000589  -0.005306
    46  H   -0.000000   0.000000   0.000000  -0.000000   0.000000   0.000132
              13         14         15         16         17         18
     1  C   -0.000000   0.000000  -0.000003  -0.000000   0.000000   0.000000
     2  O    0.000000  -0.000000  -0.000000  -0.000000  -0.000000   0.000000
     3  C    0.000000   0.000001  -0.000119   0.000000  -0.000000  -0.000000
     4  C    0.000006  -0.000095   0.004445   0.000000   0.000000  -0.000000
     5  C    0.000035   0.003569  -0.043628  -0.000119   0.000002   0.000004
     6  C   -0.000007   0.000200  -0.004439   0.000001  -0.000000   0.000000
     7  C    0.000000  -0.000001   0.000138  -0.000000   0.000000   0.000000
     8  C   -0.000143  -0.000011   0.000290   0.000087  -0.000001   0.000002
     9  C    0.004583  -0.000069   0.004734  -0.004733   0.000178  -0.000122
    10  C   -0.027655  -0.012500  -0.042499  -0.034772   0.004197   0.004070
    11  C   -0.012704  -0.037962   0.366627   0.004415  -0.000180   0.000123
    12  C    0.354336  -0.050878  -0.019133   0.357169  -0.059698  -0.066929
    13  C    5.100240   0.372202  -0.036807  -0.056086  -0.075300   0.368453
    14  C    0.372202   5.119693   0.354724   0.006152   0.006315  -0.040084
    15  C   -0.036807   0.354724   5.099385   0.000263  -0.000251   0.004210
    16  C   -0.056086   0.006152   0.000263   5.108133   0.344782  -0.063521
    17  C   -0.075300   0.006315  -0.000251   0.344782   5.172063   0.357487
    18  C    0.368453  -0.040084   0.004210  -0.063521   0.357487   4.821226
    19  C    0.352478  -0.069733  -0.004681  -0.002811  -0.006798  -0.055884
    20  O   -0.053878   0.000439  -0.000017   0.002063  -0.048531   0.248163
    21  H   -0.000000  -0.000000   0.000002  -0.000000  -0.000000  -0.000000
    22  H   -0.000028   0.000080  -0.007777   0.000001   0.000000  -0.000000
    23  H    0.000000  -0.000035  -0.000863   0.000000   0.000000  -0.000000
    24  H   -0.000002   0.000021   0.003194   0.000000   0.000000   0.000000
    25  H    0.000000  -0.000000  -0.000028   0.000000   0.000000  -0.000000
    26  H   -0.000000  -0.000000  -0.000001   0.000000  -0.000000  -0.000000
    27  H    0.000001  -0.000000   0.000009  -0.000002  -0.000000  -0.000000
    28  H    0.000004   0.000000  -0.000007  -0.000010  -0.000000   0.000000
    29  H   -0.000011  -0.000009   0.000118  -0.000481  -0.000022  -0.000001
    30  H    0.000040  -0.000005  -0.000143   0.004254  -0.000004  -0.000008
    31  H   -0.009987   0.000466  -0.003092  -0.003621  -0.000006   0.000064
    32  H   -0.001139  -0.000428  -0.043576  -0.000027   0.000002  -0.000047
    33  H   -0.051135  -0.006924  -0.001195  -0.046419  -0.001204  -0.002404
    34  H   -0.037234   0.376852  -0.037004   0.000082   0.000084  -0.005723
    35  H   -0.037097   0.372493  -0.034571  -0.000244   0.000003  -0.003108
    36  H   -0.007559  -0.036224   0.382351  -0.000017  -0.000000  -0.000049
    37  H    0.004747  -0.034113   0.379663   0.000009   0.000003  -0.000073
    38  H    0.005443  -0.000157  -0.000005   0.378810  -0.029540   0.003401
    39  H   -0.005729   0.000042  -0.000028   0.386463  -0.034723   0.001253
    40  H    0.003208  -0.000162   0.000004  -0.032946   0.378164  -0.027131
    41  H   -0.000519  -0.000111   0.000004  -0.025967   0.373283  -0.032641
    42  H   -0.068413  -0.008362   0.000144   0.003573  -0.045186   0.388139
    43  H   -0.031412   0.005318   0.000044   0.002475   0.002683  -0.004960
    44  H   -0.029342  -0.004707  -0.000353  -0.000288   0.000271  -0.008543
    45  H   -0.033510  -0.006509   0.001936  -0.000088  -0.000201   0.005255
    46  H   -0.001682   0.001190  -0.000043  -0.000315   0.007481  -0.024735
              19         20         21         22         23         24
     1  C   -0.000000   0.000000  -0.029833   0.000953  -0.002789   0.003554
     2  O    0.000000   0.000000   0.000864   0.000009   0.000081  -0.000073
     3  C    0.000000   0.000000   0.359208  -0.004461   0.003822  -0.000287
     4  C    0.000001   0.000000  -0.046068  -0.044626  -0.004564   0.004928
     5  C    0.000078  -0.000000   0.004895   0.366617  -0.041965  -0.032264
     6  C    0.000001   0.000000  -0.000426  -0.033760   0.385935   0.377597
     7  C    0.000000   0.000000   0.006930  -0.006015  -0.041655  -0.031171
     8  C   -0.000003  -0.000000  -0.008152   0.001074   0.000010  -0.000118
     9  C    0.000207   0.000000   0.000259  -0.000675  -0.000042  -0.000009
    10  C   -0.007168  -0.000068   0.000000  -0.005360   0.000094  -0.000007
    11  C   -0.002634  -0.000002  -0.000091  -0.043537  -0.003517  -0.008026
    12  C   -0.059176   0.003572   0.000000   0.000015  -0.000001  -0.000003
    13  C    0.352478  -0.053878  -0.000000  -0.000028   0.000000  -0.000002
    14  C   -0.069733   0.000439  -0.000000   0.000080  -0.000035   0.000021
    15  C   -0.004681  -0.000017   0.000002  -0.007777  -0.000863   0.003194
    16  C   -0.002811   0.002063  -0.000000   0.000001   0.000000   0.000000
    17  C   -0.006798  -0.048531  -0.000000   0.000000   0.000000   0.000000
    18  C   -0.055884   0.248163  -0.000000  -0.000000  -0.000000   0.000000
    19  C    5.200062   0.000409   0.000000  -0.000091  -0.000000  -0.000001
    20  O    0.000409   8.280467   0.000000  -0.000000   0.000000   0.000000
    21  H    0.000000   0.000000   0.537202  -0.000227  -0.000112   0.000013
    22  H   -0.000091  -0.000000  -0.000227   0.589582   0.005443  -0.003080
    23  H   -0.000000   0.000000  -0.000112   0.005443   0.553642  -0.029478
    24  H   -0.000001   0.000000   0.000013  -0.003080  -0.029478   0.552411
    25  H   -0.000000   0.000000  -0.000192   0.006001   0.005139  -0.004263
    26  H    0.000000  -0.000000  -0.000112  -0.000146  -0.002538  -0.003099
    27  H    0.000000   0.000000   0.005410  -0.000103  -0.000001   0.000002
    28  H   -0.000008  -0.000000   0.000215   0.001627   0.000003   0.000009
    29  H   -0.000004  -0.000000  -0.000004   0.000100  -0.000003   0.000002
    30  H   -0.000008   0.000000  -0.000009  -0.000008   0.000000   0.000000
    31  H    0.002483  -0.000002  -0.000002   0.005231   0.000006  -0.000001
    32  H    0.000032   0.000000  -0.000011   0.005846   0.004872   0.000045
    33  H    0.006385   0.000021  -0.000000   0.000001  -0.000002  -0.000000
    34  H    0.006078  -0.000035   0.000000   0.000004   0.000000   0.000009
    35  H   -0.005576   0.001107   0.000000  -0.000005   0.000000   0.000005
    36  H    0.002267  -0.000003  -0.000000   0.006321   0.000102   0.000827
    37  H    0.000107   0.000001   0.000000   0.000037   0.000610   0.002078
    38  H    0.000124  -0.000040  -0.000000   0.000000   0.000000  -0.000000
    39  H    0.001561   0.000031   0.000000  -0.000001  -0.000000  -0.000000
    40  H    0.000078   0.002070   0.000000  -0.000000  -0.000000  -0.000000
    41  H    0.001054   0.003056  -0.000000  -0.000000  -0.000000   0.000000
    42  H    0.007401  -0.039594  -0.000000  -0.000000  -0.000000   0.000000
    43  H    0.381614   0.000417   0.000000   0.000002   0.000000   0.000000
    44  H    0.373527   0.008989   0.000000   0.000001   0.000000   0.000000
    45  H    0.373794   0.000595  -0.000000   0.000084   0.000000  -0.000001
    46  H   -0.001325   0.240825   0.000000   0.000000   0.000000   0.000000
              25         26         27         28         29         30
     1  C   -0.028246  -0.024565   0.000277  -0.000100   0.000000   0.000001
     2  O   -0.000391   0.002754  -0.000002   0.000004  -0.000000  -0.000000
     3  C    0.002151   0.005546  -0.002972  -0.008117  -0.000160  -0.000083
     4  C   -0.001920  -0.000164  -0.039687  -0.040858  -0.003581   0.004429
     5  C   -0.004120   0.004241   0.004320   0.000365   0.000408   0.000045
     6  C   -0.040523  -0.030783  -0.000150   0.000138   0.000010   0.000012
     7  C    0.367288   0.368136   0.000007  -0.000094  -0.000005  -0.000000
     8  C   -0.000049   0.000009   0.379631   0.379527  -0.036307  -0.031916
     9  C   -0.000002   0.000000  -0.031783  -0.041481   0.380378   0.379852
    10  C    0.000001   0.000002   0.004314  -0.005745  -0.039340  -0.033248
    11  C    0.000059  -0.000070  -0.000172  -0.000654  -0.007611   0.004876
    12  C    0.000000  -0.000000  -0.000119   0.000007  -0.003564  -0.007602
    13  C    0.000000  -0.000000   0.000001   0.000004  -0.000011   0.000040
    14  C   -0.000000  -0.000000  -0.000000   0.000000  -0.000009  -0.000005
    15  C   -0.000028  -0.000001   0.000009  -0.000007   0.000118  -0.000143
    16  C    0.000000   0.000000  -0.000002  -0.000010  -0.000481   0.004254
    17  C    0.000000  -0.000000  -0.000000  -0.000000  -0.000022  -0.000004
    18  C   -0.000000  -0.000000  -0.000000   0.000000  -0.000001  -0.000008
    19  C   -0.000000   0.000000   0.000000  -0.000008  -0.000004  -0.000008
    20  O    0.000000  -0.000000   0.000000  -0.000000  -0.000000   0.000000
    21  H   -0.000192  -0.000112   0.005410   0.000215  -0.000004  -0.000009
    22  H    0.006001  -0.000146  -0.000103   0.001627   0.000100  -0.000008
    23  H    0.005139  -0.002538  -0.000001   0.000003  -0.000003   0.000000
    24  H   -0.004263  -0.003099   0.000002   0.000009   0.000002   0.000000
    25  H    0.537551  -0.021124   0.000000   0.000011   0.000000   0.000000
    26  H   -0.021124   0.508726  -0.000000  -0.000001  -0.000000   0.000000
    27  H    0.000000  -0.000000   0.529245  -0.024546  -0.002679  -0.001997
    28  H    0.000011  -0.000001  -0.024546   0.552747   0.005077  -0.004695
    29  H    0.000000  -0.000000  -0.002679   0.005077   0.564179  -0.030232
    30  H    0.000000   0.000000  -0.001997  -0.004695  -0.030232   0.550243
    31  H   -0.000002  -0.000000   0.000080   0.005386   0.005624  -0.002468
    32  H    0.000010  -0.000002  -0.000018   0.000095   0.005770   0.000065
    33  H   -0.000000   0.000000   0.000004   0.000003   0.003768  -0.000034
    34  H   -0.000000   0.000000  -0.000000  -0.000000  -0.000009   0.000001
    35  H    0.000000   0.000000   0.000000  -0.000000   0.000000  -0.000000
    36  H    0.000002   0.000001  -0.000000  -0.000003  -0.000001   0.000004
    37  H    0.000012   0.000002  -0.000000   0.000000  -0.000005   0.000002
    38  H    0.000000  -0.000000   0.000001   0.000004   0.000264   0.000824
    39  H   -0.000000   0.000000   0.000001   0.000002   0.000069   0.000623
    40  H   -0.000000   0.000000   0.000000   0.000000  -0.000000   0.000003
    41  H   -0.000000   0.000000   0.000000  -0.000000   0.000000   0.000002
    42  H   -0.000000   0.000000   0.000000  -0.000000  -0.000001  -0.000000
    43  H    0.000000  -0.000000  -0.000000   0.000000   0.000000  -0.000000
    44  H    0.000000  -0.000000   0.000000   0.000000   0.000000  -0.000000
    45  H    0.000000   0.000000  -0.000000  -0.000007  -0.000002   0.000004
    46  H    0.000000   0.000000   0.000000   0.000000   0.000000   0.000000
              31         32         33         34         35         36
     1  C    0.000004   0.000027   0.000000   0.000000   0.000000   0.000002
     2  O    0.000000  -0.000000   0.000000   0.000000  -0.000000  -0.000000
     3  C   -0.000242  -0.000084  -0.000002  -0.000000  -0.000000  -0.000011
     4  C   -0.004695  -0.003666  -0.000076   0.000002   0.000001   0.000154
     5  C   -0.000862  -0.040082   0.000238   0.000056  -0.000103  -0.003918
     6  C    0.000153  -0.004729  -0.000000  -0.000019   0.000001  -0.001035
     7  C   -0.000010  -0.000065   0.000000  -0.000000  -0.000000  -0.000065
     8  C    0.000187   0.000230   0.000063   0.000000  -0.000000  -0.000003
     9  C   -0.049715  -0.006545  -0.004987  -0.000026   0.000011  -0.000012
    10  C    0.383039  -0.045745  -0.043745  -0.000491  -0.000118  -0.004056
    11  C   -0.048927   0.378188  -0.006377  -0.003878   0.004223  -0.044637
    12  C   -0.042105  -0.004472   0.381856  -0.007094   0.006719  -0.000464
    13  C   -0.009987  -0.001139  -0.051135  -0.037234  -0.037097  -0.007559
    14  C    0.000466  -0.000428  -0.006924   0.376852   0.372493  -0.036224
    15  C   -0.003092  -0.043576  -0.001195  -0.037004  -0.034571   0.382351
    16  C   -0.003621  -0.000027  -0.046419   0.000082  -0.000244  -0.000017
    17  C   -0.000006   0.000002  -0.001204   0.000084   0.000003  -0.000000
    18  C    0.000064  -0.000047  -0.002404  -0.005723  -0.003108  -0.000049
    19  C    0.002483   0.000032   0.006385   0.006078  -0.005576   0.002267
    20  O   -0.000002   0.000000   0.000021  -0.000035   0.001107  -0.000003
    21  H   -0.000002  -0.000011  -0.000000   0.000000   0.000000  -0.000000
    22  H    0.005231   0.005846   0.000001   0.000004  -0.000005   0.006321
    23  H    0.000006   0.004872  -0.000002   0.000000   0.000000   0.000102
    24  H   -0.000001   0.000045  -0.000000   0.000009   0.000005   0.000827
    25  H   -0.000002   0.000010  -0.000000  -0.000000   0.000000   0.000002
    26  H   -0.000000  -0.000002   0.000000   0.000000   0.000000   0.000001
    27  H    0.000080  -0.000018   0.000004  -0.000000   0.000000  -0.000000
    28  H    0.005386   0.000095   0.000003  -0.000000  -0.000000  -0.000003
    29  H    0.005624   0.005770   0.003768  -0.000009   0.000000  -0.000001
    30  H   -0.002468   0.000065  -0.000034   0.000001  -0.000000   0.000004
    31  H    0.604462   0.005830   0.005882   0.000036  -0.000014   0.001640
    32  H    0.005830   0.599196   0.004946   0.002988  -0.000078   0.005455
    33  H    0.005882   0.004946   0.618900   0.005732   0.000063   0.000084
    34  H    0.000036   0.002988   0.005732   0.577969  -0.031946   0.005021
    35  H   -0.000014  -0.000078   0.000063  -0.031946   0.586077  -0.004207
    36  H    0.001640   0.005455   0.000084   0.005021  -0.004207   0.573441
    37  H   -0.000062  -0.005137  -0.000103  -0.004432  -0.002241  -0.031400
    38  H   -0.000131  -0.000001  -0.005898  -0.000004   0.000003   0.000000
    39  H    0.003836   0.000004   0.005491  -0.000007   0.000005  -0.000005
    40  H    0.000002  -0.000000   0.001012  -0.000022   0.000001   0.000000
    41  H   -0.000004  -0.000000  -0.000036  -0.000001  -0.000000  -0.000000
    42  H   -0.000011  -0.000005   0.003105   0.005964   0.000202  -0.000002
    43  H    0.000240   0.000002  -0.000056  -0.000146  -0.000041  -0.000041
    44  H   -0.000023   0.000002  -0.000110   0.000015   0.004703   0.000347
    45  H    0.003106  -0.000027  -0.000014  -0.000046  -0.000172   0.001997
    46  H    0.000000   0.000000  -0.000007  -0.000013   0.001103   0.000001
              37         38         39         40         41         42
     1  C   -0.000009   0.000000   0.000000   0.000000   0.000000   0.000000
     2  O   -0.000000  -0.000000   0.000000  -0.000000  -0.000000  -0.000000
     3  C    0.000013   0.000000  -0.000000   0.000000   0.000000  -0.000000
     4  C   -0.000095  -0.000002  -0.000001   0.000000  -0.000000   0.000000
     5  C   -0.006024   0.000001   0.000001  -0.000000  -0.000000   0.000000
     6  C    0.001622  -0.000000   0.000000   0.000000   0.000000  -0.000000
     7  C    0.000015  -0.000000  -0.000000  -0.000000  -0.000000  -0.000000
     8  C   -0.000011  -0.000005  -0.000040  -0.000000  -0.000000  -0.000000
     9  C   -0.000131   0.001230  -0.000732  -0.000007   0.000001   0.000006
    10  C    0.004561  -0.001999  -0.004056  -0.000064  -0.000137  -0.000261
    11  C   -0.031202  -0.000079   0.000084   0.000004   0.000002  -0.000007
    12  C    0.000068  -0.027098  -0.040428   0.000784   0.004019   0.000209
    13  C    0.004747   0.005443  -0.005729   0.003208  -0.000519  -0.068413
    14  C   -0.034113  -0.000157   0.000042  -0.000162  -0.000111  -0.008362
    15  C    0.379663  -0.000005  -0.000028   0.000004   0.000004   0.000144
    16  C    0.000009   0.378810   0.386463  -0.032946  -0.025967   0.003573
    17  C    0.000003  -0.029540  -0.034723   0.378164   0.373283  -0.045186
    18  C   -0.000073   0.003401   0.001253  -0.027131  -0.032641   0.388139
    19  C    0.000107   0.000124   0.001561   0.000078   0.001054   0.007401
    20  O    0.000001  -0.000040   0.000031   0.002070   0.003056  -0.039594
    21  H    0.000000  -0.000000   0.000000   0.000000  -0.000000  -0.000000
    22  H    0.000037   0.000000  -0.000001  -0.000000  -0.000000  -0.000000
    23  H    0.000610   0.000000  -0.000000  -0.000000  -0.000000  -0.000000
    24  H    0.002078  -0.000000  -0.000000  -0.000000   0.000000   0.000000
    25  H    0.000012   0.000000  -0.000000  -0.000000  -0.000000  -0.000000
    26  H    0.000002  -0.000000   0.000000   0.000000   0.000000   0.000000
    27  H   -0.000000   0.000001   0.000001   0.000000   0.000000   0.000000
    28  H    0.000000   0.000004   0.000002   0.000000  -0.000000  -0.000000
    29  H   -0.000005   0.000264   0.000069  -0.000000   0.000000  -0.000001
    30  H    0.000002   0.000824   0.000623   0.000003   0.000002  -0.000000
    31  H   -0.000062  -0.000131   0.003836   0.000002  -0.000004  -0.000011
    32  H   -0.005137  -0.000001   0.000004  -0.000000  -0.000000  -0.000005
    33  H   -0.000103  -0.005898   0.005491   0.001012  -0.000036   0.003105
    34  H   -0.004432  -0.000004  -0.000007  -0.000022  -0.000001   0.005964
    35  H   -0.002241   0.000003   0.000005   0.000001  -0.000000   0.000202
    36  H   -0.031400   0.000000  -0.000005   0.000000  -0.000000  -0.000002
    37  H    0.557370  -0.000000   0.000000  -0.000000  -0.000000  -0.000005
    38  H   -0.000000   0.551597  -0.032617  -0.006985   0.002033  -0.000153
    39  H    0.000000  -0.032617   0.564235   0.004050  -0.008284  -0.000159
    40  H   -0.000000  -0.006985   0.004050   0.544533  -0.026003  -0.006867
    41  H   -0.000000   0.002033  -0.008284  -0.026003   0.520391   0.004639
    42  H   -0.000005  -0.000153  -0.000159  -0.006867   0.004639   0.631473
    43  H   -0.000001  -0.000008   0.002006  -0.000027   0.000030   0.000039
    44  H   -0.000030  -0.000000  -0.000006  -0.000002   0.000023   0.000201
    45  H    0.000050  -0.000017   0.000121   0.000002   0.000025  -0.000071
    46  H    0.000001   0.000004   0.000000  -0.000263  -0.000099  -0.004962
              43         44         45         46
     1  C   -0.000000   0.000000   0.000000  -0.000000
     2  O   -0.000000   0.000000  -0.000000   0.000000
     3  C    0.000000  -0.000000  -0.000000  -0.000000
     4  C    0.000000  -0.000000   0.000001   0.000000
     5  C   -0.000005  -0.000004   0.000119  -0.000000
     6  C   -0.000000   0.000000   0.000002  -0.000000
     7  C    0.000000   0.000000  -0.000000  -0.000000
     8  C    0.000000  -0.000000   0.000010   0.000000
     9  C   -0.000039  -0.000000  -0.000003   0.000000
    10  C   -0.000243   0.000069   0.000770  -0.000000
    11  C    0.000076   0.000060  -0.000589   0.000000
    12  C   -0.005406   0.005930  -0.005306   0.000132
    13  C   -0.031412  -0.029342  -0.033510  -0.001682
    14  C    0.005318  -0.004707  -0.006509   0.001190
    15  C    0.000044  -0.000353   0.001936  -0.000043
    16  C    0.002475  -0.000288  -0.000088  -0.000315
    17  C    0.002683   0.000271  -0.000201   0.007481
    18  C   -0.004960  -0.008543   0.005255  -0.024735
    19  C    0.381614   0.373527   0.373794  -0.001325
    20  O    0.000417   0.008989   0.000595   0.240825
    21  H    0.000000   0.000000  -0.000000   0.000000
    22  H    0.000002   0.000001   0.000084   0.000000
    23  H    0.000000   0.000000   0.000000   0.000000
    24  H    0.000000   0.000000  -0.000001   0.000000
    25  H    0.000000   0.000000   0.000000   0.000000
    26  H   -0.000000  -0.000000   0.000000   0.000000
    27  H   -0.000000   0.000000  -0.000000   0.000000
    28  H    0.000000   0.000000  -0.000007   0.000000
    29  H    0.000000   0.000000  -0.000002   0.000000
    30  H   -0.000000  -0.000000   0.000004   0.000000
    31  H    0.000240  -0.000023   0.003106   0.000000
    32  H    0.000002   0.000002  -0.000027   0.000000
    33  H   -0.000056  -0.000110  -0.000014  -0.000007
    34  H   -0.000146   0.000015  -0.000046  -0.000013
    35  H   -0.000041   0.004703  -0.000172   0.001103
    36  H   -0.000041   0.000347   0.001997   0.000001
    37  H   -0.000001  -0.000030   0.000050   0.000001
    38  H   -0.000008  -0.000000  -0.000017   0.000004
    39  H    0.002006  -0.000006   0.000121   0.000000
    40  H   -0.000027  -0.000002   0.000002  -0.000263
    41  H    0.000030   0.000023   0.000025  -0.000099
    42  H    0.000039   0.000201  -0.000071  -0.004962
    43  H    0.526738  -0.023621  -0.028743   0.000060
    44  H   -0.023621   0.541522  -0.029333   0.001191
    45  H   -0.028743  -0.029333   0.560196  -0.000084
    46  H    0.000060   0.001191  -0.000084   0.376788
 Mulliken charges:
               1
     1  C    0.458423
     2  O   -0.512149
     3  C   -0.274467
     4  C    0.170533
     5  C   -0.184898
     6  C   -0.331099
     7  C   -0.405027
     8  C   -0.384755
     9  C   -0.307807
    10  C   -0.129945
    11  C   -0.117032
    12  C   -0.122833
    13  C    0.011604
    14  C   -0.310678
    15  C   -0.322023
    16  C   -0.326265
    17  C   -0.345353
    18  C    0.134112
    19  C   -0.493839
    20  O   -0.650055
    21  H    0.170241
    22  H    0.160872
    23  H    0.167803
    24  H    0.167187
    25  H    0.182634
    26  H    0.193191
    27  H    0.180928
    28  H    0.181099
    29  H    0.158265
    30  H    0.167182
    31  H    0.138226
    32  H    0.142281
    33  H    0.133173
    34  H    0.147237
    35  H    0.142804
    36  H    0.153697
    37  H    0.164101
    38  H    0.160998
    39  H    0.156939
    40  H    0.166562
    41  H    0.185242
    42  H    0.128964
    43  H    0.173005
    44  H    0.159510
    45  H    0.156659
    46  H    0.404751
 Sum of Mulliken charges =  -0.00000
 Mulliken charges with hydrogens summed into heavy atoms:
               1
     1  C    0.458423
     2  O   -0.512149
     3  C   -0.104226
     4  C    0.170533
     5  C   -0.024026
     6  C    0.003891
     7  C   -0.029202
     8  C   -0.022727
     9  C    0.017639
    10  C    0.008281
    11  C    0.025249
    12  C    0.010340
    13  C    0.011604
    14  C   -0.020637
    15  C   -0.004225
    16  C   -0.008327
    17  C    0.006452
    18  C    0.263076
    19  C   -0.004665
    20  O   -0.245304
 Electronic spatial extent (au):  <R**2>=           6857.1753
 Charge=             -0.0000 electrons
 Dipole moment (field-independent basis, Debye):
    X=             -4.1391    Y=             -0.7944    Z=             -0.3232  Tot=              4.2270
 Quadrupole moment (field-independent basis, Debye-Ang):
   XX=           -169.0463   YY=           -111.8806   ZZ=           -119.1176
   XY=              2.4364   XZ=              4.6864   YZ=              0.6351
 Traceless Quadrupole moment (field-independent basis, Debye-Ang):
   XX=            -35.6981   YY=             21.4675   ZZ=             14.2306
   XY=              2.4364   XZ=              4.6864   YZ=              0.6351
 Octapole moment (field-independent basis, Debye-Ang**2):
  XXX=           -226.7072  YYY=            -11.9275  ZZZ=             -0.3603  XYY=            -11.0546
  XXY=            -26.3560  XXZ=            -13.0857  XZZ=              0.4974  YZZ=             -1.0223
  YYZ=              0.4699  XYZ=             -1.7919
 Hexadecapole moment (field-independent basis, Debye-Ang**3):
 XXXX=          -9396.3958 YYYY=          -1365.3009 ZZZZ=           -408.0648 XXXY=             75.1411
 XXXZ=             88.5095 YYYX=             85.9267 YYYZ=             -4.5303 ZZZX=              6.9384
 ZZZY=              1.5046 XXYY=          -1253.7640 XXZZ=          -1237.2381 YYZZ=           -303.5421
 XXYZ=             11.5164 YYXZ=             -4.8437 ZZXY=             -6.5007
 N-N= 1.670686285221D+03 E-N=-5.318727683859D+03  KE= 8.443544165755D+02

 **********************************************************************

            Electrostatic Properties Using The SCF Density.

 **********************************************************************

       Atomic Center    1 is at   4.691612 -0.123956  0.019798
       Atomic Center    2 is at   5.930160 -0.021251 -0.021072
       Atomic Center    3 is at   3.817281  0.998102 -0.043107
       Atomic Center    4 is at   2.474241  0.900784  0.115693
       Atomic Center    5 is at   1.783561 -0.426205  0.191673
       Atomic Center    6 is at   2.672089 -1.522515 -0.400289
       Atomic Center    7 is at   4.054839 -1.466819  0.228071
       Atomic Center    8 is at   1.669570  2.120691  0.350700
       Atomic Center    9 is at   0.283797  2.070186 -0.282897
       Atomic Center   10 is at  -0.419591  0.780816  0.123096
       Atomic Center   11 is at   0.372869 -0.410821 -0.435211
       Atomic Center   12 is at  -1.848388  0.709068 -0.396663
       Atomic Center   13 is at  -2.557850 -0.579913  0.050558
       Atomic Center   14 is at  -1.819012 -1.746108 -0.602810
       Atomic Center   15 is at  -0.343692 -1.747018 -0.185162
       Atomic Center   16 is at  -2.823440  1.811419  0.003279
       Atomic Center   17 is at  -4.196190  1.207753 -0.326979
       Atomic Center   18 is at  -3.997969 -0.319376 -0.468752
       Atomic Center   19 is at  -2.608284 -0.760821  1.567412
       Atomic Center   20 is at  -5.032385 -0.963541  0.237486
       Atomic Center   21 is at   4.285344  1.972316 -0.097340
       Atomic Center   22 is at   1.649157 -0.625147  1.264071
       Atomic Center   23 is at   2.750871 -1.385512 -1.483099
       Atomic Center   24 is at   2.241552 -2.505324 -0.210129
       Atomic Center   25 is at   3.957109 -1.607874  1.308452
       Atomic Center   26 is at   4.706753 -2.256747 -0.152970
       Atomic Center   27 is at   2.214719  3.009916  0.032220
       Atomic Center   28 is at   1.559416  2.182803  1.443321
       Atomic Center   29 is at   0.376707  2.117724 -1.371401
       Atomic Center   30 is at  -0.294739  2.933400  0.041644
       Atomic Center   31 is at  -0.422585  0.728092  1.212238
       Atomic Center   32 is at   0.473951 -0.271693 -1.520159
       Atomic Center   33 is at  -1.804986  0.691108 -1.495077
       Atomic Center   34 is at  -1.885725 -1.650286 -1.691497
       Atomic Center   35 is at  -2.265676 -2.703295 -0.328458
       Atomic Center   36 is at  -0.266604 -1.993681  0.873065
       Atomic Center   37 is at   0.158826 -2.537673 -0.744301
       Atomic Center   38 is at  -2.650804  2.739590 -0.536488
       Atomic Center   39 is at  -2.732291  2.022205  1.066099
       Atomic Center   40 is at  -4.598674  1.625706 -1.249262
       Atomic Center   41 is at  -4.922291  1.391656  0.463285
       Atomic Center   42 is at  -4.050727 -0.611522 -1.530400
       Atomic Center   43 is at  -3.138995  0.063515  2.029579
       Atomic Center   44 is at  -3.133866 -1.683420  1.802337
       Atomic Center   45 is at  -1.617634 -0.815794  1.998594
       Atomic Center   46 is at  -5.003656 -1.923333  0.093931
 -----------------------------------------------------------------

              Electrostatic Properties (Atomic Units)

 -----------------------------------------------------------------
    Center     Electric         -------- Electric Field --------
               Potential          X             Y             Z
 -----------------------------------------------------------------
    1 Atom    -14.675764      0.003729     -0.003175     -0.000400
    2 Atom    -22.354655      0.104827      0.008412     -0.003743
    3 Atom    -14.750817     -0.009252      0.000705      0.001350
    4 Atom    -14.712189      0.012683      0.000694     -0.001956
    5 Atom    -14.720896     -0.002313     -0.004307     -0.003268
    6 Atom    -14.734360     -0.000153     -0.000609      0.000639
    7 Atom    -14.744021      0.001314     -0.000584     -0.002872
    8 Atom    -14.729085     -0.002275      0.002609     -0.001289
    9 Atom    -14.736046     -0.002174     -0.002117      0.000568
   10 Atom    -14.734580     -0.001217      0.000409     -0.003762
   11 Atom    -14.727353     -0.002144      0.000870      0.002082
   12 Atom    -14.740709     -0.000703     -0.001039      0.004639
   13 Atom    -14.736598     -0.001492      0.001609     -0.002581
   14 Atom    -14.739529     -0.001680      0.004024      0.001704
   15 Atom    -14.737244     -0.000138      0.000446     -0.001093
   16 Atom    -14.745255      0.001211     -0.000994     -0.000839
   17 Atom    -14.748490     -0.002098     -0.000876      0.001615
   18 Atom    -14.691583      0.019339      0.010823     -0.009937
   19 Atom    -14.753957     -0.001080      0.000321     -0.001917
   20 Atom    -22.312118     -0.076265      0.057847      0.062968
   21 Atom     -1.109263      0.017382      0.032380     -0.002071
   22 Atom     -1.102590     -0.005263     -0.009798      0.033517
   23 Atom     -1.117497      0.001122      0.002134     -0.032353
   24 Atom     -1.118553     -0.013933     -0.029607      0.002958
   25 Atom     -1.107073     -0.000087     -0.008007      0.033664
   26 Atom     -1.118666      0.022097     -0.018770     -0.009431
   27 Atom     -1.110464      0.016943      0.026987     -0.008110
   28 Atom     -1.101860     -0.004603      0.007920      0.030912
   29 Atom     -1.117692      0.000618      0.003764     -0.033055
   30 Atom     -1.119203     -0.018554      0.028000      0.008125
   31 Atom     -1.118478     -0.002814     -0.001164      0.036649
   32 Atom     -1.118004      0.003022      0.004235     -0.032172
   33 Atom     -1.123560      0.001431     -0.000224     -0.032713
   34 Atom     -1.121299     -0.003496      0.000628     -0.032324
   35 Atom     -1.120958     -0.013679     -0.031041      0.006984
   36 Atom     -1.119506      0.003494     -0.011945      0.033076
   37 Atom     -1.121369      0.016024     -0.024574     -0.013953
   38 Atom     -1.126512      0.005618      0.030005     -0.015505
   39 Atom     -1.126711      0.002262      0.009438      0.034340
   40 Atom     -1.128396     -0.014249      0.012898     -0.026170
   41 Atom     -1.129185     -0.024411      0.003437      0.022522
   42 Atom     -1.128973     -0.000895     -0.006941     -0.030038
   43 Atom     -1.124832     -0.020216      0.023176      0.019653
   44 Atom     -1.124228     -0.018706     -0.025446      0.011274
   45 Atom     -1.122186      0.031521     -0.002404      0.018388
   46 Atom     -0.995504      0.000054     -0.038459     -0.005880
 -----------------------------------------------------------------
 -----------------------------------------------------
    Center         ---- Electric Field Gradient ----
                     XX            YY            ZZ
 -----------------------------------------------------
    1 Atom     -493.304524   -493.228175   -493.987815
    2 Atom    -1217.149638  -1214.557440  -1217.614294
    3 Atom     -493.148892   -493.210337   -493.460351
    4 Atom     -493.204375   -493.294514   -493.872985
    5 Atom     -492.765105   -492.801234   -492.795014
    6 Atom     -492.648720   -492.614314   -492.622520
    7 Atom     -492.731452   -492.744994   -492.761247
    8 Atom     -492.606140   -492.646833   -492.637748
    9 Atom     -492.690029   -492.642036   -492.660055
   10 Atom     -492.791915   -492.811512   -492.799691
   11 Atom     -492.850981   -492.809053   -492.822377
   12 Atom     -492.936089   -492.953081   -492.949712
   13 Atom     -492.960536   -492.955746   -492.987460
   14 Atom     -492.738559   -492.704175   -492.717011
   15 Atom     -492.665122   -492.656271   -492.627565
   16 Atom     -492.677076   -492.631583   -492.615884
   17 Atom     -492.663642   -492.715115   -492.624419
   18 Atom     -492.824767   -492.707151   -492.717986
   19 Atom     -492.569503   -492.583689   -492.624776
   20 Atom    -1214.053082  -1215.616220  -1213.286733
   21 Atom       -1.699821     -1.990155     -1.600158
   22 Atom       -1.629448     -1.637510     -2.020487
   23 Atom       -1.625199     -1.626089     -2.045195
   24 Atom       -1.706575     -1.994688     -1.644402
   25 Atom       -1.610052     -1.613940     -2.032433
   26 Atom       -1.760033     -1.834996     -1.658977
   27 Atom       -1.738554     -1.918007     -1.657165
   28 Atom       -1.612297     -1.610619     -2.022602
   29 Atom       -1.630147     -1.626897     -2.058150
   30 Atom       -1.760007     -1.914856     -1.670609
   31 Atom       -1.648838     -1.649082     -2.084125
   32 Atom       -1.640580     -1.644580     -2.044362
   33 Atom       -1.648162     -1.642908     -2.058250
   34 Atom       -1.632929     -1.633662     -2.057720
   35 Atom       -1.713272     -1.976269     -1.661002
   36 Atom       -1.639332     -1.657787     -2.056490
   37 Atom       -1.732387     -1.867025     -1.747301
   38 Atom       -1.645640     -1.963969     -1.745545
   39 Atom       -1.639523     -1.652657     -2.069356
   40 Atom       -1.690620     -1.699551     -1.953542
   41 Atom       -1.811366     -1.627760     -1.850635
   42 Atom       -1.673929     -1.701511     -2.049108
   43 Atom       -1.721717     -1.885465     -1.705779
   44 Atom       -1.712947     -1.942201     -1.638047
   45 Atom       -2.026603     -1.627658     -1.705032
   46 Atom       -1.442052     -2.076504     -1.442622
 -----------------------------------------------------
 -----------------------------------------------------
    Center         ---- Electric Field Gradient ----
                     XY            XZ            YZ
 -----------------------------------------------------
    1 Atom       -0.018193     -0.012818     -0.084611
    2 Atom       -0.202156      0.023920     -0.330708
    3 Atom       -0.007415     -0.033222     -0.011615
    4 Atom        0.001617     -0.071351      0.030488
    5 Atom       -0.019322     -0.011170     -0.006292
    6 Atom        0.026046     -0.001159     -0.026185
    7 Atom       -0.004754     -0.032981      0.001292
    8 Atom        0.024161     -0.018952     -0.008373
    9 Atom       -0.007068     -0.022891      0.018181
   10 Atom       -0.000969      0.006195     -0.000900
   11 Atom       -0.011443     -0.016776     -0.007985
   12 Atom        0.012269     -0.011274      0.005374
   13 Atom        0.002247      0.003569      0.002151
   14 Atom       -0.012028     -0.008978     -0.011707
   15 Atom       -0.018770     -0.006408      0.017035
   16 Atom       -0.002927     -0.003762     -0.011386
   17 Atom       -0.011991     -0.025077     -0.028069
   18 Atom       -0.149905      0.163635      0.132059
   19 Atom       -0.001340     -0.005464      0.012532
   20 Atom       -0.707056      1.060773      0.172503
   21 Atom       -0.173838      0.011411      0.021419
   22 Atom       -0.009562      0.051925      0.076202
   23 Atom       -0.001587      0.029291      0.053174
   24 Atom       -0.158390      0.030252      0.069069
   25 Atom       -0.006958      0.039489      0.056750
   26 Atom        0.187551      0.090078     -0.111677
   27 Atom       -0.178061      0.064774      0.106174
   28 Atom        0.005112      0.044321     -0.025847
   29 Atom       -0.003265      0.035303      0.018315
   30 Atom        0.187862      0.069982     -0.106753
   31 Atom       -0.002156      0.001271      0.022330
   32 Atom       -0.004812      0.037531      0.053342
   33 Atom        0.000737      0.016406     -0.007670
   34 Atom        0.003987     -0.027109      0.038088
   35 Atom       -0.160327      0.046764      0.098162
   36 Atom        0.004715     -0.031696      0.097896
   37 Atom        0.147254      0.104321     -0.164375
   38 Atom       -0.062745      0.035031      0.192938
   39 Atom       -0.007530     -0.036333     -0.085485
   40 Atom        0.061594     -0.140727      0.144991
   41 Atom        0.051916      0.215759     -0.058040
   42 Atom       -0.011321     -0.013804     -0.102353
   43 Atom        0.175011      0.097313     -0.149679
   44 Atom       -0.190142      0.047416      0.082455
   45 Atom        0.021741     -0.169961      0.009734
   46 Atom        0.014458      0.027381     -0.096845
 -----------------------------------------------------
 -----------------------------------------------------
    Center         ---- Electric Field Gradient ----
                   ----       Eigenvalues       ----
 -----------------------------------------------------
    1 Atom     -493.997439   -493.307354   -493.215721
    2 Atom    -1217.649674  -1217.165303  -1214.506396
    3 Atom     -493.464453   -493.210321   -493.144806
    4 Atom     -493.882097   -493.292958   -493.196819
    5 Atom     -492.815100   -492.791113   -492.755139
    6 Atom     -492.666389   -492.634334   -492.584831
    7 Atom     -492.782599   -492.745557   -492.709538
    8 Atom     -492.658085   -492.646114   -492.586522
    9 Atom     -492.702513   -492.664352   -492.625255
   10 Atom     -492.811595   -492.803105   -492.788418
   11 Atom     -492.862277   -492.815209   -492.804925
   12 Atom     -492.966191   -492.945862   -492.926830
   13 Atom     -492.988031   -492.961197   -492.954514
   14 Atom     -492.747404   -492.716042   -492.696298
   15 Atom     -492.680659   -492.652805   -492.615494
   16 Atom     -492.677604   -492.637093   -492.609845
   17 Atom     -492.728635   -492.666373   -492.608168
   18 Atom     -493.056862   -492.613095   -492.579946
   19 Atom     -492.628703   -492.580817   -492.568448
   20 Atom    -1216.014152  -1214.424086  -1212.517797
   21 Atom       -2.072710     -1.618589     -1.598834
   22 Atom       -2.041851     -1.623192     -1.622402
   23 Atom       -2.053834     -1.624105     -1.618544
   24 Atom       -2.077851     -1.636543     -1.631272
   25 Atom       -2.043693     -1.608041     -1.604690
   26 Atom       -2.042453     -1.606956     -1.604597
   27 Atom       -2.065548     -1.628916     -1.619262
   28 Atom       -2.028981     -1.610706     -1.605831
   29 Atom       -2.061831     -1.628529     -1.624834
   30 Atom       -2.080382     -1.634609     -1.630481
   31 Atom       -2.085272     -1.650522     -1.646251
   32 Atom       -2.054814     -1.637609     -1.637100
   33 Atom       -2.059047     -1.647546     -1.642727
   34 Atom       -2.062855     -1.632357     -1.629099
   35 Atom       -2.080321     -1.637432     -1.632790
   36 Atom       -2.081537     -1.638792     -1.633281
   37 Atom       -2.076685     -1.637941     -1.632086
   38 Atom       -2.088127     -1.634915     -1.632112
   39 Atom       -2.089272     -1.636619     -1.635645
   40 Atom       -2.079900     -1.634577     -1.629236
   41 Atom       -2.061626     -1.614903     -1.613232
   42 Atom       -2.077665     -1.680730     -1.666153
   43 Atom       -2.081608     -1.621212     -1.610141
   44 Atom       -2.070514     -1.617173     -1.605509
   45 Atom       -2.100979     -1.631876     -1.626438
   46 Atom       -2.091489     -1.460661     -1.409029
 -----------------------------------------------------
 -----------------------------------------------------
    Center         ---- Electric Field Gradient ----
                       ( tensor representation )
                   3XX-RR        3YY-RR        3ZZ-RR
 -----------------------------------------------------
    1 Atom        0.202314      0.278663     -0.480977
    2 Atom       -0.709181      1.883017     -1.173837
    3 Atom        0.124301      0.062856     -0.187157
    4 Atom        0.252916      0.162778     -0.415694
    5 Atom        0.022013     -0.014116     -0.007897
    6 Atom       -0.020202      0.014204      0.005998
    7 Atom        0.014446      0.000904     -0.015349
    8 Atom        0.024100     -0.016593     -0.007508
    9 Atom       -0.025989      0.022004      0.003985
   10 Atom        0.009124     -0.010472      0.001348
   11 Atom       -0.023510      0.018417      0.005093
   12 Atom        0.010205     -0.006787     -0.003418
   13 Atom        0.007378      0.012168     -0.019546
   14 Atom       -0.018644      0.015740      0.002904
   15 Atom       -0.015469     -0.006618      0.022088
   16 Atom       -0.035562      0.009931      0.025630
   17 Atom        0.004083     -0.047390      0.043306
   18 Atom       -0.074799      0.042817      0.031981
   19 Atom        0.023153      0.008967     -0.032120
   20 Atom        0.265597     -1.297542      1.031945
   21 Atom        0.063557     -0.226777      0.163220
   22 Atom        0.133034      0.124971     -0.258005
   23 Atom        0.140295      0.139405     -0.279700
   24 Atom        0.075313     -0.212800      0.137486
   25 Atom        0.142090      0.138201     -0.280291
   26 Atom       -0.008698     -0.083661      0.092358
   27 Atom        0.032687     -0.146765      0.114077
   28 Atom        0.136209      0.137887     -0.274096
   29 Atom        0.141584      0.144834     -0.286418
   30 Atom        0.021817     -0.133032      0.111215
   31 Atom        0.145177      0.144933     -0.290110
   32 Atom        0.135927      0.131928     -0.267855
   33 Atom        0.134944      0.140199     -0.275143
   34 Atom        0.141841      0.141109     -0.282950
   35 Atom        0.070242     -0.192755      0.122513
   36 Atom        0.145204      0.126749     -0.271954
   37 Atom        0.049851     -0.084787      0.034937
   38 Atom        0.139411     -0.178918      0.039507
   39 Atom        0.147656      0.134521     -0.282177
   40 Atom        0.090617      0.081687     -0.172304
   41 Atom       -0.048112      0.135494     -0.087382
   42 Atom        0.134254      0.106671     -0.240925
   43 Atom        0.049270     -0.114478      0.065208
   44 Atom        0.051451     -0.177803      0.126352
   45 Atom       -0.240172      0.158773      0.081399
   46 Atom        0.211674     -0.422778      0.211104
 -----------------------------------------------------
 -----------------------------------------------------
    Center         ---- Electric Field Gradient ----
                       ( tensor representation )
                   ----       Eigenvalues       ----
 -----------------------------------------------------
    1 Atom       -0.490601      0.199484      0.291117
    2 Atom       -1.209216     -0.724845      1.934061
    3 Atom       -0.191260      0.062872      0.128388
    4 Atom       -0.424805      0.164333      0.260472
    5 Atom       -0.027983     -0.003996      0.031978
    6 Atom       -0.037871     -0.005816      0.043687
    7 Atom       -0.036701      0.000341      0.036360
    8 Atom       -0.027845     -0.015874      0.043718
    9 Atom       -0.038473     -0.000312      0.038785
   10 Atom       -0.010556     -0.002066      0.012621
   11 Atom       -0.034807      0.012262      0.022545
   12 Atom       -0.019897      0.000432      0.019465
   13 Atom       -0.020117      0.006717      0.013400
   14 Atom       -0.027489      0.003873      0.023617
   15 Atom       -0.031006     -0.003152      0.034158
   16 Atom       -0.036090      0.004421      0.031669
   17 Atom       -0.060909      0.001352      0.059557
   18 Atom       -0.306894      0.136873      0.170022
   19 Atom       -0.036047      0.011839      0.024208
   20 Atom       -1.695474     -0.105408      1.800882
   21 Atom       -0.309333      0.144789      0.164543
   22 Atom       -0.279370      0.139290      0.140080
   23 Atom       -0.288339      0.141389      0.146950
   24 Atom       -0.295963      0.145346      0.150617
   25 Atom       -0.291552      0.144100      0.147452
   26 Atom       -0.291118      0.144379      0.146739
   27 Atom       -0.294306      0.142326      0.151980
   28 Atom       -0.280475      0.137800      0.142675
   29 Atom       -0.290099      0.143202      0.146897
   30 Atom       -0.298558      0.147215      0.151343
   31 Atom       -0.291257      0.143493      0.147764
   32 Atom       -0.278306      0.138898      0.139408
   33 Atom       -0.275940      0.135561      0.140380
   34 Atom       -0.288085      0.142414      0.145671
   35 Atom       -0.296807      0.146082      0.150724
   36 Atom       -0.297001      0.145745      0.151256
   37 Atom       -0.294447      0.144296      0.150151
   38 Atom       -0.303075      0.150136      0.152939
   39 Atom       -0.302093      0.150559      0.151534
   40 Atom       -0.298662      0.146661      0.152001
   41 Atom       -0.298372      0.148350      0.150022
   42 Atom       -0.269483      0.127453      0.142029
   43 Atom       -0.310621      0.149775      0.160846
   44 Atom       -0.306115      0.147226      0.158890
   45 Atom       -0.314548      0.154555      0.159993
   46 Atom       -0.437763      0.193065      0.244698
 -----------------------------------------------------
 Unable to Open any file for archive entry.
 1\1\GINC-EXP-3-26\SP\RwB97XD\6-31G(d)\C18H26O2\HKLEM\12-Aug-2024\0\\# 
 wb97xd 6-31G(d) prop=efg\\19nt_mm_min_distance_cutoff5_xtb_ligand_conf
 _1\\0,1\C,0,43.3644,42.4527,31.0083\O,0,43.1976,41.3677,31.5924\C,0,43
 .3346,43.7081,31.6795\C,0,43.4018,44.8969,31.0309\C,0,43.6946,44.9792,
 29.5642\C,0,44.3515,43.6847,29.0799\C,0,43.5241,42.4869,29.5165\C,0,43
 .0536,46.1463,31.7441\C,0,43.8855,47.3487,31.3122\C,0,43.8531,47.4767,
 29.7941\C,0,44.5107,46.2319,29.1795\C,0,44.5854,48.7158,29.299\C,0,44.
 5139,48.8518,27.7689\C,0,45.2666,47.6609,27.179\C,0,44.6406,46.3437,27
 .6524\C,0,44.1263,50.0806,29.8014\C,0,44.7719,51.0592,28.8097\C,0,45.1
 817,50.2388,27.5645\C,0,43.088,48.9081,27.2214\O,0,44.7805,50.9516,26.
 4179\H,0,43.124,43.6832,32.7407\H,0,42.7154,45.0793,29.0755\H,0,45.361
 4,43.6089,29.4944\H,0,44.4265,43.6796,27.9928\H,0,42.5202,42.5781,29.0
 916\H,0,43.9516,41.5461,29.1611\H,0,43.1042,46.0013,32.8238\H,0,41.999
 5,46.3336,31.4919\H,0,44.9165,47.2227,31.6541\H,0,43.4872,48.25,31.775
 \H,0,42.809,47.5189,29.4825\H,0,45.5189,46.1366,29.6051\H,0,45.6464,48
 .6071,29.5658\H,0,46.3122,47.6999,27.5016\H,0,45.2574,47.6858,26.088\H
 ,0,43.6528,46.2311,27.2072\H,0,45.2632,45.5283,27.2812\H,0,44.4395,50.
 2777,30.824\H,0,43.0414,50.1449,29.767\H,0,45.643,51.546,29.2473\H,0,4
 4.0791,51.8395,28.4987\H,0,46.2758,50.106,27.5413\H,0,42.5569,49.7576,
 27.635\H,0,43.122,49.0168,26.1399\H,0,42.5324,48.0096,27.4545\H,0,45.1
 052,50.52,25.6111\\Version=ES64L-G16RevC.01\State=1-A\HF=-851.7896271\
 RMSD=4.017e-09\Dipole=0.4296738,1.3428795,-0.8818988\Quadrupole=11.255
 8628,-20.8333021,9.5774392,-2.4521132,-0.7262946,14.7790825\PG=C01 [X(
 C18H26O2)]\\@
 The archive entry for this job was punched.


 THE SOLUTION TO A PROBLEM CHANGES THE PROBLEM.

                                 -- JOHN PEERS
           PAUL DICKSON'S "THE OFFICIAL RULES"
 Job cpu time:       0 days  0 hours 10 minutes 42.9 seconds.
 Elapsed time:       0 days  0 hours  0 minutes 28.1 seconds.
 File lengths (MBytes):  RWF=     71 Int=      0 D2E=      0 Chk=      8 Scr=      1
 Normal termination of Gaussian 16 at Mon Aug 12 07:19:58 2024.
