 Entering Gaussian System, Link 0=g16
 Initial command:
 /cm/shared/apps/spack/cpu/opt/spack/linux-centos8-zen/gcc-8.3.1/gaussian-16.C.01-po5bqktfeugvmjyga3v7eigbecnokxng/g16/l1.exe "/scratch/hklem/job_32849731/Gau-3217654.inp" -scrdir="/scratch/hklem/job_32849731/"
 Entering Link 1 = /cm/shared/apps/spack/cpu/opt/spack/linux-centos8-zen/gcc-8.3.1/gaussian-16.C.01-po5bqktfeugvmjyga3v7eigbecnokxng/g16/l1.exe PID=   3217655.
  
 Copyright (c) 1988-2019, Gaussian, Inc.  All Rights Reserved.
  
 This is part of the Gaussian(R) 16 program.  It is based on
 the Gaussian(R) 09 system (copyright 2009, Gaussian, Inc.),
 the Gaussian(R) 03 system (copyright 2003, Gaussian, Inc.),
 the Gaussian(R) 98 system (copyright 1998, Gaussian, Inc.),
 the Gaussian(R) 94 system (copyright 1995, Gaussian, Inc.),
 the Gaussian 92(TM) system (copyright 1992, Gaussian, Inc.),
 the Gaussian 90(TM) system (copyright 1990, Gaussian, Inc.),
 the Gaussian 88(TM) system (copyright 1988, Gaussian, Inc.),
 the Gaussian 86(TM) system (copyright 1986, Carnegie Mellon
 University), and the Gaussian 82(TM) system (copyright 1983,
 Carnegie Mellon University). Gaussian is a federally registered
 trademark of Gaussian, Inc.
  
 This software contains proprietary and confidential information,
 including trade secrets, belonging to Gaussian, Inc.
  
 This software is provided under written license and may be
 used, copied, transmitted, or stored only in accord with that
 written license.
  
 The following legend is applicable only to US Government
 contracts under FAR:
  
                    RESTRICTED RIGHTS LEGEND
  
 Use, reproduction and disclosure by the US Government is
 subject to restrictions as set forth in subparagraphs (a)
 and (c) of the Commercial Computer Software - Restricted
 Rights clause in FAR 52.227-19.
  
 Gaussian, Inc.
 340 Quinnipiac St., Bldg. 40, Wallingford CT 06492
  
  
 ---------------------------------------------------------------
 Warning -- This program may not be used in any manner that
 competes with the business of Gaussian, Inc. or will provide
 assistance to any competitor of Gaussian, Inc.  The licensee
 of this program is prohibited from giving any competitor of
 Gaussian, Inc. access to this program.  By using this program,
 the user acknowledges that Gaussian, Inc. is engaged in the
 business of creating and licensing software in the field of
 computational chemistry and represents and warrants to the
 licensee that it is not a competitor of Gaussian, Inc. and that
 it will not use this program in any manner prohibited above.
 ---------------------------------------------------------------
  

 Cite this work as:
 Gaussian 16, Revision C.01,
 M. J. Frisch, G. W. Trucks, H. B. Schlegel, G. E. Scuseria, 
 M. A. Robb, J. R. Cheeseman, G. Scalmani, V. Barone, 
 G. A. Petersson, H. Nakatsuji, X. Li, M. Caricato, A. V. Marenich, 
 J. Bloino, B. G. Janesko, R. Gomperts, B. Mennucci, H. P. Hratchian, 
 J. V. Ortiz, A. F. Izmaylov, J. L. Sonnenberg, D. Williams-Young, 
 F. Ding, F. Lipparini, F. Egidi, J. Goings, B. Peng, A. Petrone, 
 T. Henderson, D. Ranasinghe, V. G. Zakrzewski, J. Gao, N. Rega, 
 G. Zheng, W. Liang, M. Hada, M. Ehara, K. Toyota, R. Fukuda, 
 J. Hasegawa, M. Ishida, T. Nakajima, Y. Honda, O. Kitao, H. Nakai, 
 T. Vreven, K. Throssell, J. A. Montgomery, Jr., J. E. Peralta, 
 F. Ogliaro, M. J. Bearpark, J. J. Heyd, E. N. Brothers, K. N. Kudin, 
 V. N. Staroverov, T. A. Keith, R. Kobayashi, J. Normand, 
 K. Raghavachari, A. P. Rendell, J. C. Burant, S. S. Iyengar, 
 J. Tomasi, M. Cossi, J. M. Millam, M. Klene, C. Adamo, R. Cammi, 
 J. W. Ochterski, R. L. Martin, K. Morokuma, O. Farkas, 
 J. B. Foresman, and D. J. Fox, Gaussian, Inc., Wallingford CT, 2019.
 
 ******************************************
 Gaussian 16:  ES64L-G16RevC.01  3-Jul-2019
                 7-Aug-2024 
 ******************************************
 %nprocshared=12
 Will use up to   12 processors via shared memory.
 %mem=24GB
 --------------------------
 # 6-31G(d) wb97xd prop=efg
 --------------------------
 1/38=1,172=1/1;
 2/12=2,17=6,18=5,40=1/2;
 3/5=1,6=6,7=1,11=2,25=1,30=1,74=-58/1,2,3;
 4//1;
 5/5=2,38=5/2;
 6/7=2,8=2,9=2,10=2,14=1,28=1/1,2;
 99/5=1,9=1/99;
 --------------------------------------
 19nt_mm_min_distance_cutoff6_nowat_efg
 --------------------------------------
 Symbolic Z-matrix:
 Charge = -1 Multiplicity = 1
 H                    0    -8.59332  -7.39066  -3.07866 
 C                    -1   -8.15895  -6.39023  -2.95091 
 H                    0    -8.38485  -5.80632  -3.84643 
 C                    0    -8.76916  -5.7115   -1.71136 
 H                    0    -9.85469  -5.65451  -1.84943 
 H                    0    -8.60583  -6.32947  -0.81965 
 C                    0    -8.19658  -4.33531  -1.48776 
 C                    0    -8.73495  -3.20987  -2.11429 
 H                    0    -9.62669  -3.31084  -2.72867 
 C                    0    -8.15931  -1.95491  -1.95886 
 H                    0    -8.58691  -1.07805  -2.43503 
 C                    0    -7.01518  -1.81897  -1.1771 
 O                    0    -6.44396  -0.58985  -1.05804 
 H                    0    -5.82484  -0.57418  -0.27307 
 C                    0    -6.4612   -2.92707  -0.5385 
 H                    0    -5.5783   -2.81568   0.08337 
 C                    0    -7.0601   -4.16858  -0.69655 
 H                    0    -6.62711  -5.02977  -0.19724 
 C                    0    -6.62567  -6.51087  -2.91321 
 O                    0    -5.91509  -5.98911  -3.76323 
 N                    -1   -6.09838  -7.23562  -1.88731 
 H                    0    -6.72606  -7.69328  -1.2431 
 C                    -1   -4.66386  -7.46629  -1.71701 
 H                    0    -4.14134  -6.52597  -1.91964 
 C                    0    -4.34754  -7.97904  -0.30921 
 H                    0    -4.94481  -8.89068  -0.14867 
 C                    0    -2.87402  -8.38387  -0.22988 
 H                    0    -2.62038  -8.72996   0.77767 
 H                    0    -2.22234  -7.53817  -0.46587 
 H                    0    -2.64402  -9.19009  -0.93603 
 C                    0    -4.73275  -6.98242   0.79824 
 H                    0    -5.82207  -6.84862   0.80401 
 H                    0    -4.49834  -7.43308   1.77017 
 C                    0    -4.0601   -5.61432   0.71511 
 H                    -1   -4.3614   -4.99693   1.56743 
 H                    0    -4.32603  -5.08141  -0.20451 
 H                    0    -2.96945  -5.69307   0.75646 
 H                    0    -4.31586  -8.19003  -2.46684 
 H                    0    -3.4458   -4.8914   -5.26705 
 C                    -1   -2.54174  -4.29849  -5.09196 
 H                    0    -2.723    -3.28834  -5.4796 
 C                    0    -2.212    -4.24558  -3.59362 
 H                    0    -2.05388  -5.27786  -3.24776 
 C                    0    -0.92893  -3.45342  -3.33829 
 H                    -1   -0.06948  -3.88113  -3.86956 
 H                    0    -1.04845  -2.42162  -3.68248 
 H                    0    -0.68366  -3.4163   -2.27022 
 C                    0    -3.37408  -3.6613   -2.7855 
 H                    0    -3.12397  -3.61499  -1.71808 
 H                    0    -4.28185  -4.26204  -2.90198 
 H                    0    -3.60538  -2.64084  -3.12039 
 H                    -1   -1.71601  -4.73662  -5.66566 
 H                    0    -8.42216  -2.2107   -8.17198 
 C                    -1   -8.79259  -1.50301  -7.42157 
 H                    0    -9.71513  -1.91902  -6.99594 
 C                    0    -7.75364  -1.26538  -6.32143 
 H                    0    -6.83677  -0.88388  -6.79527 
 C                    0    -8.24677  -0.2039   -5.33339 
 H                    0    -9.19256  -0.51862  -4.87088 
 H                    0    -8.41857   0.75833  -5.82967 
 H                    0    -7.52102  -0.03036  -4.53349 
 C                    0    -7.40209  -2.58314  -5.61456 
 H                    0    -8.2575   -2.89079  -4.99534 
 H                    -1   -7.27461  -3.37073  -6.36953 
 C                    0    -6.14441  -2.53518  -4.75089 
 H                    0    -5.98577  -3.5022   -4.26567 
 H                    0    -5.26047  -2.31009  -5.36111 
 H                    0    -6.21148  -1.77431  -3.9663 
 H                    -1   -9.05396  -0.56973  -7.93404 
 H                    0    -13.55017   0.54452  -4.84315 
 C                    -1   -14.29768   1.26921  -4.50291 
 H                    0    -14.67041   0.92709  -3.53163 
 C                    0    -13.68307   2.6665   -4.38153 
 H                    -1   -13.33821   2.99745  -5.3696 
 H                    0    -14.45344   3.38007  -4.06544 
 C                    0    -12.53551   2.68555  -3.40179 
 C                    0    -11.3088   2.11309  -3.73954 
 H                    -1   -11.16816   1.68844  -4.73217 
 C                    0    -10.25571   2.06297  -2.83616 
 H                    0    -9.31524   1.6022   -3.11909 
 C                    0    -10.40811   2.61083  -1.55679 
 O                    0    -9.41338   2.61413  -0.64003 
 H                    -1   -8.58213   2.34562  -1.07368 
 C                    0    -11.63209   3.17798  -1.19896 
 H                    0    -11.74288   3.59779  -0.2042 
 C                    0    -12.67659   3.20734  -2.1146 
 H                    0    -13.62454   3.65406  -1.82149 
 H                    -1   -15.131    1.25794  -5.2149 
 H                    0    -5.02276   7.27161   4.45169 
 C                    -1   -4.23852   6.51128   4.33627 
 H                    0    -4.29284   5.85048   5.20413 
 C                    0    -4.47983   5.71367   3.05505 
 H                    0    -4.4282    6.38724   2.19257 
 H                    0    -5.48829   5.28302   3.05949 
 C                    0    -3.46376   4.57618   2.83351 
 O                    0    -2.50563   4.51551   3.65921 
 O                    -1   -3.65152   3.80746   1.86463 
 C                    0    -2.91171   7.25939   4.27111 
 O                    0    -2.58073   7.86992   3.25787 
 N                    0    -2.1458    7.30939   5.39516 
 C                    -1   -0.90522   8.07583   5.39324 
 H                    -1   -0.14015   7.56848   4.79172 
 H                    0    -1.0741    9.06163   4.95245 
 C                    -1   -0.51249   8.11639   6.87025 
 H                    0     0.5645    8.24346   7.01055 
 H                    0    -1.02386   8.94778   7.3712 
 C                    0    -1.02457   6.7735    7.40434 
 H                    0    -1.18708   6.77289   8.48604 
 H                    0    -0.30673   5.9825    7.17067 
 C                    -1   -2.32685   6.54009   6.62638 
 H                    0    -2.47732   5.48018   6.40338 
 H                    0    -3.19825   6.90596   7.18746 
 H                    0    -3.82734   8.60139  -6.16372 
 C                    -1   -3.55642   8.16213  -5.19514 
 H                    -1   -2.813     8.82723  -4.75223 
 C                    0    -4.80396   8.06721  -4.29685 
 H                    0    -5.6424    7.64372  -4.86539 
 H                    0    -5.10542   9.09131  -4.04604 
 C                    0    -4.5987    7.25296  -3.03343 
 C                    -1   -3.59039   7.56607  -2.11589 
 H                    -1   -2.96098   8.43852  -2.28487 
 C                    0    -3.39488   6.78508  -0.97903 
 H                    0    -2.62669   7.05334  -0.25897 
 C                    0    -4.19241   5.66422  -0.74207 
 H                    0    -4.03191   5.04166   0.13951 
 C                    0    -5.20343   5.35326  -1.64616 
 H                    0    -5.84064   4.49084  -1.4716 
 C                    0    -5.40738   6.14574  -2.77313 
 H                    0    -6.21287   5.89676  -3.46114 
 C                    -1   -2.83446   6.84124  -5.49062 
 O                    0    -1.60937   6.83226  -5.66084 
 N                    0    -3.58915   5.7274   -5.64659 
 H                    0    -4.51124   5.72523  -5.23141 
 C                    -1   -3.03719   4.42103  -6.0051 
 H                    -1   -2.50378   3.98439  -5.14996 
 C                    0    -4.12935   3.45907  -6.48204 
 H                    0    -4.73402   3.9558   -7.25007 
 H                    0    -3.63008   2.61279  -6.96821 
 C                    0    -4.99483   2.95462  -5.35278 
 C                    0    -6.21212   3.55357  -5.02626 
 H                    0    -6.59959   4.35863  -5.64869 
 C                    0    -6.94919   3.14354  -3.92039 
 H                    -1   -7.89252   3.61678  -3.66607 
 C                    0    -6.47214   2.1045   -3.12434 
 O                    0    -7.1966    1.73796  -2.0379 
 H                    0    -6.89116   0.87404  -1.67091 
 C                    -1   -5.27878   1.46105  -3.45878 
 H                    0    -4.93482   0.62258  -2.8621 
 C                    -1   -4.55225   1.89499  -4.55744 
 H                    0    -3.61664   1.39668  -4.80122 
 H                    0    -2.30188   4.59161  -6.79746 
 H                    0     0.29777   7.16654  -7.48619 
 C                    -1    1.30249   7.36966  -7.09674 
 H                    0     1.9688    7.60222  -7.92865 
 C                    0     1.22329   8.50519  -6.06317 
 H                    0     2.20484   8.97757  -5.94723 
 H                    0     0.97992   8.06535  -5.09129 
 C                    -1    0.16397   9.56156  -6.40241 
 H                    0     0.45694   10.15652  -7.27061 
 H                    0    -0.77723   9.04509  -6.62455 
 C                    -1   -0.06778   10.52247  -5.24514 
 O                    0     0.20609   11.70798  -5.28739 
 N                    0    -0.63016   9.94041  -4.1384 
 H                    0    -0.72527   8.93773  -4.07011 
 H                    0    -0.66582   10.48093  -3.28712 
 C                    -1    1.83385   6.06849  -6.43158 
 O                    0     2.91951   5.58259  -6.7287 
 N                    0     1.03699   5.4941   -5.46334 
 H                    0     0.11335   5.89939  -5.32462 
 C                    -1    1.56664   4.60861  -4.41109 
 H                    0     0.79126   4.49548  -3.64885 
 H                    -1    2.44247   5.05935  -3.93623 
 C                    0     2.0071    3.20391  -4.84599 
 O                    0     2.77443   2.56403  -4.1383 
 N                    0     1.46888   2.73419  -5.99638 
 H                    -1    0.84557   3.35724  -6.49282 
 C                    -1    1.77078   1.43587  -6.58842 
 H                    0     2.51603   0.9663   -5.94131 
 C                    0     0.51196   0.56592  -6.69586 
 H                    -1   -0.15408   1.01061  -7.44949 
 H                    0     0.81553  -0.4075   -7.09526 
 C                    0    -0.26042   0.38777  -5.38482 
 H                    0    -0.57624   1.38202  -5.03651 
 C                    0    -1.52063  -0.44294  -5.64084 
 H                    0    -2.11813  -0.55238  -4.72768 
 H                    0    -2.15696   0.01588  -6.40765 
 H                    0    -1.25893  -1.45049  -5.98583 
 C                    0     0.6037   -0.23865  -4.28952 
 H                    0     1.02445  -1.19599  -4.62272 
 H                    -1    1.42714   0.41914  -3.9946 
 H                    -1    0.00665  -0.43616  -3.39409 
 C                    0     2.39637   1.59163  -8.00357 
 O                    0     2.47995   0.61927  -8.74215 
 N                    0     2.77884   2.83815  -8.38736 
 H                    0     2.84253   3.58252  -7.70014 
 C                    -1    3.32835   3.08314  -9.71893 
 H                    0     2.66772   2.64988  -10.47392 
 H                    0     3.3996    4.16248  -9.86277 
 H                    0     4.32093   2.63395  -9.83396 
 H                    0     5.5462   -2.66413  -5.63525 
 C                    -1    5.17968  -2.94676  -4.64451 
 H                    0     6.0042   -2.89556  -3.92543 
 C                    0     4.05697  -1.97558  -4.21229 
 H                    0     3.21901  -2.10656  -4.91099 
 C                    -1    3.56538  -2.24838  -2.78772 
 H                    -1    3.11715  -3.2413   -2.68036 
 H                    0     4.39568  -2.18773  -2.07254 
 H                    0     2.81419  -1.50518  -2.49618 
 C                    0     4.56495  -0.53728  -4.34188 
 H                    0     5.41526  -0.36697  -3.66935 
 H                    0     4.89552  -0.31858  -5.3641 
 H                    0     3.78999   0.18887  -4.07672 
 C                    0     4.70928  -4.39763  -4.76272 
 O                    -1    4.2512   -4.81821  -5.84593 
 N                    0     4.80866  -5.18172  -3.67391 
 H                    0     5.23503  -4.77838  -2.83618 
 C                    -1    4.19599  -6.50789  -3.52516 
 H                    0     3.59236  -6.68112  -4.41941 
 C                    0     5.22577  -7.63101  -3.28559 
 H                    0     4.77653  -8.58222  -3.60171 
 H                    0     5.46758  -7.75593  -2.22038 
 C                    -1    6.58481  -7.42824  -3.94529 
 H                    0     7.21701  -8.25667  -3.60831 
 H                    0     7.05206  -6.52447  -3.54068 
 C                    0     6.57618  -7.29191  -5.46469 
 H                    0     6.0959   -6.36878  -5.78932 
 H                    0     7.59758  -7.2791   -5.85821 
 N                    0     5.8775   -8.41552  -6.10512 
 H                    0     6.2033   -9.33237  -5.82958 
 C                    0     4.75889  -8.36521  -6.81729 
 N                    0     4.057    -7.25316  -6.99004 
 H                    0     4.20206  -6.35441  -6.46923 
 H                    0     3.36537  -7.23012  -7.72388 
 N                    0     4.33143  -9.49888  -7.43188 
 H                    0     4.86627  -10.34886  -7.34811 
 H                    -1    3.34981  -9.60857  -7.63146 
 C                    0     3.28672  -6.40672  -2.28558 
 O                    0     3.52741  -5.58837  -1.40465 
 N                    0     2.25953  -7.27841  -2.19462 
 H                    0     2.05598  -7.87745  -2.97968 
 C                    -1    1.30595  -7.22061  -1.08831 
 H                    0     1.84523  -6.81598  -0.23086 
 C                    0     0.09952  -6.35148  -1.42707 
 H                    0    -0.51333  -6.17399  -0.53759 
 H                    0    -0.53006  -6.81935  -2.19188 
 H                    0     0.43012  -5.38124  -1.80515 
 H                    -1    1.0044   -8.2428   -0.84061 
 H                    0    -8.26265  -6.91655   7.66714 
 C                    -1   -7.33156  -7.39558   7.34413 
 H                    0    -7.33712  -8.42643   7.7126 
 C                    0    -7.19574  -7.36009   5.82033 
 H                    0    -8.02993  -7.9077    5.36513 
 H                    0    -6.27725  -7.87788   5.51706 
 C                    0    -7.17295  -5.93568   5.26567 
 H                    0    -6.29735  -5.39407   5.64554 
 H                    0    -8.06953  -5.38883   5.58214 
 S                    0    -7.11482  -5.96576   3.44588 
 C                    0    -7.13984  -4.18695   3.1048 
 H                    0    -8.02337  -3.72005   3.54946 
 H                    0    -6.22539  -3.70602   3.45951 
 H                    0    -7.20199  -4.05675   2.02226 
 H                    -1   -6.50026  -6.86987   7.82756 
 H                    0    -1.96572  -7.28465   6.3863 
 C                    -1   -1.20705  -7.54786   5.6416 
 H                    0    -0.92522  -8.5947    5.79607 
 C                    0    -1.7369   -7.32712   4.21621 
 H                    0    -0.969    -7.63104   3.49471 
 H                    0    -2.59881  -7.98692   4.04919 
 C                    0    -2.14753  -5.89621   3.93903 
 C                    0    -1.40909  -5.07742   3.08139 
 H                    0    -0.51778  -5.47562   2.59922 
 C                    0    -1.80274  -3.76398   2.82681 
 H                    0    -1.22306  -3.14259   2.1498 
 C                    0    -2.933    -3.24115   3.44409 
 H                    0    -3.2494   -2.21917   3.26676 
 C                    0    -3.66132  -4.03891   4.3246 
 H                    -1   -4.51406  -3.6097    4.8419 
 C                    0    -3.28077  -5.35567   4.55604 
 H                    0    -3.86866  -5.97712   5.22926 
 H                    0    -0.32806  -6.92249   5.82793 
 H                    0     3.16795  -4.57575   2.63294 
 C                    -1    3.51393  -4.47797   1.59916 
 H                    0     3.23187  -5.37434   1.03923 
 C                    0     2.87472  -3.23945   0.93626 
 H                    -1    3.38916  -3.07084  -0.0182 
 C                    0     1.40066  -3.50397   0.63722 
 H                    0     0.85605  -3.7272    1.56305 
 H                    0     1.29173  -4.35295  -0.04324 
 H                    0     0.92985  -2.62886   0.17128 
 C                    0     3.02985  -1.98991   1.80174 
 H                    0     2.50205  -2.11265   2.7568 
 H                    0     2.61168  -1.1128    1.29696 
 H                    0     4.07786  -1.77574   2.02528 
 C                    0     5.04624  -4.36384   1.64264 
 O                    0     5.63846  -3.93672   2.63198 
 N                    0     5.68199  -4.73529   0.49892 
 H                    0     5.11082  -5.0545   -0.27684 
 C                    -1    7.12377  -4.7321    0.29866 
 H                    0     7.57613  -4.38895   1.23254 
 C                    0     7.63455  -6.12548  -0.135 
 H                    0     8.72671  -6.06964  -0.24291 
 H                    0     7.23676  -6.32899  -1.13544 
 C                    0     7.25044  -7.31961   0.72684 
 H                    0     6.19446  -7.22908   1.01651 
 H                    0     7.83888  -7.3712    1.64768 
 C                    0     7.40243  -8.66462  -0.0658 
 O                    -1    7.01777  -8.62053  -1.27415 
 O                    0     7.8534   -9.63297   0.55935 
 C                    0     7.45654  -3.80675  -0.88127 
 O                    0     6.76569  -3.8227   -1.90508 
 N                    0     8.57362  -3.04925  -0.78847 
 H                    0     9.20982  -3.17061  -0.01246 
 C                    -1    8.98508  -2.12123  -1.82906 
 H                    0     9.13899  -2.67534  -2.7662 
 C                    0     7.91368  -1.04202  -2.08966 
 H                    0     7.02926  -1.55207  -2.47573 
 H                    0     8.26055  -0.39916  -2.90983 
 C                    0     7.50741  -0.17532  -0.88541 
 H                    0     8.36639   0.05348  -0.2452 
 H                    0     7.11262   0.78398  -1.23377 
 S                    0     6.20308  -0.9329    0.15962 
 C                    0     7.08022  -1.18227   1.72457 
 H                    0     8.05753  -1.63228   1.53216 
 H                    0     7.20883  -0.24029   2.26585 
 H                    0     6.49133  -1.88319   2.32246 
 C                    0     10.38619  -1.56138  -1.43862 
 O                    0     11.17083  -2.27156  -0.82292 
 N                    0     10.704   -0.30957  -1.87538 
 H                    0     9.98486   0.29845  -2.23945 
 C                    -1    12.02121   0.31045  -1.72313 
 H                    0     12.61518  -0.38987  -1.12643 
 C                    0     12.70064   0.52719  -3.0909 
 H                    0     12.05474   1.20793  -3.66134 
 C                    0     14.07037   1.19039  -2.92281 
 H                    0     14.72796   0.57246  -2.29824 
 H                    0     14.55428   1.31172  -3.89733 
 H                    0     13.99458   2.17866  -2.46014 
 C                    0     12.82408  -0.79603  -3.84757 
 H                    0     13.43722  -1.51086  -3.28587 
 H                    0     11.84559  -1.2543   -4.01683 
 H                    0     13.29629  -0.63574  -4.82264 
 C                    0     11.85777   1.66464  -0.99248 
 O                    0     11.05799   2.48875  -1.41855 
 N                    0     12.69346   1.89868   0.05664 
 H                    0     13.13539   1.09435   0.47669 
 C                    -1    12.66318   3.13747   0.84418 
 H                    0     12.56764   3.96597   0.13786 
 C                    0     11.50746   3.18036   1.85591 
 H                    0     10.59655   2.86728   1.33081 
 H                    0     11.69127   2.45189   2.65199 
 C                    0     11.30752   4.54709   2.42592 
 C                    0     11.55945   4.97962   3.69588 
 H                    0     11.93335   4.42782   4.54803 
 N                    0     11.25322   6.32106   3.80679 
 H                    0     11.29358   6.85739   4.65625 
 C                    0     10.77752   6.77598   2.59737 
 C                    0     10.32397   8.04076   2.21309 
 H                    0     10.30365   8.87252   2.91168 
 C                    0     9.89238   8.19047   0.90574 
 H                    0     9.52781   9.15857   0.5748 
 C                    0     9.90742   7.11336  -0.00122 
 H                    0     9.55084   7.26838  -1.01487 
 C                    0     10.35788   5.86245   0.38249 
 H                    0     10.36054   5.02829  -0.3156 
 C                    0     10.80305   5.68545   1.70123 
 H                    0     13.62756   3.23707   1.34968 
 H                    0     12.82118  -1.99781   2.97454 
 C                    -1    11.88502  -2.53816   2.80255 
 H                    0     11.86939  -3.4175    3.45413 
 C                    0     10.68282  -1.65025   3.09926 
 H                    0     9.74812  -2.21128   3.00732 
 H                    0     10.73903  -1.24985   4.11521 
 S                    0     10.68398  -0.2572    1.91417 
 H                    0     9.81506   0.53866   2.55955 
 H                    0     11.87276  -2.88148   1.76291 
 H                    0     6.25752  -2.98635   5.35243 
 C                    -1    5.63742  -2.3097    5.94829 
 H                    0     6.26446  -1.86717   6.73169 
 C                    0     4.99185  -1.25812   5.0531 
 H                    0     4.50507  -1.77841   4.22132 
 H                    0     5.77158  -0.62664   4.60097 
 C                    0     3.96823  -0.34996   5.74693 
 H                    0     3.16288  -0.98771   6.14255 
 C                    0     4.57676   0.42216   6.92065 
 H                    0     4.93402  -0.24623   7.71204 
 H                    0     5.42629   1.03076   6.58188 
 H                    0     3.83821   1.10055   7.36139 
 C                    0     3.35391   0.61598   4.73434 
 H                    0     2.90417   0.07197   3.89676 
 H                    0     4.12742   1.27666   4.32114 
 H                    0     2.58075   1.24768   5.18601 
 H                    0     4.87166  -2.9167    6.4467 
 H                    0     0.42569  -3.04134   7.37389 
 C                    -1   -0.50312  -2.49601   7.58022 
 H                    0    -0.23971  -1.60238   8.15995 
 C                    0    -1.22208  -2.11577   6.2846 
 H                    0    -1.44667  -3.0441    5.74437 
 C                    0    -2.54716  -1.41424   6.58728 
 H                    0    -3.10088  -1.17177   5.67543 
 H                    0    -3.19618  -2.04664   7.20604 
 H                    0    -2.36977  -0.48015   7.13716 
 C                    0    -0.34067  -1.25001   5.37932 
 H                    0    -0.84315  -1.05535   4.42368 
 H                    0     0.61471  -1.74285   5.15994 
 H                    0    -0.12229  -0.27927   5.84451 
 H                    0    -1.1359   -3.13186   8.21073 
 H                    0    -6.7357   -2.97381   6.07052 
 C                    -1   -6.91843  -1.93022   6.34962 
 H                    0    -5.98627  -1.52346   6.74997 
 C                    0    -7.37818  -1.12105   5.14376 
 H                    0    -8.27863  -1.54337   4.68444 
 H                    0    -7.62195  -0.08819   5.42688 
 C                    0    -6.29802  -1.02135   4.09757 
 O                    0    -5.11012  -1.11703   4.3402 
 O                    0    -6.76994  -0.81452   2.876 
 H                    0    -5.99282  -0.70015   2.26965 
 H                    0    -7.67684  -1.91861   7.13825 
 H                    0    -12.55173  -0.81058   5.83217 
 C                    -1   -13.2709  -1.26295   5.13953 
 H                    0    -13.69662  -0.45683   4.53108 
 C                    0    -12.60106  -2.31794   4.26213 
 H                    0    -13.34481  -2.77693   3.59982 
 H                    0    -12.20119  -3.12314   4.8908 
 C                    0    -11.47261  -1.73345   3.41499 
 H                    0    -10.70674  -1.2848    4.05942 
 H                    0    -11.85764  -0.94226   2.75994 
 S                    0    -10.72553  -3.04165   2.3933 
 C                    0    -9.58528  -2.05791   1.38422 
 H                    0    -8.79809  -1.59979   1.98812 
 H                    0    -9.12524  -2.74478   0.67063 
 H                    0    -10.12392  -1.28644   0.82545 
 H                    0    -14.08004  -1.69978   5.73399 
 H                    0    -12.20619   3.07134   3.68993 
 C                    -1   -11.26259   2.54491   3.86894 
 H                    0    -11.48175   1.6554    4.47381 
 C                    0    -10.58789   2.15475   2.55242 
 H                    0    -11.26056   1.50224   1.97732 
 H                    0    -10.41305   3.04079   1.93301 
 C                    0    -9.2611    1.4154    2.73251 
 H                    0    -9.38204   0.57966   3.43165 
 H                    0    -8.93903   0.98775   1.77945 
 S                    0    -7.87551   2.44525   3.34842 
 C                    0    -6.88842   2.58848   1.82735 
 H                    0    -7.43208   3.15754   1.06909 
 H                    0    -6.6538    1.59049   1.4446 
 H                    0    -5.94271   3.09352   2.05418 
 H                    0    -10.61434   3.20317   4.45801 
 H                    0    -5.93567   2.9102    6.44814 
 C                    -1   -5.14926   2.14922   6.49427 
 H                    0    -5.61808   1.2005    6.78181 
 C                    0    -4.43451   2.02208   5.15173 
 H                    0    -3.684     1.22396   5.17768 
 H                    0    -3.93424   2.95317   4.87294 
 H                    0    -5.14104   1.77729   4.35308 
 H                    0    -4.45597   2.43325   7.29524 
 H                    0    -0.8343    2.63849   9.98785 
 C                    -1    0.16254   2.20679   9.84943 
 H                    0     0.37714   1.54924   10.69992 
 C                    0     0.23304   1.44359   8.52017 
 H                    0     1.21932   0.96934   8.42199 
 H                    0    -0.49792   0.6258    8.53729 
 C                    0    -0.03468   2.31528   7.33106 
 C                    0    -1.21768   2.41821   6.64301 
 H                    0    -2.14074   1.87523   6.79427 
 N                    0    -1.12347   3.35716   5.65275 
 H                    0    -1.81964   3.62607   4.94445 
 C                    0     0.13857   3.87958   5.66634 
 C                    0     0.70338   4.84284   4.8228 
 H                    0     0.11043   5.27709   4.02287 
 C                    0     2.01993   5.19615   5.06102 
 H                    0     2.498     5.93626   4.42527 
 C                    0     2.75829   4.6049    6.10848 
 H                    0     3.79054   4.90602   6.26441 
 C                    0     2.19249   3.64849   6.9346 
 H                    0     2.77263   3.2038    7.73981 
 C                    0     0.85959   3.26015   6.71671 
 H                    0     0.88407   3.03117   9.86237 
 H                    0     8.52404   0.34787   9.60187 
 C                    -1    8.61191   0.00927   8.56439 
 H                    0     7.59723  -0.15151   8.18494 
 C                    0     9.37593   1.03138   7.72021 
 H                    0     10.32833   1.26291   8.21645 
 H                    0     8.81072   1.97373   7.684 
 C                    0     9.67637   0.57987   6.28223 
 H                    0     10.22585  -0.37239   6.34598 
 C                    0     8.39806   0.33651   5.47674 
 H                    0     7.79651   1.25231   5.41488 
 H                    0     8.62461   0.01973   4.45171 
 H                    0     7.77547  -0.44376   5.92132 
 C                    0     10.57584   1.59677   5.57218 
 H                    0     10.05219   2.55099   5.43115 
 H                    0     11.48874   1.79232   6.14768 
 H                    0     10.87747   1.23665   4.5816 
 H                    0     9.12565  -0.95943   8.56856 
 C                    0    -3.75248  -0.08801   0.86646 
 O                    0    -4.90906  -0.54538   1.01726 
 C                    0    -2.94118   0.31193   1.96916 
 C                    0    -1.75914   0.95727   1.77471 
 C                    0    -1.13175   1.08583   0.40358 
 C                    0    -1.72928   0.09092  -0.59119 
 C                    0    -3.24608   0.11321  -0.53488 
 C                    0    -1.10218   1.66937   2.9061 
 C                    0     0.42621   1.71298   2.85599 
 C                    0     0.93252   2.06906   1.45768 
 C                    0     0.40743   0.99426   0.48086 
 C                    0     2.44964   2.16857   1.37614 
 C                    0     2.97477   2.37674  -0.05779 
 C                    0     2.56645   1.17449  -0.90838 
 C                    0     1.04296   1.01218  -0.92018 
 C                    0     3.16983   3.25843   2.18223 
 C                    0     4.56535   3.3546    1.50559 
 C                    0     4.4819    2.47634   0.23817 
 C                    0     2.48639   3.68231  -0.70966 
 O                    0     5.27417   3.02358  -0.80611 
 H                    0    -3.38057   0.22803   2.95954 
 H                    0    -1.38711   2.1076    0.07091 
 H                    0    -1.36476  -0.92006  -0.35993 
 H                    0    -1.40157   0.32556  -1.60782 
 H                    0    -3.61945   1.09571  -0.86171 
 H                    0    -3.69271  -0.64425  -1.18761 
 H                    0    -1.45405   1.26334   3.85966 
 H                    0    -1.51195   2.69675   2.85781 
 H                    0     0.8374    0.73596   3.14474 
 H                    0     0.78401   2.4347    3.59472 
 H                    0     0.49955   3.04247   1.18 
 H                    0     0.6571    0.0175    0.92897 
 H                    0     2.85398   1.19833   1.71101 
 H                    0     3.03284   0.26878  -0.49544 
 H                    0     2.91965   1.2781   -1.94275 
 H                    0     0.59426   1.81368  -1.52427 
 H                    0     0.79921   0.075    -1.43113 
 H                    0     3.22635   3.02742   3.24824 
 H                    0     2.62513   4.20652   2.10334 
 H                    0     5.3663    3.01031   2.16711 
 H                    0     4.80955   4.38074   1.21331 
 H                    0     4.84304   1.46495   0.4726 
 H                    0     2.86286   4.56756  -0.1898 
 H                    0     2.83992   3.72801  -1.74464 
 H                    0     1.39422   3.75078  -0.72705 
 H                    0     5.01377   2.577    -1.62227 
 
 Stoichiometry    C182H311N18O24S5(1-)
 Framework group  C1[X(C182H311N18O24S5)]
 Deg. of freedom  1614
 Full point group                 C1      NOp   1
 Largest Abelian subgroup         C1      NOp   1
 Largest concise Abelian subgroup C1      NOp   1
                         Standard orientation:                         
 ---------------------------------------------------------------------
 Center     Atomic      Atomic             Coordinates (Angstroms)
 Number     Number       Type             X           Y           Z
 ---------------------------------------------------------------------
      1          1           0       -8.593321   -7.390659   -3.078659
      2          6           0       -8.158953   -6.390229   -2.950913
      3          1           0       -8.384847   -5.806320   -3.846429
      4          6           0       -8.769163   -5.711497   -1.711356
      5          1           0       -9.854689   -5.654509   -1.849434
      6          1           0       -8.605827   -6.329466   -0.819649
      7          6           0       -8.196580   -4.335307   -1.487759
      8          6           0       -8.734946   -3.209874   -2.114288
      9          1           0       -9.626692   -3.310840   -2.728669
     10          6           0       -8.159308   -1.954913   -1.958856
     11          1           0       -8.586913   -1.078049   -2.435031
     12          6           0       -7.015178   -1.818972   -1.177097
     13          8           0       -6.443963   -0.589845   -1.058035
     14          1           0       -5.824839   -0.574182   -0.273066
     15          6           0       -6.461195   -2.927066   -0.538503
     16          1           0       -5.578296   -2.815679    0.083371
     17          6           0       -7.060095   -4.168583   -0.696546
     18          1           0       -6.627115   -5.029774   -0.197244
     19          6           0       -6.625671   -6.510871   -2.913211
     20          8           0       -5.915091   -5.989106   -3.763226
     21          7           0       -6.098380   -7.235616   -1.887312
     22          1           0       -6.726056   -7.693277   -1.243095
     23          6           0       -4.663858   -7.466290   -1.717010
     24          1           0       -4.141339   -6.525966   -1.919643
     25          6           0       -4.347537   -7.979038   -0.309209
     26          1           0       -4.944809   -8.890682   -0.148667
     27          6           0       -2.874021   -8.383868   -0.229877
     28          1           0       -2.620384   -8.729965    0.777672
     29          1           0       -2.222344   -7.538166   -0.465866
     30          1           0       -2.644024   -9.190092   -0.936030
     31          6           0       -4.732751   -6.982420    0.798240
     32          1           0       -5.822068   -6.848624    0.804011
     33          1           0       -4.498344   -7.433079    1.770165
     34          6           0       -4.060099   -5.614315    0.715112
     35          1           0       -4.361398   -4.996930    1.567425
     36          1           0       -4.326034   -5.081415   -0.204514
     37          1           0       -2.969453   -5.693070    0.756455
     38          1           0       -4.315857   -8.190034   -2.466835
     39          1           0       -3.445803   -4.891402   -5.267050
     40          6           0       -2.541736   -4.298493   -5.091960
     41          1           0       -2.722997   -3.288337   -5.479596
     42          6           0       -2.211999   -4.245583   -3.593615
     43          1           0       -2.053882   -5.277856   -3.247763
     44          6           0       -0.928930   -3.453423   -3.338292
     45          1           0       -0.069483   -3.881134   -3.869561
     46          1           0       -1.048448   -2.421618   -3.682484
     47          1           0       -0.683656   -3.416302   -2.270217
     48          6           0       -3.374084   -3.661295   -2.785503
     49          1           0       -3.123973   -3.614993   -1.718083
     50          1           0       -4.281850   -4.262038   -2.901982
     51          1           0       -3.605382   -2.640843   -3.120388
     52          1           0       -1.716009   -4.736620   -5.665658
     53          1           0       -8.422160   -2.210700   -8.171977
     54          6           0       -8.792585   -1.503006   -7.421570
     55          1           0       -9.715127   -1.919018   -6.995937
     56          6           0       -7.753635   -1.265380   -6.321428
     57          1           0       -6.836768   -0.883880   -6.795269
     58          6           0       -8.246770   -0.203896   -5.333388
     59          1           0       -9.192556   -0.518619   -4.870881
     60          1           0       -8.418572    0.758327   -5.829672
     61          1           0       -7.521023   -0.030361   -4.533485
     62          6           0       -7.402086   -2.583141   -5.614564
     63          1           0       -8.257497   -2.890790   -4.995344
     64          1           0       -7.274610   -3.370732   -6.369528
     65          6           0       -6.144414   -2.535175   -4.750893
     66          1           0       -5.985766   -3.502199   -4.265673
     67          1           0       -5.260470   -2.310092   -5.361114
     68          1           0       -6.211479   -1.774308   -3.966295
     69          1           0       -9.053961   -0.569727   -7.934041
     70          1           0      -13.550169    0.544519   -4.843148
     71          6           0      -14.297676    1.269214   -4.502907
     72          1           0      -14.670406    0.927090   -3.531628
     73          6           0      -13.683065    2.666497   -4.381528
     74          1           0      -13.338209    2.997447   -5.369600
     75          1           0      -14.453444    3.380066   -4.065439
     76          6           0      -12.535510    2.685546   -3.401789
     77          6           0      -11.308796    2.113088   -3.739543
     78          1           0      -11.168162    1.688436   -4.732172
     79          6           0      -10.255713    2.062971   -2.836164
     80          1           0       -9.315237    1.602204   -3.119086
     81          6           0      -10.408105    2.610828   -1.556789
     82          8           0       -9.413385    2.614126   -0.640028
     83          1           0       -8.582134    2.345619   -1.073681
     84          6           0      -11.632092    3.177977   -1.198956
     85          1           0      -11.742880    3.597789   -0.204201
     86          6           0      -12.676594    3.207341   -2.114596
     87          1           0      -13.624544    3.654056   -1.821494
     88          1           0      -15.130996    1.257941   -5.214900
     89          1           0       -5.022763    7.271606    4.451692
     90          6           0       -4.238518    6.511279    4.336265
     91          1           0       -4.292836    5.850477    5.204128
     92          6           0       -4.479827    5.713672    3.055052
     93          1           0       -4.428200    6.387242    2.192573
     94          1           0       -5.488291    5.283018    3.059487
     95          6           0       -3.463762    4.576175    2.833507
     96          8           0       -2.505626    4.515506    3.659213
     97          8           0       -3.651518    3.807463    1.864628
     98          6           0       -2.911709    7.259390    4.271108
     99          8           0       -2.580731    7.869917    3.257873
    100          7           0       -2.145803    7.309394    5.395160
    101          6           0       -0.905221    8.075828    5.393240
    102          1           0       -0.140149    7.568484    4.791717
    103          1           0       -1.074103    9.061634    4.952447
    104          6           0       -0.512489    8.116394    6.870248
    105          1           0        0.564503    8.243463    7.010549
    106          1           0       -1.023856    8.947777    7.371195
    107          6           0       -1.024574    6.773498    7.404337
    108          1           0       -1.187078    6.772888    8.486043
    109          1           0       -0.306734    5.982497    7.170670
    110          6           0       -2.326853    6.540086    6.626377
    111          1           0       -2.477320    5.480179    6.403375
    112          1           0       -3.198253    6.905955    7.187463
    113          1           0       -3.827336    8.601393   -6.163718
    114          6           0       -3.556423    8.162135   -5.195139
    115          1           0       -2.813002    8.827228   -4.752227
    116          6           0       -4.803959    8.067214   -4.296853
    117          1           0       -5.642401    7.643715   -4.865391
    118          1           0       -5.105420    9.091307   -4.046044
    119          6           0       -4.598695    7.252963   -3.033435
    120          6           0       -3.590385    7.566071   -2.115886
    121          1           0       -2.960981    8.438516   -2.284873
    122          6           0       -3.394881    6.785077   -0.979029
    123          1           0       -2.626692    7.053344   -0.258971
    124          6           0       -4.192407    5.664218   -0.742072
    125          1           0       -4.031905    5.041662    0.139513
    126          6           0       -5.203428    5.353258   -1.646159
    127          1           0       -5.840642    4.490840   -1.471598
    128          6           0       -5.407379    6.145739   -2.773133
    129          1           0       -6.212871    5.896757   -3.461138
    130          6           0       -2.834462    6.841235   -5.490618
    131          8           0       -1.609369    6.832256   -5.660835
    132          7           0       -3.589151    5.727401   -5.646593
    133          1           0       -4.511241    5.725227   -5.231408
    134          6           0       -3.037194    4.421027   -6.005098
    135          1           0       -2.503784    3.984391   -5.149962
    136          6           0       -4.129350    3.459067   -6.482038
    137          1           0       -4.734022    3.955802   -7.250074
    138          1           0       -3.630075    2.612787   -6.968208
    139          6           0       -4.994827    2.954618   -5.352777
    140          6           0       -6.212117    3.553573   -5.026257
    141          1           0       -6.599586    4.358630   -5.648689
    142          6           0       -6.949194    3.143540   -3.920394
    143          1           0       -7.892519    3.616781   -3.666065
    144          6           0       -6.472142    2.104503   -3.124344
    145          8           0       -7.196603    1.737963   -2.037905
    146          1           0       -6.891158    0.874043   -1.670909
    147          6           0       -5.278776    1.461051   -3.458776
    148          1           0       -4.934821    0.622579   -2.862096
    149          6           0       -4.552250    1.894988   -4.557437
    150          1           0       -3.616639    1.396682   -4.801218
    151          1           0       -2.301875    4.591610   -6.797458
    152          1           0        0.297772    7.166538   -7.486186
    153          6           0        1.302485    7.369659   -7.096738
    154          1           0        1.968795    7.602222   -7.928652
    155          6           0        1.223288    8.505187   -6.063167
    156          1           0        2.204837    8.977573   -5.947228
    157          1           0        0.979921    8.065354   -5.091290
    158          6           0        0.163968    9.561559   -6.402409
    159          1           0        0.456938   10.156521   -7.270611
    160          1           0       -0.777227    9.045085   -6.624552
    161          6           0       -0.067783   10.522467   -5.245141
    162          8           0        0.206093   11.707979   -5.287393
    163          7           0       -0.630161    9.940410   -4.138396
    164          1           0       -0.725274    8.937725   -4.070108
    165          1           0       -0.665823   10.480934   -3.287117
    166          6           0        1.833845    6.068489   -6.431575
    167          8           0        2.919514    5.582592   -6.728702
    168          7           0        1.036991    5.494102   -5.463337
    169          1           0        0.113350    5.899390   -5.324619
    170          6           0        1.566644    4.608607   -4.411094
    171          1           0        0.791264    4.495480   -3.648851
    172          1           0        2.442473    5.059351   -3.936225
    173          6           0        2.007098    3.203912   -4.845992
    174          8           0        2.774425    2.564029   -4.138305
    175          7           0        1.468884    2.734192   -5.996383
    176          1           0        0.845574    3.357243   -6.492820
    177          6           0        1.770776    1.435874   -6.588420
    178          1           0        2.516026    0.966301   -5.941312
    179          6           0        0.511961    0.565918   -6.695859
    180          1           0       -0.154082    1.010606   -7.449493
    181          1           0        0.815532   -0.407504   -7.095261
    182          6           0       -0.260418    0.387768   -5.384819
    183          1           0       -0.576235    1.382020   -5.036508
    184          6           0       -1.520625   -0.442937   -5.640838
    185          1           0       -2.118126   -0.552376   -4.727680
    186          1           0       -2.156963    0.015878   -6.407647
    187          1           0       -1.258927   -1.450485   -5.985831
    188          6           0        0.603702   -0.238650   -4.289522
    189          1           0        1.024448   -1.195994   -4.622721
    190          1           0        1.427142    0.419136   -3.994603
    191          1           0        0.006653   -0.436159   -3.394094
    192          6           0        2.396367    1.591626   -8.003573
    193          8           0        2.479948    0.619270   -8.742151
    194          7           0        2.778841    2.838152   -8.387357
    195          1           0        2.842532    3.582515   -7.700136
    196          6           0        3.328350    3.083139   -9.718932
    197          1           0        2.667721    2.649882  -10.473925
    198          1           0        3.399601    4.162477   -9.862768
    199          1           0        4.320928    2.633954   -9.833956
    200          1           0        5.546201   -2.664128   -5.635251
    201          6           0        5.179678   -2.946757   -4.644510
    202          1           0        6.004203   -2.895557   -3.925426
    203          6           0        4.056970   -1.975577   -4.212287
    204          1           0        3.219012   -2.106560   -4.910988
    205          6           0        3.565377   -2.248376   -2.787717
    206          1           0        3.117151   -3.241301   -2.680355
    207          1           0        4.395683   -2.187728   -2.072539
    208          1           0        2.814190   -1.505175   -2.496180
    209          6           0        4.564950   -0.537280   -4.341879
    210          1           0        5.415258   -0.366965   -3.669350
    211          1           0        4.895518   -0.318578   -5.364102
    212          1           0        3.789991    0.188869   -4.076718
    213          6           0        4.709280   -4.397629   -4.762717
    214          8           0        4.251200   -4.818207   -5.845931
    215          7           0        4.808662   -5.181720   -3.673906
    216          1           0        5.235030   -4.778376   -2.836183
    217          6           0        4.195992   -6.507886   -3.525163
    218          1           0        3.592357   -6.681115   -4.419413
    219          6           0        5.225770   -7.631011   -3.285587
    220          1           0        4.776527   -8.582224   -3.601714
    221          1           0        5.467580   -7.755930   -2.220376
    222          6           0        6.584811   -7.428243   -3.945289
    223          1           0        7.217014   -8.256675   -3.608308
    224          1           0        7.052063   -6.524469   -3.540676
    225          6           0        6.576176   -7.291912   -5.464689
    226          1           0        6.095901   -6.368776   -5.789321
    227          1           0        7.597584   -7.279103   -5.858205
    228          7           0        5.877504   -8.415523   -6.105120
    229          1           0        6.203298   -9.332368   -5.829576
    230          6           0        4.758891   -8.365207   -6.817286
    231          7           0        4.056999   -7.253158   -6.990035
    232          1           0        4.202057   -6.354414   -6.469227
    233          1           0        3.365370   -7.230121   -7.723883
    234          7           0        4.331425   -9.498879   -7.431881
    235          1           0        4.866271  -10.348855   -7.348107
    236          1           0        3.349812   -9.608572   -7.631460
    237          6           0        3.286717   -6.406715   -2.285580
    238          8           0        3.527408   -5.588373   -1.404653
    239          7           0        2.259528   -7.278405   -2.194619
    240          1           0        2.055979   -7.877453   -2.979675
    241          6           0        1.305946   -7.220612   -1.088309
    242          1           0        1.845229   -6.815982   -0.230861
    243          6           0        0.099520   -6.351483   -1.427073
    244          1           0       -0.513328   -6.173985   -0.537588
    245          1           0       -0.530061   -6.819346   -2.191880
    246          1           0        0.430115   -5.381238   -1.805152
    247          1           0        1.004398   -8.242796   -0.840607
    248          1           0       -8.262652   -6.916548    7.667142
    249          6           0       -7.331559   -7.395579    7.344127
    250          1           0       -7.337123   -8.426427    7.712605
    251          6           0       -7.195739   -7.360088    5.820329
    252          1           0       -8.029930   -7.907698    5.365126
    253          1           0       -6.277253   -7.877879    5.517056
    254          6           0       -7.172949   -5.935684    5.265665
    255          1           0       -6.297353   -5.394069    5.645540
    256          1           0       -8.069527   -5.388834    5.582136
    257         16           0       -7.114824   -5.965760    3.445883
    258          6           0       -7.139837   -4.186953    3.104800
    259          1           0       -8.023370   -3.720049    3.549463
    260          1           0       -6.225393   -3.706017    3.459507
    261          1           0       -7.201989   -4.056751    2.022258
    262          1           0       -6.500258   -6.869868    7.827564
    263          1           0       -1.965724   -7.284645    6.386304
    264          6           0       -1.207050   -7.547858    5.641596
    265          1           0       -0.925223   -8.594698    5.796071
    266          6           0       -1.736899   -7.327121    4.216210
    267          1           0       -0.969002   -7.631040    3.494709
    268          1           0       -2.598814   -7.986916    4.049191
    269          6           0       -2.147534   -5.896212    3.939028
    270          6           0       -1.409092   -5.077418    3.081394
    271          1           0       -0.517780   -5.475615    2.599215
    272          6           0       -1.802741   -3.763981    2.826809
    273          1           0       -1.223064   -3.142588    2.149795
    274          6           0       -2.932999   -3.241150    3.444094
    275          1           0       -3.249395   -2.219170    3.266756
    276          6           0       -3.661318   -4.038913    4.324596
    277          1           0       -4.514057   -3.609700    4.841898
    278          6           0       -3.280765   -5.355672    4.556036
    279          1           0       -3.868660   -5.977117    5.229256
    280          1           0       -0.328055   -6.922491    5.827926
    281          1           0        3.167952   -4.575745    2.632936
    282          6           0        3.513928   -4.477965    1.599162
    283          1           0        3.231874   -5.374337    1.039231
    284          6           0        2.874717   -3.239446    0.936263
    285          1           0        3.389159   -3.070840   -0.018204
    286          6           0        1.400660   -3.503966    0.637220
    287          1           0        0.856050   -3.727196    1.563051
    288          1           0        1.291725   -4.352946   -0.043244
    289          1           0        0.929852   -2.628857    0.171278
    290          6           0        3.029846   -1.989914    1.801742
    291          1           0        2.502045   -2.112651    2.756803
    292          1           0        2.611676   -1.112798    1.296958
    293          1           0        4.077857   -1.775743    2.025276
    294          6           0        5.046238   -4.363840    1.642641
    295          8           0        5.638458   -3.936721    2.631975
    296          7           0        5.681994   -4.735289    0.498919
    297          1           0        5.110821   -5.054503   -0.276835
    298          6           0        7.123773   -4.732099    0.298662
    299          1           0        7.576126   -4.388945    1.232544
    300          6           0        7.634551   -6.125480   -0.135002
    301          1           0        8.726714   -6.069641   -0.242905
    302          1           0        7.236761   -6.328993   -1.135436
    303          6           0        7.250436   -7.319608    0.726841
    304          1           0        6.194460   -7.229084    1.016512
    305          1           0        7.838877   -7.371196    1.647675
    306          6           0        7.402432   -8.664624   -0.065796
    307          8           0        7.017774   -8.620526   -1.274151
    308          8           0        7.853399   -9.632971    0.559348
    309          6           0        7.456544   -3.806745   -0.881266
    310          8           0        6.765686   -3.822703   -1.905080
    311          7           0        8.573621   -3.049249   -0.788471
    312          1           0        9.209815   -3.170609   -0.012460
    313          6           0        8.985075   -2.121232   -1.829059
    314          1           0        9.138988   -2.675341   -2.766199
    315          6           0        7.913683   -1.042020   -2.089655
    316          1           0        7.029255   -1.552068   -2.475732
    317          1           0        8.260552   -0.399155   -2.909825
    318          6           0        7.507414   -0.175320   -0.885410
    319          1           0        8.366392    0.053484   -0.245201
    320          1           0        7.112619    0.783980   -1.233770
    321         16           0        6.203082   -0.932897    0.159623
    322          6           0        7.080218   -1.182272    1.724565
    323          1           0        8.057530   -1.632276    1.532157
    324          1           0        7.208833   -0.240285    2.265854
    325          1           0        6.491330   -1.883191    2.322463
    326          6           0       10.386192   -1.561382   -1.438617
    327          8           0       11.170832   -2.271555   -0.822916
    328          7           0       10.704002   -0.309568   -1.875379
    329          1           0        9.984862    0.298452   -2.239448
    330          6           0       12.021207    0.310454   -1.723132
    331          1           0       12.615178   -0.389866   -1.126433
    332          6           0       12.700637    0.527192   -3.090895
    333          1           0       12.054744    1.207926   -3.661342
    334          6           0       14.070369    1.190391   -2.922809
    335          1           0       14.727964    0.572458   -2.298242
    336          1           0       14.554280    1.311718   -3.897327
    337          1           0       13.994584    2.178664   -2.460136
    338          6           0       12.824079   -0.796028   -3.847565
    339          1           0       13.437218   -1.510855   -3.285870
    340          1           0       11.845591   -1.254304   -4.016828
    341          1           0       13.296290   -0.635736   -4.822643
    342          6           0       11.857772    1.664641   -0.992479
    343          8           0       11.057993    2.488752   -1.418549
    344          7           0       12.693456    1.898678    0.056639
    345          1           0       13.135394    1.094348    0.476686
    346          6           0       12.663179    3.137469    0.844180
    347          1           0       12.567640    3.965968    0.137857
    348          6           0       11.507456    3.180362    1.855910
    349          1           0       10.596548    2.867283    1.330805
    350          1           0       11.691267    2.451889    2.651985
    351          6           0       11.307515    4.547085    2.425918
    352          6           0       11.559446    4.979619    3.695877
    353          1           0       11.933348    4.427816    4.548026
    354          7           0       11.253215    6.321059    3.806790
    355          1           0       11.293576    6.857386    4.656245
    356          6           0       10.777521    6.775979    2.597372
    357          6           0       10.323967    8.040755    2.213091
    358          1           0       10.303646    8.872516    2.911678
    359          6           0        9.892377    8.190473    0.905744
    360          1           0        9.527808    9.158569    0.574801
    361          6           0        9.907417    7.113361   -0.001218
    362          1           0        9.550842    7.268381   -1.014870
    363          6           0       10.357878    5.862447    0.382491
    364          1           0       10.360539    5.028290   -0.315595
    365          6           0       10.803052    5.685451    1.701229
    366          1           0       13.627560    3.237065    1.349684
    367          1           0       12.821185   -1.997811    2.974538
    368          6           0       11.885023   -2.538164    2.802550
    369          1           0       11.869394   -3.417500    3.454125
    370          6           0       10.682820   -1.650251    3.099260
    371          1           0        9.748125   -2.211277    3.007315
    372          1           0       10.739027   -1.249852    4.115211
    373         16           0       10.683980   -0.257199    1.914174
    374          1           0        9.815060    0.538659    2.559554
    375          1           0       11.872762   -2.881481    1.762908
    376          1           0        6.257518   -2.986353    5.352432
    377          6           0        5.637417   -2.309699    5.948292
    378          1           0        6.264463   -1.867168    6.731687
    379          6           0        4.991854   -1.258120    5.053096
    380          1           0        4.505070   -1.778410    4.221322
    381          1           0        5.771577   -0.626637    4.600966
    382          6           0        3.968231   -0.349963    5.746929
    383          1           0        3.162878   -0.987714    6.142546
    384          6           0        4.576761    0.422156    6.920652
    385          1           0        4.934016   -0.246232    7.712036
    386          1           0        5.426294    1.030761    6.581883
    387          1           0        3.838214    1.100548    7.361390
    388          6           0        3.353907    0.615982    4.734342
    389          1           0        2.904171    0.071973    3.896764
    390          1           0        4.127420    1.276663    4.321137
    391          1           0        2.580754    1.247681    5.186008
    392          1           0        4.871655   -2.916695    6.446702
    393          1           0        0.425690   -3.041335    7.373893
    394          6           0       -0.503124   -2.496014    7.580222
    395          1           0       -0.239707   -1.602381    8.159948
    396          6           0       -1.222076   -2.115771    6.284599
    397          1           0       -1.446666   -3.044099    5.744371
    398          6           0       -2.547159   -1.414243    6.587279
    399          1           0       -3.100877   -1.171773    5.675430
    400          1           0       -3.196181   -2.046644    7.206043
    401          1           0       -2.369767   -0.480150    7.137164
    402          6           0       -0.340671   -1.250005    5.379324
    403          1           0       -0.843153   -1.055347    4.423682
    404          1           0        0.614712   -1.742849    5.159938
    405          1           0       -0.122285   -0.279273    5.844509
    406          1           0       -1.135899   -3.131858    8.210726
    407          1           0       -6.735701   -2.973812    6.070523
    408          6           0       -6.918426   -1.930222    6.349624
    409          1           0       -5.986270   -1.523462    6.749967
    410          6           0       -7.378179   -1.121049    5.143759
    411          1           0       -8.278635   -1.543368    4.684437
    412          1           0       -7.621952   -0.088185    5.426879
    413          6           0       -6.298021   -1.021347    4.097571
    414          8           0       -5.110121   -1.117031    4.340201
    415          8           0       -6.769936   -0.814522    2.876000
    416          1           0       -5.992819   -0.700150    2.269651
    417          1           0       -7.676838   -1.918605    7.138251
    418          1           0      -12.551729   -0.810583    5.832169
    419          6           0      -13.270903   -1.262948    5.139531
    420          1           0      -13.696624   -0.456828    4.531076
    421          6           0      -12.601060   -2.317942    4.262126
    422          1           0      -13.344805   -2.776933    3.599819
    423          1           0      -12.201186   -3.123142    4.890798
    424          6           0      -11.472610   -1.733448    3.414989
    425          1           0      -10.706738   -1.284800    4.059423
    426          1           0      -11.857643   -0.942255    2.759941
    427         16           0      -10.725528   -3.041646    2.393296
    428          6           0       -9.585277   -2.057907    1.384221
    429          1           0       -8.798094   -1.599788    1.988118
    430          1           0       -9.125237   -2.744777    0.670633
    431          1           0      -10.123919   -1.286439    0.825448
    432          1           0      -14.080036   -1.699780    5.733988
    433          1           0      -12.206193    3.071339    3.689927
    434          6           0      -11.262589    2.544909    3.868943
    435          1           0      -11.481748    1.655399    4.473808
    436          6           0      -10.587889    2.154754    2.552422
    437          1           0      -11.260556    1.502236    1.977323
    438          1           0      -10.413046    3.040789    1.933005
    439          6           0       -9.261098    1.415396    2.732507
    440          1           0       -9.382039    0.579662    3.431654
    441          1           0       -8.939030    0.987748    1.779447
    442         16           0       -7.875507    2.445245    3.348415
    443          6           0       -6.888424    2.588477    1.827347
    444          1           0       -7.432077    3.157537    1.069092
    445          1           0       -6.653798    1.590487    1.444599
    446          1           0       -5.942706    3.093522    2.054183
    447          1           0      -10.614338    3.203173    4.458008
    448          1           0       -5.935666    2.910196    6.448140
    449          6           0       -5.149264    2.149224    6.494266
    450          1           0       -5.618082    1.200496    6.781806
    451          6           0       -4.434512    2.022078    5.151728
    452          1           0       -3.684000    1.223961    5.177681
    453          1           0       -3.934235    2.953173    4.872937
    454          1           0       -5.141044    1.777293    4.353080
    455          1           0       -4.455973    2.433249    7.295237
    456          1           0       -0.834302    2.638488    9.987850
    457          6           0        0.162535    2.206787    9.849425
    458          1           0        0.377144    1.549238   10.699920
    459          6           0        0.233036    1.443593    8.520169
    460          1           0        1.219321    0.969341    8.421989
    461          1           0       -0.497915    0.625798    8.537286
    462          6           0       -0.034677    2.315277    7.331062
    463          6           0       -1.217684    2.418209    6.643009
    464          1           0       -2.140737    1.875232    6.794266
    465          7           0       -1.123468    3.357161    5.652755
    466          1           0       -1.819638    3.626066    4.944447
    467          6           0        0.138572    3.879584    5.666339
    468          6           0        0.703378    4.842839    4.822804
    469          1           0        0.110429    5.277093    4.022871
    470          6           0        2.019929    5.196147    5.061019
    471          1           0        2.497997    5.936261    4.425273
    472          6           0        2.758289    4.604896    6.108484
    473          1           0        3.790541    4.906024    6.264414
    474          6           0        2.192491    3.648492    6.934603
    475          1           0        2.772631    3.203803    7.739809
    476          6           0        0.859586    3.260146    6.716710
    477          1           0        0.884072    3.031170    9.862368
    478          1           0        8.524040    0.347866    9.601866
    479          6           0        8.611906    0.009267    8.564390
    480          1           0        7.597226   -0.151508    8.184936
    481          6           0        9.375930    1.031381    7.720213
    482          1           0       10.328329    1.262908    8.216454
    483          1           0        8.810725    1.973730    7.683999
    484          6           0        9.676370    0.579873    6.282227
    485          1           0       10.225853   -0.372391    6.345978
    486          6           0        8.398062    0.336512    5.476740
    487          1           0        7.796509    1.252306    5.414880
    488          1           0        8.624610    0.019734    4.451710
    489          1           0        7.775471   -0.443755    5.921318
    490          6           0       10.575837    1.596773    5.572181
    491          1           0       10.052192    2.550987    5.431147
    492          1           0       11.488743    1.792318    6.147684
    493          1           0       10.877469    1.236650    4.581598
    494          1           0        9.125654   -0.959426    8.568565
    495          6           0       -3.752478   -0.088014    0.866464
    496          8           0       -4.909058   -0.545378    1.017255
    497          6           0       -2.941175    0.311932    1.969155
    498          6           0       -1.759141    0.957266    1.774708
    499          6           0       -1.131748    1.085827    0.403577
    500          6           0       -1.729277    0.090921   -0.591187
    501          6           0       -3.246075    0.113214   -0.534882
    502          6           0       -1.102177    1.669372    2.906102
    503          6           0        0.426212    1.712978    2.855994
    504          6           0        0.932520    2.069058    1.457677
    505          6           0        0.407428    0.994259    0.480856
    506          6           0        2.449637    2.168569    1.376140
    507          6           0        2.974766    2.376741   -0.057793
    508          6           0        2.566447    1.174492   -0.908380
    509          6           0        1.042964    1.012182   -0.920181
    510          6           0        3.169832    3.258432    2.182228
    511          6           0        4.565354    3.354601    1.505586
    512          6           0        4.481903    2.476343    0.238166
    513          6           0        2.486386    3.682308   -0.709660
    514          8           0        5.274166    3.023581   -0.806111
    515          1           0       -3.380568    0.228025    2.959543
    516          1           0       -1.387109    2.107602    0.070911
    517          1           0       -1.364762   -0.920064   -0.359928
    518          1           0       -1.401566    0.325563   -1.607823
    519          1           0       -3.619448    1.095708   -0.861713
    520          1           0       -3.692707   -0.644254   -1.187611
    521          1           0       -1.454052    1.263343    3.859655
    522          1           0       -1.511949    2.696749    2.857806
    523          1           0        0.837397    0.735958    3.144737
    524          1           0        0.784012    2.434701    3.594724
    525          1           0        0.499553    3.042467    1.180003
    526          1           0        0.657104    0.017497    0.928974
    527          1           0        2.853975    1.198325    1.711009
    528          1           0        3.032837    0.268782   -0.495439
    529          1           0        2.919654    1.278104   -1.942754
    530          1           0        0.594260    1.813682   -1.524269
    531          1           0        0.799212    0.075003   -1.431131
    532          1           0        3.226348    3.027418    3.248240
    533          1           0        2.625127    4.206523    2.103340
    534          1           0        5.366302    3.010313    2.167110
    535          1           0        4.809549    4.380742    1.213311
    536          1           0        4.843041    1.464951    0.472602
    537          1           0        2.862855    4.567557   -0.189798
    538          1           0        2.839918    3.728014   -1.744635
    539          1           0        1.394219    3.750775   -0.727054
    540          1           0        5.013765    2.576998   -1.622268
 ---------------------------------------------------------------------
 Rotational constants (GHZ):           0.0038673           0.0024788           0.0023442
 Standard basis: 6-31G(d) (6D, 7F)
 There are  4077 symmetry adapted cartesian basis functions of A   symmetry.
 There are  4077 symmetry adapted basis functions of A   symmetry.
  4077 basis functions,  7776 primitive gaussians,  4077 cartesian basis functions
   901 alpha electrons      901 beta electrons
       nuclear repulsion energy     90609.4883901198 Hartrees.
 NAtoms=  540 NActive=  540 NUniq=  540 SFac= 1.00D+00 NAtFMM=   60 NAOKFM=T Big=T
 Integral buffers will be    131072 words long.
 Raffenetti 2 integral format.
 Two-electron integral symmetry is turned on.
 Nuclear repulsion after empirical dispersion term =    90608.7932364494 Hartrees.
 One-electron integrals computed using PRISM.
 NBasis=  4077 RedAO= T EigKep=  3.54D-04  NBF=  4077
 NBsUse=  4077 1.00D-06 EigRej= -1.00D+00 NBFU=  4077
 ExpMin= 1.17D-01 ExpMax= 2.19D+04 ExpMxC= 3.30D+03 IAcc=3 IRadAn=         5 AccDes= 0.00D+00
 Harris functional with IExCor= 4639 and IRadAn=       5 diagonalized for initial guess.
 HarFok:  IExCor= 4639 AccDes= 0.00D+00 IRadAn=         5 IDoV= 1 UseB2=F ITyADJ=14
 ICtDFT=  3500011 ScaDFX=  1.000000  1.000000  1.000000  1.000000
 FoFCou: FMM=F IPFlag=           0 FMFlag=      100000 FMFlg1=        2001
         NFxFlg=           0 DoJE=T BraDBF=F KetDBF=T FulRan=T
         wScrn=  0.000000 ICntrl=       500 IOpCl=  0 I1Cent=   200000004 NGrid=           0
         NMat0=    1 NMatS0=      1 NMatT0=    0 NMatD0=    1 NMtDS0=    0 NMtDT0=    0
 Petite list used in FoFCou.
 Requested convergence on RMS density matrix=1.00D-08 within 128 cycles.
 Requested convergence on MAX density matrix=1.00D-06.
 Requested convergence on             energy=1.00D-06.
 No special actions if energy rises.
 Integral accuracy reduced to 1.0D-05 until final iterations.
 Initial convergence to 1.0D-05 achieved.  Increase integral accuracy.
 SCF Done:  E(RwB97XD) =  -11902.3353558     A.U. after   15 cycles
            NFock= 15  Conv=0.33D-08     -V/T= 2.0084
 Hyperfine terms turned off by default for NAtoms > 100.

 **********************************************************************

            Population analysis using the SCF Density.

 **********************************************************************

 Orbital symmetries:
       Occupied  (A) (A) (A) (A) (A) (A) (A) (A) (A) (A) (A) (A)
                 (A) (A) (A) (A) (A) (A) (A) (A) (A) (A) (A) (A)
                 (A) (A) (A) (A) (A) (A) (A) (A) (A) (A) (A) (A)
                 (A) (A) (A) (A) (A) (A) (A) (A) (A) (A) (A) (A)
                 (A) (A) (A) (A) (A) (A) (A) (A) (A) (A) (A) (A)
                 (A) (A) (A) (A) (A) (A) (A) (A) (A) (A) (A) (A)
                 (A) (A) (A) (A) (A) (A) (A) (A) (A) (A) (A) (A)
                 (A) (A) (A) (A) (A) (A) (A) (A) (A) (A) (A) (A)
                 (A) (A) (A) (A) (A) (A) (A) (A) (A) (A) (A) (A)
                 (A) (A) (A) (A) (A) (A) (A) (A) (A) (A) (A) (A)
                 (A) (A) (A) (A) (A) (A) (A) (A) (A) (A) (A) (A)
                 (A) (A) (A) (A) (A) (A) (A) (A) (A) (A) (A) (A)
                 (A) (A) (A) (A) (A) (A) (A) (A) (A) (A) (A) (A)
                 (A) (A) (A) (A) (A) (A) (A) (A) (A) (A) (A) (A)
                 (A) (A) (A) (A) (A) (A) (A) (A) (A) (A) (A) (A)
                 (A) (A) (A) (A) (A) (A) (A) (A) (A) (A) (A) (A)
                 (A) (A) (A) (A) (A) (A) (A) (A) (A) (A) (A) (A)
                 (A) (A) (A) (A) (A) (A) (A) (A) (A) (A) (A) (A)
                 (A) (A) (A) (A) (A) (A) (A) (A) (A) (A) (A) (A)
                 (A) (A) (A) (A) (A) (A) (A) (A) (A) (A) (A) (A)
                 (A) (A) (A) (A) (A) (A) (A) (A) (A) (A) (A) (A)
                 (A) (A) (A) (A) (A) (A) (A) (A) (A) (A) (A) (A)
                 (A) (A) (A) (A) (A) (A) (A) (A) (A) (A) (A) (A)
                 (A) (A) (A) (A) (A) (A) (A) (A) (A) (A) (A) (A)
                 (A) (A) (A) (A) (A) (A) (A) (A) (A) (A) (A) (A)
                 (A) (A) (A) (A) (A) (A) (A) (A) (A) (A) (A) (A)
                 (A) (A) (A) (A) (A) (A) (A) (A) (A) (A) (A) (A)
                 (A) (A) (A) (A) (A) (A) (A) (A) (A) (A) (A) (A)
                 (A) (A) (A) (A) (A) (A) (A) (A) (A) (A) (A) (A)
                 (A) (A) (A) (A) (A) (A) (A) (A) (A) (A) (A) (A)
                 (A) (A) (A) (A) (A) (A) (A) (A) (A) (A) (A) (A)
                 (A) (A) (A) (A) (A) (A) (A) (A) (A) (A) (A) (A)
                 (A) (A) (A) (A) (A) (A) (A) (A) (A) (A) (A) (A)
                 (A) (A) (A) (A) (A) (A) (A) (A) (A) (A) (A) (A)
                 (A) (A) (A) (A) (A) (A) (A) (A) (A) (A) (A) (A)
                 (A) (A) (A) (A) (A) (A) (A) (A) (A) (A) (A) (A)
                 (A) (A) (A) (A) (A) (A) (A) (A) (A) (A) (A) (A)
                 (A) (A) (A) (A) (A) (A) (A) (A) (A) (A) (A) (A)
                 (A) (A) (A) (A) (A) (A) (A) (A) (A) (A) (A) (A)
                 (A) (A) (A) (A) (A) (A) (A) (A) (A) (A) (A) (A)
                 (A) (A) (A) (A) (A) (A) (A) (A) (A) (A) (A) (A)
                 (A) (A) (A) (A) (A) (A) (A) (A) (A) (A) (A) (A)
                 (A) (A) (A) (A) (A) (A) (A) (A) (A) (A) (A) (A)
                 (A) (A) (A) (A) (A) (A) (A) (A) (A) (A) (A) (A)
                 (A) (A) (A) (A) (A) (A) (A) (A) (A) (A) (A) (A)
                 (A) (A) (A) (A) (A) (A) (A) (A) (A) (A) (A) (A)
                 (A) (A) (A) (A) (A) (A) (A) (A) (A) (A) (A) (A)
                 (A) (A) (A) (A) (A) (A) (A) (A) (A) (A) (A) (A)
                 (A) (A) (A) (A) (A) (A) (A) (A) (A) (A) (A) (A)
                 (A) (A) (A) (A) (A) (A) (A) (A) (A) (A) (A) (A)
                 (A) (A) (A) (A) (A) (A) (A) (A) (A) (A) (A) (A)
                 (A) (A) (A) (A) (A) (A) (A) (A) (A) (A) (A) (A)
[...]
  523 Atom       -0.281108      0.137493      0.143615
  524 Atom       -0.283597      0.139071      0.144527
  525 Atom       -0.273431      0.135130      0.138301
  526 Atom       -0.269046      0.133361      0.135685
  527 Atom       -0.268060      0.130955      0.137105
  528 Atom       -0.277895      0.136873      0.141022
  529 Atom       -0.277587      0.133413      0.144174
  530 Atom       -0.282974      0.139606      0.143368
  531 Atom       -0.288493      0.142122      0.146371
  532 Atom       -0.290220      0.142705      0.147515
  533 Atom       -0.287508      0.141429      0.146079
  534 Atom       -0.292927      0.144948      0.147978
  535 Atom       -0.290652      0.144206      0.146447
  536 Atom       -0.260462      0.124162      0.136301
  537 Atom       -0.294676      0.141931      0.152745
  538 Atom       -0.287175      0.137346      0.149829
  539 Atom       -0.294176      0.143848      0.150328
  540 Atom       -0.449554      0.196591      0.252963
 -----------------------------------------------------
 Unable to Open any file for archive entry.
 1\1\GINC-EXP-1-13\SP\RwB97XD\6-31G(d)\C182H311N18O24S5(1-)\HKLEM\08-Au
 g-2024\0\\# 6-31G(d) wb97xd prop=efg\\19nt_mm_min_distance_cutoff6_now
 at_efg\\-1,1\H,0,-8.593321,-7.390659,-3.078659\C,-1,-8.158953,-6.39022
 9,-2.950913\H,0,-8.384847,-5.80632,-3.846429\C,0,-8.769163,-5.711497,-
 1.711356\H,0,-9.854689,-5.654509,-1.849434\H,0,-8.605827,-6.329466,-0.
 819649\C,0,-8.19658,-4.335307,-1.487759\C,0,-8.734946,-3.209874,-2.114
 288\H,0,-9.626692,-3.31084,-2.728669\C,0,-8.159308,-1.954913,-1.958856
 \H,0,-8.586913,-1.078049,-2.435031\C,0,-7.015178,-1.818972,-1.177097\O
 ,0,-6.443963,-0.589845,-1.058035\H,0,-5.824839,-0.574182,-0.273066\C,0
 ,-6.461195,-2.927066,-0.538503\H,0,-5.578296,-2.815679,0.083371\C,0,-7
 .060095,-4.168583,-0.696546\H,0,-6.627115,-5.029774,-0.197244\C,0,-6.6
 25671,-6.510871,-2.913211\O,0,-5.915091,-5.989106,-3.763226\N,-1,-6.09
 838,-7.235616,-1.887312\H,0,-6.726056,-7.693277,-1.243095\C,-1,-4.6638
 58,-7.46629,-1.71701\H,0,-4.141339,-6.525966,-1.919643\C,0,-4.347537,-
 7.979038,-0.309209\H,0,-4.944809,-8.890682,-0.148667\C,0,-2.874021,-8.
 383868,-0.229877\H,0,-2.620384,-8.729965,0.777672\H,0,-2.222344,-7.538
 166,-0.465866\H,0,-2.644024,-9.190092,-0.93603\C,0,-4.732751,-6.98242,
 0.79824\H,0,-5.822068,-6.848624,0.804011\H,0,-4.498344,-7.433079,1.770
 165\C,0,-4.060099,-5.614315,0.715112\H,-1,-4.361398,-4.99693,1.567425\
 H,0,-4.326034,-5.081415,-0.204514\H,0,-2.969453,-5.69307,0.756455\H,0,
 -4.315857,-8.190034,-2.466835\H,0,-3.445803,-4.891402,-5.26705\C,-1,-2
 .541736,-4.298493,-5.09196\H,0,-2.722997,-3.288337,-5.479596\C,0,-2.21
 1999,-4.245583,-3.593615\H,0,-2.053882,-5.277856,-3.247763\C,0,-0.9289
 3,-3.453423,-3.338292\H,-1,-0.069483,-3.881134,-3.869561\H,0,-1.048448
 ,-2.421618,-3.682484\H,0,-0.683656,-3.416302,-2.270217\C,0,-3.374084,-
 3.661295,-2.785503\H,0,-3.123973,-3.614993,-1.718083\H,0,-4.28185,-4.2
 62038,-2.901982\H,0,-3.605382,-2.640843,-3.120388\H,-1,-1.716009,-4.73
 662,-5.665658\H,0,-8.42216,-2.2107,-8.171977\C,-1,-8.792585,-1.503006,
 -7.42157\H,0,-9.715127,-1.919018,-6.995937\C,0,-7.753635,-1.26538,-6.3
 21428\H,0,-6.836768,-0.88388,-6.795269\C,0,-8.24677,-0.203896,-5.33338
 8\H,0,-9.192556,-0.518619,-4.870881\H,0,-8.418572,0.758327,-5.829672\H
 ,0,-7.521023,-0.030361,-4.533485\C,0,-7.402086,-2.583141,-5.614564\H,0
 ,-8.257497,-2.89079,-4.995344\H,-1,-7.27461,-3.370732,-6.369528\C,0,-6
 .144414,-2.535175,-4.750893\H,0,-5.985766,-3.502199,-4.265673\H,0,-5.2
 6047,-2.310092,-5.361114\H,0,-6.211479,-1.774308,-3.966295\H,-1,-9.053
 961,-0.569727,-7.934041\H,0,-13.550169,0.544519,-4.843148\C,-1,-14.297
 676,1.269214,-4.502907\H,0,-14.670406,0.92709,-3.531628\C,0,-13.683065
 ,2.666497,-4.381528\H,-1,-13.338209,2.997447,-5.3696\H,0,-14.453444,3.
 380066,-4.065439\C,0,-12.53551,2.685546,-3.401789\C,0,-11.308796,2.113
 088,-3.739543\H,-1,-11.168162,1.688436,-4.732172\C,0,-10.255713,2.0629
 71,-2.836164\H,0,-9.315237,1.602204,-3.119086\C,0,-10.408105,2.610828,
 -1.556789\O,0,-9.413385,2.614126,-0.640028\H,-1,-8.582134,2.345619,-1.
 073681\C,0,-11.632092,3.177977,-1.198956\H,0,-11.74288,3.597789,-0.204
 201\C,0,-12.676594,3.207341,-2.114596\H,0,-13.624544,3.654056,-1.82149
 4\H,-1,-15.130996,1.257941,-5.2149\H,0,-5.022763,7.271606,4.451692\C,-
 1,-4.238518,6.511279,4.336265\H,0,-4.292836,5.850477,5.204128\C,0,-4.4
 79827,5.713672,3.055052\H,0,-4.4282,6.387242,2.192573\H,0,-5.488291,5.
 283018,3.059487\C,0,-3.463762,4.576175,2.833507\O,0,-2.505626,4.515506
 ,3.659213\O,-1,-3.651518,3.807463,1.864628\C,0,-2.911709,7.25939,4.271
 108\O,0,-2.580731,7.869917,3.257873\N,0,-2.145803,7.309394,5.39516\C,-
 1,-0.905221,8.075828,5.39324\H,-1,-0.140149,7.568484,4.791717\H,0,-1.0
 74103,9.061634,4.952447\C,-1,-0.512489,8.116394,6.870248\H,0,0.564503,
 8.243463,7.010549\H,0,-1.023856,8.947777,7.371195\C,0,-1.024574,6.7734
 98,7.404337\H,0,-1.187078,6.772888,8.486043\H,0,-0.306734,5.982497,7.1
 7067\C,-1,-2.326853,6.540086,6.626377\H,0,-2.47732,5.480179,6.403375\H
 ,0,-3.198253,6.905955,7.187463\H,0,-3.827336,8.601393,-6.163718\C,-1,-
 3.556423,8.162135,-5.195139\H,-1,-2.813002,8.827228,-4.752227\C,0,-4.8
 03959,8.067214,-4.296853\H,0,-5.642401,7.643715,-4.865391\H,0,-5.10542
 ,9.091307,-4.046044\C,0,-4.598695,7.252963,-3.033435\C,-1,-3.590385,7.
 566071,-2.115886\H,-1,-2.960981,8.438516,-2.284873\C,0,-3.394881,6.785
 077,-0.979029\H,0,-2.626692,7.053344,-0.258971\C,0,-4.192407,5.664218,
 -0.742072\H,0,-4.031905,5.041662,0.139513\C,0,-5.203428,5.353258,-1.64
 6159\H,0,-5.840642,4.49084,-1.471598\C,0,-5.407379,6.145739,-2.773133\
 H,0,-6.212871,5.896757,-3.461138\C,-1,-2.834462,6.841235,-5.490618\O,0
 ,-1.609369,6.832256,-5.660835\N,0,-3.589151,5.727401,-5.646593\H,0,-4.
 511241,5.725227,-5.231408\C,-1,-3.037194,4.421027,-6.005098\H,-1,-2.50
 3784,3.984391,-5.149962\C,0,-4.12935,3.459067,-6.482038\H,0,-4.734022,
 3.955802,-7.250074\H,0,-3.630075,2.612787,-6.968208\C,0,-4.994827,2.95
 4618,-5.352777\C,0,-6.212117,3.553573,-5.026257\H,0,-6.599586,4.35863,
 -5.648689\C,0,-6.949194,3.14354,-3.920394\H,-1,-7.892519,3.616781,-3.6
 66065\C,0,-6.472142,2.104503,-3.124344\O,0,-7.196603,1.737963,-2.03790
 5\H,0,-6.891158,0.874043,-1.670909\C,-1,-5.278776,1.461051,-3.458776\H
 ,0,-4.934821,0.622579,-2.862096\C,-1,-4.55225,1.894988,-4.557437\H,0,-
 3.616639,1.396682,-4.801218\H,0,-2.301875,4.59161,-6.797458\H,0,0.2977
 72,7.166538,-7.486186\C,-1,1.302485,7.369659,-7.096738\H,0,1.968795,7.
 602222,-7.928652\C,0,1.223288,8.505187,-6.063167\H,0,2.204837,8.977573
 ,-5.947228\H,0,0.979921,8.065354,-5.09129\C,-1,0.163968,9.561559,-6.40
 2409\H,0,0.456938,10.156521,-7.270611\H,0,-0.777227,9.045085,-6.624552
 \C,-1,-0.067783,10.522467,-5.245141\O,0,0.206093,11.707979,-5.287393\N
 ,0,-0.630161,9.94041,-4.138396\H,0,-0.725274,8.937725,-4.070108\H,0,-0
 .665823,10.480934,-3.287117\C,-1,1.833845,6.068489,-6.431575\O,0,2.919
 514,5.582592,-6.728702\N,0,1.036991,5.494102,-5.463337\H,0,0.11335,5.8
 9939,-5.324619\C,-1,1.566644,4.608607,-4.411094\H,0,0.791264,4.49548,-
 3.648851\H,-1,2.442473,5.059351,-3.936225\C,0,2.007098,3.203912,-4.845
 992\O,0,2.774425,2.564029,-4.138305\N,0,1.468884,2.734192,-5.996383\H,
 -1,0.845574,3.357243,-6.49282\C,-1,1.770776,1.435874,-6.58842\H,0,2.51
 6026,0.966301,-5.941312\C,0,0.511961,0.565918,-6.695859\H,-1,-0.154082
 ,1.010606,-7.449493\H,0,0.815532,-0.407504,-7.095261\C,0,-0.260418,0.3
 87768,-5.384819\H,0,-0.576235,1.38202,-5.036508\C,0,-1.520625,-0.44293
 7,-5.640838\H,0,-2.118126,-0.552376,-4.72768\H,0,-2.156963,0.015878,-6
 .407647\H,0,-1.258927,-1.450485,-5.985831\C,0,0.603702,-0.23865,-4.289
 522\H,0,1.024448,-1.195994,-4.622721\H,-1,1.427142,0.419136,-3.994603\
 H,-1,0.006653,-0.436159,-3.394094\C,0,2.396367,1.591626,-8.003573\O,0,
 2.479948,0.61927,-8.742151\N,0,2.778841,2.838152,-8.387357\H,0,2.84253
 2,3.582515,-7.700136\C,-1,3.32835,3.083139,-9.718932\H,0,2.667721,2.64
 9882,-10.473925\H,0,3.399601,4.162477,-9.862768\H,0,4.320928,2.633954,
 -9.833956\H,0,5.546201,-2.664128,-5.635251\C,-1,5.179678,-2.946757,-4.
 64451\H,0,6.004203,-2.895557,-3.925426\C,0,4.05697,-1.975577,-4.212287
 \H,0,3.219012,-2.10656,-4.910988\C,-1,3.565377,-2.248376,-2.787717\H,-
 1,3.117151,-3.241301,-2.680355\H,0,4.395683,-2.187728,-2.072539\H,0,2.
 81419,-1.505175,-2.49618\C,0,4.56495,-0.53728,-4.341879\H,0,5.415258,-
 0.366965,-3.66935\H,0,4.895518,-0.318578,-5.364102\H,0,3.789991,0.1888
 69,-4.076718\C,0,4.70928,-4.397629,-4.762717\O,-1,4.2512,-4.818207,-5.
 845931\N,0,4.808662,-5.18172,-3.673906\H,0,5.23503,-4.778376,-2.836183
 \C,-1,4.195992,-6.507886,-3.525163\H,0,3.592357,-6.681115,-4.419413\C,
 0,5.22577,-7.631011,-3.285587\H,0,4.776527,-8.582224,-3.601714\H,0,5.4
 6758,-7.75593,-2.220376\C,-1,6.584811,-7.428243,-3.945289\H,0,7.217014
 ,-8.256675,-3.608308\H,0,7.052063,-6.524469,-3.540676\C,0,6.576176,-7.
 291912,-5.464689\H,0,6.095901,-6.368776,-5.789321\H,0,7.597584,-7.2791
 03,-5.858205\N,0,5.877504,-8.415523,-6.10512\H,0,6.203298,-9.332368,-5
 .829576\C,0,4.758891,-8.365207,-6.817286\N,0,4.056999,-7.253158,-6.990
 035\H,0,4.202057,-6.354414,-6.469227\H,0,3.36537,-7.230121,-7.723883\N
 ,0,4.331425,-9.498879,-7.431881\H,0,4.866271,-10.348855,-7.348107\H,-1
 ,3.349812,-9.608572,-7.63146\C,0,3.286717,-6.406715,-2.28558\O,0,3.527
 408,-5.588373,-1.404653\N,0,2.259528,-7.278405,-2.194619\H,0,2.055979,
 -7.877453,-2.979675\C,-1,1.305946,-7.220612,-1.088309\H,0,1.845229,-6.
 815982,-0.230861\C,0,0.09952,-6.351483,-1.427073\H,0,-0.513328,-6.1739
 85,-0.537588\H,0,-0.530061,-6.819346,-2.19188\H,0,0.430115,-5.381238,-
 1.805152\H,-1,1.004398,-8.242796,-0.840607\H,0,-8.262652,-6.916548,7.6
 67142\C,-1,-7.331559,-7.395579,7.344127\H,0,-7.337123,-8.426427,7.7126
 05\C,0,-7.195739,-7.360088,5.820329\H,0,-8.02993,-7.907698,5.365126\H,
 0,-6.277253,-7.877879,5.517056\C,0,-7.172949,-5.935684,5.265665\H,0,-6
 .297353,-5.394069,5.64554\H,0,-8.069527,-5.388834,5.582136\S,0,-7.1148
 24,-5.96576,3.445883\C,0,-7.139837,-4.186953,3.1048\H,0,-8.02337,-3.72
 0049,3.549463\H,0,-6.225393,-3.706017,3.459507\H,0,-7.201989,-4.056751
 ,2.022258\H,-1,-6.500258,-6.869868,7.827564\H,0,-1.965724,-7.284645,6.
 386304\C,-1,-1.20705,-7.547858,5.641596\H,0,-0.925223,-8.594698,5.7960
 71\C,0,-1.736899,-7.327121,4.21621\H,0,-0.969002,-7.63104,3.494709\H,0
 ,-2.598814,-7.986916,4.049191\C,0,-2.147534,-5.896212,3.939028\C,0,-1.
 409092,-5.077418,3.081394\H,0,-0.51778,-5.475615,2.599215\C,0,-1.80274
 1,-3.763981,2.826809\H,0,-1.223064,-3.142588,2.149795\C,0,-2.932999,-3
 .24115,3.444094\H,0,-3.249395,-2.21917,3.266756\C,0,-3.661318,-4.03891
 3,4.324596\H,-1,-4.514057,-3.6097,4.841898\C,0,-3.280765,-5.355672,4.5
 56036\H,0,-3.86866,-5.977117,5.229256\H,0,-0.328055,-6.922491,5.827926
 \H,0,3.167952,-4.575745,2.632936\C,-1,3.513928,-4.477965,1.599162\H,0,
 3.231874,-5.374337,1.039231\C,0,2.874717,-3.239446,0.936263\H,-1,3.389
 159,-3.07084,-0.018204\C,0,1.40066,-3.503966,0.63722\H,0,0.85605,-3.72
 7196,1.563051\H,0,1.291725,-4.352946,-0.043244\H,0,0.929852,-2.628857,
 0.171278\C,0,3.029846,-1.989914,1.801742\H,0,2.502045,-2.112651,2.7568
 03\H,0,2.611676,-1.112798,1.296958\H,0,4.077857,-1.775743,2.025276\C,0
 ,5.046238,-4.36384,1.642641\O,0,5.638458,-3.936721,2.631975\N,0,5.6819
 94,-4.735289,0.498919\H,0,5.110821,-5.054503,-0.276835\C,-1,7.123773,-
 4.732099,0.298662\H,0,7.576126,-4.388945,1.232544\C,0,7.634551,-6.1254
 8,-0.135002\H,0,8.726714,-6.069641,-0.242905\H,0,7.236761,-6.328993,-1
 .135436\C,0,7.250436,-7.319608,0.726841\H,0,6.19446,-7.229084,1.016512
 \H,0,7.838877,-7.371196,1.647675\C,0,7.402432,-8.664624,-0.065796\O,-1
 ,7.017774,-8.620526,-1.274151\O,0,7.853399,-9.632971,0.559348\C,0,7.45
 6544,-3.806745,-0.881266\O,0,6.765686,-3.822703,-1.90508\N,0,8.573621,
 -3.049249,-0.788471\H,0,9.209815,-3.170609,-0.01246\C,-1,8.985075,-2.1
 21232,-1.829059\H,0,9.138988,-2.675341,-2.766199\C,0,7.913683,-1.04202
 ,-2.089655\H,0,7.029255,-1.552068,-2.475732\H,0,8.260552,-0.399155,-2.
 909825\C,0,7.507414,-0.17532,-0.88541\H,0,8.366392,0.053484,-0.245201\
 H,0,7.112619,0.78398,-1.23377\S,0,6.203082,-0.932897,0.159623\C,0,7.08
 0218,-1.182272,1.724565\H,0,8.05753,-1.632276,1.532157\H,0,7.208833,-0
 .240285,2.265854\H,0,6.49133,-1.883191,2.322463\C,0,10.386192,-1.56138
 2,-1.438617\O,0,11.170832,-2.271555,-0.822916\N,0,10.704002,-0.309568,
 -1.875379\H,0,9.984862,0.298452,-2.239448\C,-1,12.021207,0.310454,-1.7
 23132\H,0,12.615178,-0.389866,-1.126433\C,0,12.700637,0.527192,-3.0908
 95\H,0,12.054744,1.207926,-3.661342\C,0,14.070369,1.190391,-2.922809\H
 ,0,14.727964,0.572458,-2.298242\H,0,14.55428,1.311718,-3.897327\H,0,13
 .994584,2.178664,-2.460136\C,0,12.824079,-0.796028,-3.847565\H,0,13.43
 7218,-1.510855,-3.28587\H,0,11.845591,-1.254304,-4.016828\H,0,13.29629
 ,-0.635736,-4.822643\C,0,11.857772,1.664641,-0.992479\O,0,11.057993,2.
 488752,-1.418549\N,0,12.693456,1.898678,0.056639\H,0,13.135394,1.09434
 8,0.476686\C,-1,12.663179,3.137469,0.84418\H,0,12.56764,3.965968,0.137
 857\C,0,11.507456,3.180362,1.85591\H,0,10.596548,2.867283,1.330805\H,0
 ,11.691267,2.451889,2.651985\C,0,11.307515,4.547085,2.425918\C,0,11.55
 9446,4.979619,3.695877\H,0,11.933348,4.427816,4.548026\N,0,11.253215,6
 .321059,3.80679\H,0,11.293576,6.857386,4.656245\C,0,10.777521,6.775979
 ,2.597372\C,0,10.323967,8.040755,2.213091\H,0,10.303646,8.872516,2.911
 678\C,0,9.892377,8.190473,0.905744\H,0,9.527808,9.158569,0.574801\C,0,
 9.907417,7.113361,-0.001218\H,0,9.550842,7.268381,-1.01487\C,0,10.3578
 78,5.862447,0.382491\H,0,10.360539,5.02829,-0.315595\C,0,10.803052,5.6
 85451,1.701229\H,0,13.62756,3.237065,1.349684\H,0,12.821185,-1.997811,
 2.974538\C,-1,11.885023,-2.538164,2.80255\H,0,11.869394,-3.4175,3.4541
 25\C,0,10.68282,-1.650251,3.09926\H,0,9.748125,-2.211277,3.007315\H,0,
 10.739027,-1.249852,4.115211\S,0,10.68398,-0.257199,1.914174\H,0,9.815
 06,0.538659,2.559554\H,0,11.872762,-2.881481,1.762908\H,0,6.257518,-2.
 986353,5.352432\C,-1,5.637417,-2.309699,5.948292\H,0,6.264463,-1.86716
 8,6.731687\C,0,4.991854,-1.25812,5.053096\H,0,4.50507,-1.77841,4.22132
 2\H,0,5.771577,-0.626637,4.600966\C,0,3.968231,-0.349963,5.746929\H,0,
 3.162878,-0.987714,6.142546\C,0,4.576761,0.422156,6.920652\H,0,4.93401
 6,-0.246232,7.712036\H,0,5.426294,1.030761,6.581883\H,0,3.838214,1.100
 548,7.36139\C,0,3.353907,0.615982,4.734342\H,0,2.904171,0.071973,3.896
 764\H,0,4.12742,1.276663,4.321137\H,0,2.580754,1.247681,5.186008\H,0,4
 .871655,-2.916695,6.446702\H,0,0.42569,-3.041335,7.373893\C,-1,-0.5031
 24,-2.496014,7.580222\H,0,-0.239707,-1.602381,8.159948\C,0,-1.222076,-
 2.115771,6.284599\H,0,-1.446666,-3.044099,5.744371\C,0,-2.547159,-1.41
 4243,6.587279\H,0,-3.100877,-1.171773,5.67543\H,0,-3.196181,-2.046644,
 7.206043\H,0,-2.369767,-0.48015,7.137164\C,0,-0.340671,-1.250005,5.379
 324\H,0,-0.843153,-1.055347,4.423682\H,0,0.614712,-1.742849,5.159938\H
 ,0,-0.122285,-0.279273,5.844509\H,0,-1.135899,-3.131858,8.210726\H,0,-
 6.735701,-2.973812,6.070523\C,-1,-6.918426,-1.930222,6.349624\H,0,-5.9
 8627,-1.523462,6.749967\C,0,-7.378179,-1.121049,5.143759\H,0,-8.278635
 ,-1.543368,4.684437\H,0,-7.621952,-0.088185,5.426879\C,0,-6.298021,-1.
 021347,4.097571\O,0,-5.110121,-1.117031,4.340201\O,0,-6.769936,-0.8145
 22,2.876\H,0,-5.992819,-0.70015,2.269651\H,0,-7.676838,-1.918605,7.138
 251\H,0,-12.551729,-0.810583,5.832169\C,-1,-13.270903,-1.262948,5.1395
 31\H,0,-13.696624,-0.456828,4.531076\C,0,-12.60106,-2.317942,4.262126\
 H,0,-13.344805,-2.776933,3.599819\H,0,-12.201186,-3.123142,4.890798\C,
 0,-11.47261,-1.733448,3.414989\H,0,-10.706738,-1.2848,4.059423\H,0,-11
 .857643,-0.942255,2.759941\S,0,-10.725528,-3.041646,2.393296\C,0,-9.58
 5277,-2.057907,1.384221\H,0,-8.798094,-1.599788,1.988118\H,0,-9.125237
 ,-2.744777,0.670633\H,0,-10.123919,-1.286439,0.825448\H,0,-14.080036,-
 1.69978,5.733988\H,0,-12.206193,3.071339,3.689927\C,-1,-11.262589,2.54
 4909,3.868943\H,0,-11.481748,1.655399,4.473808\C,0,-10.587889,2.154754
 ,2.552422\H,0,-11.260556,1.502236,1.977323\H,0,-10.413046,3.040789,1.9
 33005\C,0,-9.261098,1.415396,2.732507\H,0,-9.382039,0.579662,3.431654\
 H,0,-8.93903,0.987748,1.779447\S,0,-7.875507,2.445245,3.348415\C,0,-6.
 888424,2.588477,1.827347\H,0,-7.432077,3.157537,1.069092\H,0,-6.653798
 ,1.590487,1.444599\H,0,-5.942706,3.093522,2.054183\H,0,-10.614338,3.20
 3173,4.458008\H,0,-5.935666,2.910196,6.44814\C,-1,-5.149264,2.149224,6
 .494266\H,0,-5.618082,1.200496,6.781806\C,0,-4.434512,2.022078,5.15172
 8\H,0,-3.684,1.223961,5.177681\H,0,-3.934235,2.953173,4.872937\H,0,-5.
 141044,1.777293,4.35308\H,0,-4.455973,2.433249,7.295237\H,0,-0.834302,
 2.638488,9.98785\C,-1,0.162535,2.206787,9.849425\H,0,0.377144,1.549238
 ,10.69992\C,0,0.233036,1.443593,8.520169\H,0,1.219321,0.969341,8.42198
 9\H,0,-0.497915,0.625798,8.537286\C,0,-0.034677,2.315277,7.331062\C,0,
 -1.217684,2.418209,6.643009\H,0,-2.140737,1.875232,6.794266\N,0,-1.123
 468,3.357161,5.652755\H,0,-1.819638,3.626066,4.944447\C,0,0.138572,3.8
 79584,5.666339\C,0,0.703378,4.842839,4.822804\H,0,0.110429,5.277093,4.
 022871\C,0,2.019929,5.196147,5.061019\H,0,2.497997,5.936261,4.425273\C
 ,0,2.758289,4.604896,6.108484\H,0,3.790541,4.906024,6.264414\C,0,2.192
 491,3.648492,6.934603\H,0,2.772631,3.203803,7.739809\C,0,0.859586,3.26
 0146,6.71671\H,0,0.884072,3.03117,9.862368\H,0,8.52404,0.347866,9.6018
 66\C,-1,8.611906,0.009267,8.56439\H,0,7.597226,-0.151508,8.184936\C,0,
 9.37593,1.031381,7.720213\H,0,10.328329,1.262908,8.216454\H,0,8.810725
 ,1.97373,7.683999\C,0,9.67637,0.579873,6.282227\H,0,10.225853,-0.37239
 1,6.345978\C,0,8.398062,0.336512,5.47674\H,0,7.796509,1.252306,5.41488
 \H,0,8.62461,0.019734,4.45171\H,0,7.775471,-0.443755,5.921318\C,0,10.5
 75837,1.596773,5.572181\H,0,10.052192,2.550987,5.431147\H,0,11.488743,
 1.792318,6.147684\H,0,10.877469,1.23665,4.581598\H,0,9.125654,-0.95942
 6,8.568565\C,0,-3.752478,-0.088014,0.866464\O,0,-4.909058,-0.545378,1.
 017255\C,0,-2.941175,0.311932,1.969155\C,0,-1.759141,0.957266,1.774708
 \C,0,-1.131748,1.085827,0.403577\C,0,-1.729277,0.090921,-0.591187\C,0,
 -3.246075,0.113214,-0.534882\C,0,-1.102177,1.669372,2.906102\C,0,0.426
 212,1.712978,2.855994\C,0,0.93252,2.069058,1.457677\C,0,0.407428,0.994
 259,0.480856\C,0,2.449637,2.168569,1.37614\C,0,2.974766,2.376741,-0.05
 7793\C,0,2.566447,1.174492,-0.90838\C,0,1.042964,1.012182,-0.920181\C,
 0,3.169832,3.258432,2.182228\C,0,4.565354,3.354601,1.505586\C,0,4.4819
 03,2.476343,0.238166\C,0,2.486386,3.682308,-0.70966\O,0,5.274166,3.023
 581,-0.806111\H,0,-3.380568,0.228025,2.959543\H,0,-1.387109,2.107602,0
 .070911\H,0,-1.364762,-0.920064,-0.359928\H,0,-1.401566,0.325563,-1.60
 7823\H,0,-3.619448,1.095708,-0.861713\H,0,-3.692707,-0.644254,-1.18761
 1\H,0,-1.454052,1.263343,3.859655\H,0,-1.511949,2.696749,2.857806\H,0,
 0.837397,0.735958,3.144737\H,0,0.784012,2.434701,3.594724\H,0,0.499553
 ,3.042467,1.180003\H,0,0.657104,0.017497,0.928974\H,0,2.853975,1.19832
 5,1.711009\H,0,3.032837,0.268782,-0.495439\H,0,2.919654,1.278104,-1.94
 2754\H,0,0.59426,1.813682,-1.524269\H,0,0.799212,0.075003,-1.431131\H,
 0,3.226348,3.027418,3.24824\H,0,2.625127,4.206523,2.10334\H,0,5.366302
 ,3.010313,2.16711\H,0,4.809549,4.380742,1.213311\H,0,4.843041,1.464951
 ,0.472602\H,0,2.862855,4.567557,-0.189798\H,0,2.839918,3.728014,-1.744
 635\H,0,1.394219,3.750775,-0.727054\H,0,5.013765,2.576998,-1.622268\\V
 ersion=ES64L-G16RevC.01\State=1-A\HF=-11902.3353558\RMSD=3.256e-09\Dip
 ole=0.1782376,-5.7706912,-8.2835753\Quadrupole=-60.0652202,-46.1813852
 ,106.2466054,89.8087882,-8.8043356,114.0087083\PG=C01 [X(C182H311N18O2
 4S5)]\\@
 The archive entry for this job was punched.


 I KNOW YOU BELIEVE YOU UNDERSTAND WHAT YOU THINK I SAID,
 BUT I AM NOT SURE YOU REALIZE THAT WHAT YOU HEARD IS NOT WHAT I MEANT.
 Job cpu time:       0 days  8 hours 42 minutes 19.2 seconds.
 Elapsed time:       0 days  0 hours 44 minutes 17.2 seconds.
 File lengths (MBytes):  RWF=   8905 Int=      0 D2E=      0 Chk=    954 Scr=      1
 Normal termination of Gaussian 16 at Thu Aug  8 00:32:40 2024.
