 Entering Gaussian System, Link 0=g16
 Initial command:
 /cm/shared/apps/spack/cpu/opt/spack/linux-centos8-zen/gcc-8.3.1/gaussian-16.C.01-po5bqktfeugvmjyga3v7eigbecnokxng/g16/l1.exe "/scratch/hklem/job_32849654/Gau-686907.inp" -scrdir="/scratch/hklem/job_32849654/"
 Entering Link 1 = /cm/shared/apps/spack/cpu/opt/spack/linux-centos8-zen/gcc-8.3.1/gaussian-16.C.01-po5bqktfeugvmjyga3v7eigbecnokxng/g16/l1.exe PID=    686926.
  
 Copyright (c) 1988-2019, Gaussian, Inc.  All Rights Reserved.
  
 This is part of the Gaussian(R) 16 program.  It is based on
 the Gaussian(R) 09 system (copyright 2009, Gaussian, Inc.),
 the Gaussian(R) 03 system (copyright 2003, Gaussian, Inc.),
 the Gaussian(R) 98 system (copyright 1998, Gaussian, Inc.),
 the Gaussian(R) 94 system (copyright 1995, Gaussian, Inc.),
 the Gaussian 92(TM) system (copyright 1992, Gaussian, Inc.),
 the Gaussian 90(TM) system (copyright 1990, Gaussian, Inc.),
 the Gaussian 88(TM) system (copyright 1988, Gaussian, Inc.),
 the Gaussian 86(TM) system (copyright 1986, Carnegie Mellon
 University), and the Gaussian 82(TM) system (copyright 1983,
 Carnegie Mellon University). Gaussian is a federally registered
 trademark of Gaussian, Inc.
  
 This software contains proprietary and confidential information,
 including trade secrets, belonging to Gaussian, Inc.
  
 This software is provided under written license and may be
 used, copied, transmitted, or stored only in accord with that
 written license.
  
 The following legend is applicable only to US Government
 contracts under FAR:
  
                    RESTRICTED RIGHTS LEGEND
  
 Use, reproduction and disclosure by the US Government is
 subject to restrictions as set forth in subparagraphs (a)
 and (c) of the Commercial Computer Software - Restricted
 Rights clause in FAR 52.227-19.
  
 Gaussian, Inc.
 340 Quinnipiac St., Bldg. 40, Wallingford CT 06492
  
  
 ---------------------------------------------------------------
 Warning -- This program may not be used in any manner that
 competes with the business of Gaussian, Inc. or will provide
 assistance to any competitor of Gaussian, Inc.  The licensee
 of this program is prohibited from giving any competitor of
 Gaussian, Inc. access to this program.  By using this program,
 the user acknowledges that Gaussian, Inc. is engaged in the
 business of creating and licensing software in the field of
 computational chemistry and represents and warrants to the
 licensee that it is not a competitor of Gaussian, Inc. and that
 it will not use this program in any manner prohibited above.
 ---------------------------------------------------------------
  

 Cite this work as:
 Gaussian 16, Revision C.01,
 M. J. Frisch, G. W. Trucks, H. B. Schlegel, G. E. Scuseria, 
 M. A. Robb, J. R. Cheeseman, G. Scalmani, V. Barone, 
 G. A. Petersson, H. Nakatsuji, X. Li, M. Caricato, A. V. Marenich, 
 J. Bloino, B. G. Janesko, R. Gomperts, B. Mennucci, H. P. Hratchian, 
 J. V. Ortiz, A. F. Izmaylov, J. L. Sonnenberg, D. Williams-Young, 
 F. Ding, F. Lipparini, F. Egidi, J. Goings, B. Peng, A. Petrone, 
 T. Henderson, D. Ranasinghe, V. G. Zakrzewski, J. Gao, N. Rega, 
 G. Zheng, W. Liang, M. Hada, M. Ehara, K. Toyota, R. Fukuda, 
 J. Hasegawa, M. Ishida, T. Nakajima, Y. Honda, O. Kitao, H. Nakai, 
 T. Vreven, K. Throssell, J. A. Montgomery, Jr., J. E. Peralta, 
 F. Ogliaro, M. J. Bearpark, J. J. Heyd, E. N. Brothers, K. N. Kudin, 
 V. N. Staroverov, T. A. Keith, R. Kobayashi, J. Normand, 
 K. Raghavachari, A. P. Rendell, J. C. Burant, S. S. Iyengar, 
 J. Tomasi, M. Cossi, J. M. Millam, M. Klene, C. Adamo, R. Cammi, 
 J. W. Ochterski, R. L. Martin, K. Morokuma, O. Farkas, 
 J. B. Foresman, and D. J. Fox, Gaussian, Inc., Wallingford CT, 2019.
 
 ******************************************
 Gaussian 16:  ES64L-G16RevC.01  3-Jul-2019
                 7-Aug-2024 
 ******************************************
 %nprocshared=12
 Will use up to   12 processors via shared memory.
 %mem=24GB
 --------------------------
 # 6-31G(d) wb97xd prop=efg
 --------------------------
 1/38=1,172=1/1;
 2/12=2,17=6,18=5,40=1/2;
 3/5=1,6=6,7=1,11=2,25=1,30=1,74=-58/1,2,3;
 4//1;
 5/5=2,38=5/2;
 6/7=2,8=2,9=2,10=2,14=1,28=1/1,2;
 99/5=1,9=1/99;
 ------------------------------------------
 19nt_mm_min_distance_cutoff5_optimized_efg
 ------------------------------------------
 Symbolic Z-matrix:
 Charge = -1 Multiplicity = 1
 H                    0     9.60353  -6.30616  -2.273 
 C                    -1    8.72866  -5.97762  -1.69456 
 H                    0     8.25831  -6.86734  -1.2702 
 C                    0     9.17976  -5.03494  -0.56715 
 H                    0     9.96727  -5.54069   0.00364 
 H                    0     9.64071  -4.12897  -0.98163 
 C                    0     8.03802  -4.66414   0.34382 
 C                    0     7.72618  -5.42958   1.46845 
 H                    0     8.3562   -6.27598   1.73346 
 C                    0     6.61797  -5.13874   2.25261 
 H                    0     6.36888  -5.74216   3.1194 
 C                    0     5.79449  -4.06688   1.91277 
 O                    0     4.69315  -3.83608   2.68453 
 H                    0     4.22842  -3.03883   2.33798 
 C                    0     6.09304  -3.28487   0.79865 
 H                    0     5.45701  -2.44809   0.53332 
 C                    0     7.20665  -3.59211   0.03022 
 H                    0     7.42115  -2.99274  -0.84794 
 C                    0     7.70258  -5.41052  -2.69249 
 O                    0     6.69139  -6.03332  -2.98032 
 N                    -1    7.99946  -4.20772  -3.27514 
 H                    0     8.88906  -3.77612  -3.07288 
 C                    -1    7.19647  -3.63849  -4.35488 
 H                    0     6.18228  -4.02265  -4.22218 
 C                    0     7.19654  -2.10344  -4.37891 
 H                    0     8.23043  -1.76888  -4.55714 
 C                    0     6.35207  -1.62879  -5.56734 
 H                    0     6.3408   -0.53463  -5.61914 
 H                    0     5.31459  -1.96903  -5.47673 
 H                    0     6.74399  -2.01179  -6.51667 
 C                    0     6.73716  -1.45065  -3.06242 
 H                    0     7.5023   -1.61556  -2.29487 
 H                    0     6.70874  -0.36374  -3.20914 
 C                    0     5.38027  -1.91993  -2.54 
 H                    -1    5.10237  -1.34474  -1.65057 
 H                    0     5.39243  -2.98128  -2.26904 
 H                    0     4.58687  -1.76703  -3.28052 
 H                    0     7.55272  -4.01585  -5.32432 
 H                    0     3.59532  -6.90553  -4.02894 
 C                    -1    2.79081  -6.16421  -3.97927 
 H                    0     1.91328  -6.64663  -3.53183 
 C                    0     3.23142  -4.95299  -3.14728 
 H                    0     4.14636  -4.55775  -3.60813 
 C                    0     2.17982  -3.84068  -3.16527 
 H                    -1    1.93479  -3.53183  -4.18811 
 H                    0     1.2508   -4.17177  -2.68639 
 H                    0     2.53554  -2.95579  -2.62363 
 C                    0     3.57913  -5.36183  -1.71391 
 H                    0     3.92607  -4.50084  -1.12889 
 H                    0     4.38385  -6.10263  -1.70201 
 H                    0     2.70504  -5.78445  -1.20043 
 H                    -1    2.53096  -5.86963  -5.00333 
 H                    0    -0.49697   1.82638   8.4909 
 C                    -1   -0.65579   2.00813   7.42059 
 H                    0     0.01899   2.81529   7.12429 
 C                    0    -0.33283   0.73564   6.63892 
 H                    0    -1.0094   -0.06      6.9712 
 H                    0     0.68556   0.39632   6.85492 
 C                    0    -0.50663   0.83228   5.11514 
 O                    0    -1.19926   1.79567   4.65789 
 O                    0     0.01185  -0.08292   4.43459 
 C                    0    -2.12293   2.39019   7.2464 
 O                    0    -3.00383   1.54417   7.36348 
 N                    -1   -2.42752   3.69607   7.02204 
 C                    0    -3.82111   4.09243   6.84223 
 H                    0    -4.18998   3.75867   5.86379 
 H                    0    -4.44512   3.62406   7.60685 
 C                    0    -3.76998   5.6174    6.93213 
 H                    -1   -4.59133   6.09213   6.38897 
 H                    0    -3.82413   5.9329    7.98141 
 C                    -1   -2.39698   5.95822   6.34089 
 H                    0    -2.01483   6.92959   6.66766 
 H                    0    -2.45565   5.97024   5.24935 
 C                    -1   -1.49721   4.80236   6.7998 
 H                    0    -0.75679   4.55044   6.03474 
 H                    0    -0.96403   5.05211   7.72782 
 H                    0    -2.26397  -8.31524   2.8782 
 C                    -1   -2.70325  -7.31718   2.7731 
 H                    0    -2.49742  -6.76415   3.69532 
 C                    0    -2.1194   -6.58225   1.56581 
 H                    0    -2.37217  -7.13593   0.65051 
 H                    0    -2.57644  -5.58925   1.48878 
 C                    -1   -0.62059  -6.44529   1.67907 
 C                    0     0.21739  -7.50989   1.33311 
 H                    0    -0.22018  -8.41715   0.91925 
 C                    0     1.5913   -7.43875   1.49726 
 H                    0     2.23944  -8.26258   1.21653 
 C                    -1    2.16966  -6.28808   2.04244 
 O                    0     3.50602  -6.28228   2.21374 
 H                    -1    3.80516  -5.39707   2.50139 
 C                    0     1.3472   -5.21515   2.39771 
 H                    0     1.78509  -4.32646   2.8461 
 C                    0    -0.03115  -5.29714   2.20858 
 H                    0    -0.66109  -4.45643   2.49239 
 H                    0    -3.7915   -7.43723   2.6813 
 H                    0    -7.20755  -7.31448   2.80194 
 C                    -1   -8.01354  -6.95031   2.15197 
 H                    0    -8.4123   -7.8056    1.59812 
 C                    0    -9.12338  -6.30041   2.98446 
 H                    0    -9.9256   -5.9815    2.31156 
 H                    -1   -8.73145  -5.39357   3.46334 
 C                    -1   -9.68004  -7.25717   4.04643 
 H                    0    -10.0628  -8.16447   3.57223 
 H                    -1   -8.88159  -7.54805   4.74163 
 C                    0    -10.84127  -6.64171   4.81594 
 O                    0    -12.00004  -6.96972   4.63677 
 N                    0    -10.4862  -5.68239   5.72121 
 H                    0    -9.54377  -5.33586   5.79849 
 H                    0    -11.22223  -5.16276   6.17422 
 C                    -1   -7.48687  -5.94032   1.11163 
 O                    0    -8.19541  -5.5588    0.19631 
 N                    0    -6.19981  -5.45946   1.25393 
 H                    0    -5.70335  -5.652     2.11195 
 C                    -1   -5.7655   -4.28888   0.48747 
 H                    -1   -4.85898  -3.87301   0.94653 
 H                    0    -6.54511  -3.52606   0.49412 
 C                    0    -5.4053   -4.57717  -0.97013 
 O                    0    -5.48086  -3.66436  -1.81 
 N                    0    -4.94322  -5.80193  -1.25713 
 H                    -1   -4.92492  -6.45759  -0.48694 
 C                    -1   -4.39743  -6.22865  -2.54793 
 H                    0    -4.52421  -5.38929  -3.23279 
 C                    0    -2.93022  -6.64056  -2.44004 
 H                    0    -2.85901  -7.55203  -1.82894 
 H                    0    -2.58777  -6.92047  -3.4462 
 C                    0    -1.98548  -5.58201  -1.85614 
 H                    0    -2.32149  -5.35972  -0.83599 
 C                    0    -0.56781  -6.14863  -1.78009 
 H                    0     0.09567  -5.48954  -1.21092 
 H                    -1   -0.54712  -7.12494  -1.28615 
 H                    0    -0.1497   -6.26722  -2.78706 
 C                    0    -2.00224  -4.27254  -2.64598 
 H                    0    -1.78266  -4.45061  -3.70633 
 H                    -1   -2.96478  -3.75581  -2.57074 
 H                    -1   -1.23288  -3.59259  -2.26557 
 H                    0    -5.00078  -7.06092  -2.92688 
 H                    0    -3.9536   -4.16218  -7.8669 
 C                    -1   -3.55842  -3.20001  -7.52131 
 H                    0    -4.26589  -2.42081  -7.82705 
 C                    0    -3.37468  -3.19497  -6.00222 
 H                    0    -2.68854  -4.01277  -5.74164 
 C                    0    -2.74575  -1.88733  -5.51394 
 H                    -1   -1.78825  -1.69132  -6.0095 
 H                    0    -3.40319  -1.03558  -5.72895 
 H                    0    -2.56248  -1.91542  -4.43292 
 C                    0    -4.71116  -3.45324  -5.30665 
 H                    -1   -5.45933  -2.71746  -5.62348 
 H                    0    -5.1069   -4.44492  -5.5564 
 H                    -1   -4.61772  -3.39041  -4.21615 
 H                    0    -2.61044  -3.0171   -8.03996 
 H                    0     2.63125  -1.53549  -8.60095 
 C                    -1    2.87242  -1.06877  -7.64016 
 H                    -1    2.26558  -0.16124  -7.54708 
 C                    0     2.61034  -2.02262  -6.47647 
 H                    0     2.84582  -1.55134  -5.51602 
 H                    0     3.21647  -2.93185  -6.55683 
 H                    0     1.55863  -2.32764  -6.44066 
 H                    -1    3.92481  -0.76542  -7.66975 
 H                    0     11.61895   4.09994   0.39482 
 C                    -1    11.29588   4.02238  -0.64936 
 H                    -1    12.10918   4.3916   -1.28229 
 C                    0     10.93616   2.57865  -1.00735 
 H                    0     11.81766   1.93907  -0.87703 
 H                    0     10.65614   2.51574  -2.06595 
 C                    0     9.79241   2.03222  -0.15316 
 H                    -1    8.87105   2.59672  -0.34179 
 H                    0     10.03387   2.13442   0.91223 
 S                    0     9.50386   0.27015  -0.5191 
 C                    0     8.15939  -0.06489   0.64961 
 H                    -1    8.43238   0.26668   1.65527 
 H                    0     7.23045   0.41776   0.33646 
 H                    -1    7.99972  -1.14426   0.68217 
 H                    0     10.43627   4.68908  -0.78303 
 H                    0     7.09709   4.88405  -4.0141 
 C                    -1    6.54697   4.45049  -4.85598 
 H                    -1    7.0484    4.75155  -5.78187 
 C                    -1    6.48083   2.9199   -4.74041 
 H                    0     5.95599   2.51331  -5.61314 
 H                    0     7.50009   2.51347  -4.77406 
 C                    -1    5.7967    2.44407  -3.47658 
 C                    0     4.54717   1.81933  -3.51282 
 H                    0     4.05661   1.66094  -4.47164 
 C                    0     3.92251   1.39606  -2.34021 
 H                    0     2.94709   0.91827  -2.38861 
 C                    0     4.53821   1.59575  -1.10878 
 H                    0     4.06064   1.28475  -0.18532 
 C                    0     5.77853   2.22862  -1.05916 
 H                    0     6.23642   2.41823  -0.09263 
 C                    0     6.40347   2.63892  -2.23144 
 H                    -1    7.37641   3.12493  -2.18404 
 H                    -1    5.54073   4.88213  -4.85141 
 H                    0     1.23716   2.35413  -6.38003 
 C                    -1    0.16105   2.15891  -6.27839 
 H                    0    -0.12198   1.40169  -7.01767 
 C                    0    -0.16579   1.69484  -4.85573 
 H                    -1   -1.2468    1.49611  -4.80805 
 C                    0     0.56045   0.38893  -4.52442 
 H                    0     1.64899   0.53319  -4.55699 
 H                    0     0.30974  -0.40039  -5.24198 
 H                    0     0.30008   0.02638  -3.5233 
 C                    -1    0.16835   2.78566  -3.83478 
 H                    0     1.24746   2.98857  -3.82024 
 H                    0    -0.12562   2.49427  -2.8202 
 H                    0    -0.34624   3.72397  -4.07377 
 H                    -1   -0.37452   3.08149  -6.52754 
 H                    -1   -5.66909   1.43961  -9.21216 
 C                    -1   -6.15698   0.70559  -8.56193 
 H                    0    -6.40388  -0.17243  -9.16781 
 C                    0    -5.26246   0.31245  -7.38532 
 H                    0    -4.34101  -0.15022  -7.75997 
 H                    0    -5.77404  -0.43823  -6.77223 
 C                    0    -4.89294   1.4567   -6.44219 
 H                    0    -5.79421   1.98645  -6.11412 
 H                    -1   -4.41022   1.0528   -5.54593 
 S                    0    -3.73116   2.63388  -7.21262 
 C                    0    -3.35492   3.64696  -5.75758 
 H                    -1   -4.23897   4.18209  -5.39739 
 H                    0    -2.94762   3.03481  -4.94567 
 H                    0    -2.59869   4.37863  -6.05154 
 H                    0    -7.0957    1.14519  -8.20629 
 H                    0    -2.56292   6.77782  -5.60331 
 C                    -1   -1.71174   6.93415  -4.93109 
 H                    0    -1.5742    8.01594  -4.82853 
 C                    0    -1.95232   6.26102  -3.58069 
 H                    0    -2.16131   5.19464  -3.74129 
 H                    0    -2.86027   6.67572  -3.12488 
 C                    0    -0.80822   6.38169  -2.56396 
 H                    0     0.09882   5.9531   -3.01831 
 C                    0    -0.51009   7.83605  -2.1916 
 H                    0    -0.22596   8.43933  -3.06063 
 H                    0    -1.39007   8.30196  -1.72815 
 H                    0     0.31447   7.88612  -1.47168 
 C                    0    -1.14569   5.57239  -1.3121 
 H                    0    -1.31329   4.51773  -1.55756 
 H                    0    -2.05484   5.9545   -0.83116 
 H                    -1   -0.34568   5.61723  -0.56721 
 H                    0    -0.81639   6.52894  -5.41895 
 H                    0     2.75842   6.46631  -1.96935 
 C                    -1    3.25018   6.4389   -0.98918 
 H                    0     2.60017   6.96493  -0.27762 
 C                    -1    3.49426   4.99845  -0.53248 
 H                    0     4.13602   4.50775  -1.27658 
 C                    0     4.21713   4.96219   0.81614 
 H                    0     4.39335   3.93444   1.15165 
 H                    0     5.18545   5.47559   0.76274 
 H                    0     3.61452   5.46689   1.58447 
 C                    -1    2.18285   4.21813  -0.45564 
 H                    0     2.36642   3.16745  -0.20617 
 H                    -1    1.64142   4.24732  -1.40939 
 H                    0     1.52418   4.6348    0.31864 
 H                    0     4.18931   6.99996  -1.06431 
 H                    0     7.67887   3.00692   2.06105 
 C                    -1    7.22546   3.14156   3.05004 
 H                    0     6.35953   3.79796   2.93264 
 C                    0     6.80483   1.8054    3.64421 
 H                    0     7.64862   1.11754   3.75568 
 H                    0     6.37732   1.94358   4.64578 
 C                    0     5.72604   1.13261   2.83215 
 O                    0     4.91559   1.73867   2.15474 
 O                    0     5.74575  -0.18809   2.93976 
 H                    0     4.9534   -0.56141   2.47074 
 H                    -1    7.95774   3.63859   3.69362 
 H                    0     7.10619  -1.28504   9.4382 
 C                    -1    6.87286  -0.70484   8.53926 
 H                    0     7.77676  -0.15739   8.24578 
 C                    0     6.39387  -1.61048   7.40342 
 H                    0     7.18115  -2.33821   7.16344 
 H                    0     5.52022  -2.1888    7.72726 
 C                    0     6.05139  -0.84582   6.12278 
 H                    0     6.8666   -0.15563   5.87669 
 H                    0     5.95161  -1.52145   5.26858 
 S                    0     4.52278   0.15721   6.19869 
 C                    0     3.34309  -0.98839   5.42406 
 H                    0     3.20161  -1.88283   6.03669 
 H                    0     3.69734  -1.27595   4.43067 
 H                    0     2.37886  -0.48269   5.30869 
 H                    -1    6.10237   0.02908   8.7998 
 H                    0     3.1272    4.54588   5.90325 
 C                    -1    3.34745   3.80552   5.1263 
 H                    0     4.32555   3.36445   5.34666 
 C                    0     2.27569   2.72104   5.0679 
 H                    -1    2.47067   2.00722   4.26149 
 H                    0     1.2762    3.13842   4.90856 
 H                    0     2.24139   2.15484   6.00476 
 H                    -1    3.43461   4.33447   4.16981 
 H                    0     0.55654   8.59702   3.76133 
 C                    -1    0.28709   8.73145   2.70849 
 H                    0     0.87513   9.56181   2.30191 
 C                    0     0.54339   7.43561   1.9177 
 H                    0     0.31778   7.61954   0.85759 
 H                    0     1.61181   7.18909   1.9638 
 C                    0    -0.2556    6.26007   2.40087 
 C                    0     0.20929   5.13543   3.03606 
 H                    0     1.22868   4.86451   3.27883 
 N                    0    -0.82982   4.3029    3.37537 
 H                    0    -0.77992   3.38362   3.82744 
 C                    0    -2.00059   4.8754    2.94942 
 C                    -1   -3.3139    4.41182   3.06851 
 H                    0    -3.52467   3.46019   3.54299 
 C                    0    -4.32288   5.20095   2.54669 
 H                    0    -5.34521   4.84205   2.61148 
 C                    0    -4.03192   6.42575   1.91188 
 H                    0    -4.84621   7.02011   1.50708 
 C                    0    -2.72983   6.88356   1.79879 
 H                    0    -2.51807   7.82715   1.30037 
 C                    0    -1.68508   6.10729   2.32865 
 H                    -1   -0.77139   9.00882   2.67105 
 H                    0    -3.94719   11.07605  -4.65545 
 C                    -1   -4.72126   10.35447  -4.37345 
 H                    0    -4.8998    9.70872  -5.23967 
 C                    0    -4.29495   9.54813  -3.14465 
 H                    0    -4.00361   10.24318  -2.34573 
 H                    -1   -3.39465   8.96458  -3.38294 
 C                    0    -5.37251   8.60083  -2.59381 
 H                    0    -6.26575   9.20722  -2.37909 
 C                    0    -5.7745    7.52303  -3.60616 
 H                    0    -4.90483   6.92571  -3.90735 
 H                    0    -6.51287   6.83898  -3.17343 
 H                    0    -6.21309   7.95501  -4.51178 
 C                    0    -4.91493   7.96494  -1.27762 
 H                    0    -4.01739   7.35083  -1.41722 
 H                    0    -4.67612   8.72852  -0.52792 
 H                    0    -5.69045   7.31361  -0.86015 
 H                    0    -5.64454   10.9123  -4.17551 
 C                    0     2.66362  -1.14449   1.23679 
 O                    0     3.72338  -1.50027   1.79676 
 C                    0     2.15385   0.18619   1.38263 
 C                    0     0.89659   0.51197   0.98624 
 C                    0     0.04052  -0.45415   0.20233 
 C                    -1    0.90864  -1.48938  -0.51673 
 C                    0     1.86914  -2.15512   0.45849 
 C                    0     0.28638   1.79145   1.46454 
 C                    0    -0.69921   2.41485   0.47963 
 C                    0    -1.71235   1.3612    0.0463 
 C                    0    -0.98      0.2412   -0.72266 
 C                    0    -2.85558   1.90145  -0.79587 
 C                    0    -3.86551   0.79474  -1.1668 
 C                    0    -3.15124  -0.21938  -2.05916 
 C                    0    -1.92081  -0.80554  -1.35415 
 C                    0    -3.73099   3.01269  -0.21253 
 C                    0    -5.01516   2.96277  -1.07104 
 C                    0    -4.95001   1.63569  -1.8683 
 C                    0    -4.45296   0.09238   0.06905 
 O                    0    -6.23372   1.01191  -1.96936 
 H                    0     2.75742   0.8815    1.95813 
 H                    -1   -0.56259  -0.9616    0.97655 
 H                    0     1.47271  -1.00077  -1.32442 
 H                    0     0.29001  -2.25981  -0.98618 
 H                    0     1.29907  -2.74732   1.18825 
 H                    0     2.55786  -2.85056  -0.03332 
 H                    0     1.07221   2.49472   1.75886 
 H                    0    -0.25032   1.52596   2.39158 
 H                    0    -0.16636   2.81105  -0.39519 
 H                    0    -1.19723   3.26193   0.96078 
 H                    0    -2.13593   0.94291   0.96615 
 H                    0    -0.42908   0.73129  -1.54253 
 H                    0    -2.4289    2.27396  -1.74665 
 H                    0    -2.84061   0.27677  -2.99272 
 H                    0    -3.82465  -1.04524  -2.33452 
 H                    0    -2.25898  -1.50276  -0.57688 
 H                    0    -1.36037  -1.39984  -2.08441 
 H                    0    -3.25058   3.99323  -0.22775 
 H                    0    -3.95304   2.79969   0.83635 
 H                    0    -5.08102   3.81518  -1.75484 
 H                    0    -5.91184   2.98728  -0.44834 
 H                    0    -4.60766   1.84682  -2.89289 
 H                    0    -5.08506   0.75534   0.66346 
 H                    -1   -5.06499  -0.75786  -0.2368 
 H                    0    -3.68469  -0.30507   0.73157 
 H                    0    -6.27921   0.58561  -2.85571 
 O                    0    -1.78976  -1.18403   2.67206 
 H                    0    -2.43755  -0.44961   2.74771 
 H                    0    -1.07199  -0.90812   3.29141 
 O                    0    -7.13574  -1.5473   -1.18787 
 H                    0    -6.41374  -2.19672  -1.34142 
 H                    0    -6.74721  -0.67057  -1.39773 
 O                    -1   -2.76211  -3.26531   1.24918 
 H                    0    -2.44507  -2.5689    1.87583 
 H                    0    -2.0146   -3.39384   0.65412 
 O                    0    -7.57468   1.49303   0.61916 
 H                    0    -7.28222   1.38585  -0.30084 
 H                    0    -7.52829   0.59543   0.99912 
 O                    0    -7.37581  -1.21491   1.47842 
 H                    0    -7.34302  -1.42824   0.51471 
 H                    0    -8.25805  -1.46803   1.77326 
 O                    0    -5.86474  -0.20686   3.79492 
 H                    0    -6.10683  -0.68444   2.98566 
 H                    0    -6.16368   0.70705   3.60669 
 O                    0    -5.97336   2.34658   2.75109 
 H                    0    -6.43563   2.22396   1.89722 
 H                    0    -5.04148   2.10899   2.60233 
 O                    0    -7.52351  -2.72766  -3.67622 
 H                    0    -6.87121  -3.37108  -3.35537 
 H                    -1   -7.84789  -2.33922  -2.84292 
 O                    0    -6.00117  -0.52416  -4.18728 
 H                    0    -6.56974  -1.33008  -4.10153 
 H                    0    -5.09796  -0.85508  -4.10503 
 O                    0    -3.43511   0.96701   3.18369 
 H                    0    -2.76867   1.28889   3.83295 
 H                    0    -4.13121   0.46631   3.66518 
 
 Stoichiometry    C123H245N6O23S3(1-)
 Framework group  C1[X(C123H245N6O23S3)]
 Deg. of freedom  1194
 Full point group                 C1      NOp   1
 Largest Abelian subgroup         C1      NOp   1
 Largest concise Abelian subgroup C1      NOp   1
                         Standard orientation:                         
 ---------------------------------------------------------------------
 Center     Atomic      Atomic             Coordinates (Angstroms)
 Number     Number       Type             X           Y           Z
 ---------------------------------------------------------------------
      1          1           0        9.603532   -6.306163   -2.273003
      2          6           0        8.728658   -5.977622   -1.694562
      3          1           0        8.258314   -6.867340   -1.270204
      4          6           0        9.179764   -5.034938   -0.567148
      5          1           0        9.967272   -5.540691    0.003637
      6          1           0        9.640706   -4.128970   -0.981626
      7          6           0        8.038021   -4.664142    0.343817
      8          6           0        7.726183   -5.429581    1.468446
      9          1           0        8.356197   -6.275980    1.733455
     10          6           0        6.617969   -5.138743    2.252611
     11          1           0        6.368883   -5.742155    3.119404
     12          6           0        5.794487   -4.066879    1.912772
     13          8           0        4.693154   -3.836084    2.684534
     14          1           0        4.228423   -3.038830    2.337980
     15          6           0        6.093044   -3.284874    0.798649
     16          1           0        5.457009   -2.448091    0.533317
     17          6           0        7.206653   -3.592107    0.030217
     18          1           0        7.421151   -2.992740   -0.847936
     19          6           0        7.702576   -5.410517   -2.692491
     20          8           0        6.691390   -6.033322   -2.980324
     21          7           0        7.999460   -4.207719   -3.275140
     22          1           0        8.889060   -3.776119   -3.072885
     23          6           0        7.196471   -3.638489   -4.354879
     24          1           0        6.182281   -4.022649   -4.222179
     25          6           0        7.196538   -2.103438   -4.378910
     26          1           0        8.230430   -1.768881   -4.557139
     27          6           0        6.352069   -1.628788   -5.567337
     28          1           0        6.340796   -0.534631   -5.619139
     29          1           0        5.314592   -1.969034   -5.476727
     30          1           0        6.743995   -2.011793   -6.516670
     31          6           0        6.737161   -1.450652   -3.062418
     32          1           0        7.502302   -1.615562   -2.294869
     33          1           0        6.708739   -0.363738   -3.209138
     34          6           0        5.380265   -1.919928   -2.540002
     35          1           0        5.102371   -1.344740   -1.650574
     36          1           0        5.392433   -2.981276   -2.269044
     37          1           0        4.586870   -1.767027   -3.280525
     38          1           0        7.552715   -4.015854   -5.324315
     39          1           0        3.595320   -6.905530   -4.028940
     40          6           0        2.790813   -6.164213   -3.979266
     41          1           0        1.913281   -6.646632   -3.531831
     42          6           0        3.231416   -4.952994   -3.147275
     43          1           0        4.146356   -4.557753   -3.608126
     44          6           0        2.179820   -3.840679   -3.165266
     45          1           0        1.934786   -3.531833   -4.188106
     46          1           0        1.250800   -4.171769   -2.686389
     47          1           0        2.535543   -2.955786   -2.623632
     48          6           0        3.579125   -5.361825   -1.713913
     49          1           0        3.926069   -4.500839   -1.128893
     50          1           0        4.383850   -6.102632   -1.702014
     51          1           0        2.705044   -5.784453   -1.200431
     52          1           0        2.530959   -5.869633   -5.003326
     53          1           0       -0.496965    1.826376    8.490898
     54          6           0       -0.655792    2.008127    7.420589
     55          1           0        0.018991    2.815288    7.124293
     56          6           0       -0.332826    0.735638    6.638920
     57          1           0       -1.009403   -0.060003    6.971195
     58          1           0        0.685560    0.396319    6.854918
     59          6           0       -0.506625    0.832280    5.115136
     60          8           0       -1.199261    1.795673    4.657892
     61          8           0        0.011847   -0.082921    4.434586
     62          6           0       -2.122934    2.390186    7.246402
     63          8           0       -3.003831    1.544169    7.363476
     64          7           0       -2.427522    3.696069    7.022044
     65          6           0       -3.821112    4.092432    6.842226
     66          1           0       -4.189978    3.758670    5.863788
     67          1           0       -4.445117    3.624062    7.606847
     68          6           0       -3.769980    5.617399    6.932125
     69          1           0       -4.591329    6.092134    6.388966
     70          1           0       -3.824125    5.932898    7.981412
     71          6           0       -2.396976    5.958221    6.340895
     72          1           0       -2.014832    6.929593    6.667663
     73          1           0       -2.455649    5.970239    5.249347
     74          6           0       -1.497207    4.802365    6.799802
     75          1           0       -0.756786    4.550435    6.034737
     76          1           0       -0.964025    5.052110    7.727815
     77          1           0       -2.263972   -8.315240    2.878197
     78          6           0       -2.703250   -7.317180    2.773103
     79          1           0       -2.497422   -6.764147    3.695319
     80          6           0       -2.119401   -6.582246    1.565812
     81          1           0       -2.372169   -7.135925    0.650513
     82          1           0       -2.576438   -5.589253    1.488782
     83          6           0       -0.620589   -6.445286    1.679067
     84          6           0        0.217392   -7.509889    1.333108
     85          1           0       -0.220181   -8.417146    0.919254
     86          6           0        1.591299   -7.438753    1.497260
     87          1           0        2.239445   -8.262581    1.216525
     88          6           0        2.169655   -6.288084    2.042439
     89          8           0        3.506020   -6.282285    2.213744
     90          1           0        3.805161   -5.397067    2.501389
     91          6           0        1.347195   -5.215147    2.397710
     92          1           0        1.785094   -4.326463    2.846102
     93          6           0       -0.031145   -5.297141    2.208579
     94          1           0       -0.661085   -4.456435    2.492387
     95          1           0       -3.791502   -7.437233    2.681299
     96          1           0       -7.207545   -7.314478    2.801935
     97          6           0       -8.013538   -6.950312    2.151974
     98          1           0       -8.412302   -7.805595    1.598115
     99          6           0       -9.123378   -6.300409    2.984463
    100          1           0       -9.925603   -5.981496    2.311561
    101          1           0       -8.731448   -5.393572    3.463342
    102          6           0       -9.680038   -7.257170    4.046432
    103          1           0      -10.062804   -8.164473    3.572233
    104          1           0       -8.881590   -7.548045    4.741625
    105          6           0      -10.841269   -6.641711    4.815935
    106          8           0      -12.000038   -6.969718    4.636772
    107          7           0      -10.486201   -5.682388    5.721213
    108          1           0       -9.543772   -5.335858    5.798492
    109          1           0      -11.222234   -5.162762    6.174219
    110          6           0       -7.486871   -5.940318    1.111633
    111          8           0       -8.195413   -5.558798    0.196308
    112          7           0       -6.199813   -5.459455    1.253927
    113          1           0       -5.703351   -5.651996    2.111949
    114          6           0       -5.765497   -4.288881    0.487467
    115          1           0       -4.858984   -3.873006    0.946525
    116          1           0       -6.545107   -3.526060    0.494120
    117          6           0       -5.405299   -4.577174   -0.970133
    118          8           0       -5.480863   -3.664362   -1.810002
    119          7           0       -4.943220   -5.801925   -1.257131
    120          1           0       -4.924920   -6.457594   -0.486938
    121          6           0       -4.397425   -6.228651   -2.547934
    122          1           0       -4.524212   -5.389287   -3.232794
    123          6           0       -2.930219   -6.640564   -2.440035
    124          1           0       -2.859013   -7.552034   -1.828940
    125          1           0       -2.587773   -6.920472   -3.446197
    126          6           0       -1.985476   -5.582009   -1.856135
    127          1           0       -2.321487   -5.359718   -0.835986
    128          6           0       -0.567814   -6.148625   -1.780086
    129          1           0        0.095671   -5.489537   -1.210917
    130          1           0       -0.547115   -7.124938   -1.286146
    131          1           0       -0.149695   -6.267215   -2.787055
    132          6           0       -2.002244   -4.272536   -2.645981
    133          1           0       -1.782660   -4.450609   -3.706333
    134          1           0       -2.964783   -3.755811   -2.570743
    135          1           0       -1.232878   -3.592592   -2.265571
    136          1           0       -5.000784   -7.060920   -2.926882
    137          1           0       -3.953596   -4.162183   -7.866901
    138          6           0       -3.558423   -3.200012   -7.521310
    139          1           0       -4.265890   -2.420807   -7.827054
    140          6           0       -3.374679   -3.194965   -6.002224
    141          1           0       -2.688538   -4.012771   -5.741640
    142          6           0       -2.745754   -1.887325   -5.513936
    143          1           0       -1.788248   -1.691323   -6.009504
    144          1           0       -3.403187   -1.035576   -5.728951
    145          1           0       -2.562475   -1.915416   -4.432922
    146          6           0       -4.711163   -3.453241   -5.306654
    147          1           0       -5.459331   -2.717463   -5.623478
    148          1           0       -5.106898   -4.444922   -5.556400
    149          1           0       -4.617719   -3.390413   -4.216149
    150          1           0       -2.610440   -3.017103   -8.039961
    151          1           0        2.631246   -1.535490   -8.600948
    152          6           0        2.872421   -1.068769   -7.640162
    153          1           0        2.265576   -0.161238   -7.547076
    154          6           0        2.610344   -2.022620   -6.476470
    155          1           0        2.845816   -1.551338   -5.516025
    156          1           0        3.216474   -2.931854   -6.556831
    157          1           0        1.558632   -2.327643   -6.440656
    158          1           0        3.924814   -0.765419   -7.669749
    159          1           0       11.618947    4.099944    0.394823
    160          6           0       11.295878    4.022385   -0.649363
    161          1           0       12.109181    4.391599   -1.282285
    162          6           0       10.936160    2.578649   -1.007351
    163          1           0       11.817655    1.939071   -0.877025
    164          1           0       10.656137    2.515741   -2.065948
    165          6           0        9.792413    2.032218   -0.153157
    166          1           0        8.871054    2.596724   -0.341791
    167          1           0       10.033871    2.134419    0.912234
    168         16           0        9.503857    0.270151   -0.519103
    169          6           0        8.159389   -0.064892    0.649611
    170          1           0        8.432382    0.266682    1.655269
    171          1           0        7.230446    0.417763    0.336455
    172          1           0        7.999717   -1.144258    0.682174
    173          1           0       10.436270    4.689081   -0.783032
    174          1           0        7.097087    4.884054   -4.014101
    175          6           0        6.546971    4.450488   -4.855980
    176          1           0        7.048399    4.751545   -5.781874
    177          6           0        6.480828    2.919900   -4.740411
    178          1           0        5.955990    2.513306   -5.613144
    179          1           0        7.500088    2.513472   -4.774057
    180          6           0        5.796702    2.444068   -3.476580
    181          6           0        4.547165    1.819333   -3.512824
    182          1           0        4.056606    1.660942   -4.471642
    183          6           0        3.922511    1.396058   -2.340211
    184          1           0        2.947090    0.918268   -2.388613
    185          6           0        4.538212    1.595751   -1.108776
    186          1           0        4.060641    1.284752   -0.185316
    187          6           0        5.778529    2.228617   -1.059162
    188          1           0        6.236418    2.418230   -0.092629
    189          6           0        6.403472    2.638918   -2.231440
    190          1           0        7.376405    3.124925   -2.184042
    191          1           0        5.540731    4.882134   -4.851408
    192          1           0        1.237156    2.354130   -6.380028
    193          6           0        0.161054    2.158915   -6.278386
    194          1           0       -0.121978    1.401685   -7.017668
    195          6           0       -0.165789    1.694840   -4.855734
    196          1           0       -1.246796    1.496107   -4.808047
    197          6           0        0.560447    0.388928   -4.524420
    198          1           0        1.648986    0.533191   -4.556991
    199          1           0        0.309736   -0.400390   -5.241984
    200          1           0        0.300076    0.026382   -3.523297
    201          6           0        0.168353    2.785661   -3.834775
    202          1           0        1.247464    2.988566   -3.820240
    203          1           0       -0.125617    2.494265   -2.820196
    204          1           0       -0.346242    3.723972   -4.073767
    205          1           0       -0.374519    3.081494   -6.527537
    206          1           0       -5.669094    1.439610   -9.212157
    207          6           0       -6.156980    0.705589   -8.561933
    208          1           0       -6.403884   -0.172432   -9.167808
    209          6           0       -5.262460    0.312451   -7.385320
    210          1           0       -4.341009   -0.150224   -7.759970
    211          1           0       -5.774041   -0.438226   -6.772230
    212          6           0       -4.892940    1.456695   -6.442194
    213          1           0       -5.794208    1.986450   -6.114118
    214          1           0       -4.410222    1.052799   -5.545925
    215         16           0       -3.731160    2.633884   -7.212622
    216          6           0       -3.354919    3.646955   -5.757582
    217          1           0       -4.238968    4.182093   -5.397391
    218          1           0       -2.947622    3.034813   -4.945670
    219          1           0       -2.598687    4.378634   -6.051537
    220          1           0       -7.095702    1.145186   -8.206289
    221          1           0       -2.562920    6.777821   -5.603307
    222          6           0       -1.711742    6.934154   -4.931093
    223          1           0       -1.574202    8.015941   -4.828526
    224          6           0       -1.952315    6.261020   -3.580693
    225          1           0       -2.161309    5.194638   -3.741288
    226          1           0       -2.860272    6.675719   -3.124875
    227          6           0       -0.808218    6.381691   -2.563958
    228          1           0        0.098819    5.953097   -3.018306
    229          6           0       -0.510092    7.836051   -2.191600
    230          1           0       -0.225960    8.439329   -3.060630
    231          1           0       -1.390073    8.301956   -1.728154
    232          1           0        0.314465    7.886122   -1.471684
    233          6           0       -1.145687    5.572387   -1.312102
    234          1           0       -1.313287    4.517728   -1.557562
    235          1           0       -2.054843    5.954499   -0.831160
    236          1           0       -0.345681    5.617233   -0.567210
    237          1           0       -0.816387    6.528944   -5.418947
    238          1           0        2.758421    6.466308   -1.969349
    239          6           0        3.250178    6.438903   -0.989175
    240          1           0        2.600167    6.964933   -0.277620
    241          6           0        3.494257    4.998446   -0.532480
    242          1           0        4.136019    4.507752   -1.276576
    243          6           0        4.217126    4.962192    0.816135
    244          1           0        4.393346    3.934436    1.151652
    245          1           0        5.185453    5.475592    0.762737
    246          1           0        3.614518    5.466893    1.584474
    247          6           0        2.182854    4.218126   -0.455636
    248          1           0        2.366422    3.167445   -0.206171
    249          1           0        1.641417    4.247322   -1.409391
    250          1           0        1.524182    4.634798    0.318636
    251          1           0        4.189307    6.999955   -1.064305
    252          1           0        7.678874    3.006916    2.061052
    253          6           0        7.225463    3.141562    3.050041
    254          1           0        6.359528    3.797963    2.932639
    255          6           0        6.804827    1.805398    3.644210
    256          1           0        7.648618    1.117537    3.755681
    257          1           0        6.377322    1.943576    4.645782
    258          6           0        5.726040    1.132611    2.832150
    259          8           0        4.915588    1.738665    2.154740
    260          8           0        5.745751   -0.188085    2.939763
    261          1           0        4.953404   -0.561408    2.470742
    262          1           0        7.957737    3.638587    3.693621
    263          1           0        7.106193   -1.285044    9.438204
    264          6           0        6.872861   -0.704835    8.539260
    265          1           0        7.776764   -0.157391    8.245779
    266          6           0        6.393868   -1.610475    7.403416
    267          1           0        7.181151   -2.338213    7.163444
    268          1           0        5.520215   -2.188800    7.727256
    269          6           0        6.051394   -0.845824    6.122777
    270          1           0        6.866602   -0.155628    5.876686
    271          1           0        5.951612   -1.521453    5.268583
    272         16           0        4.522779    0.157212    6.198687
    273          6           0        3.343094   -0.988389    5.424056
    274          1           0        3.201610   -1.882834    6.036690
    275          1           0        3.697341   -1.275954    4.430671
    276          1           0        2.378862   -0.482690    5.308685
    277          1           0        6.102372    0.029075    8.799796
    278          1           0        3.127203    4.545880    5.903248
    279          6           0        3.347452    3.805517    5.126301
    280          1           0        4.325554    3.364448    5.346661
    281          6           0        2.275689    2.721039    5.067905
    282          1           0        2.470667    2.007217    4.261485
    283          1           0        1.276197    3.138419    4.908555
    284          1           0        2.241394    2.154845    6.004760
    285          1           0        3.434613    4.334470    4.169808
    286          1           0        0.556539    8.597015    3.761329
    287          6           0        0.287092    8.731449    2.708494
    288          1           0        0.875133    9.561814    2.301908
    289          6           0        0.543386    7.435605    1.917702
    290          1           0        0.317780    7.619542    0.857590
    291          1           0        1.611805    7.189089    1.963799
    292          6           0       -0.255596    6.260069    2.400874
    293          6           0        0.209286    5.135431    3.036056
    294          1           0        1.228675    4.864513    3.278831
    295          7           0       -0.829818    4.302898    3.375369
    296          1           0       -0.779923    3.383619    3.827436
    297          6           0       -2.000586    4.875403    2.949415
    298          6           0       -3.313900    4.411824    3.068508
    299          1           0       -3.524666    3.460185    3.542988
    300          6           0       -4.322882    5.200948    2.546692
    301          1           0       -5.345210    4.842045    2.611484
    302          6           0       -4.031924    6.425753    1.911878
    303          1           0       -4.846212    7.020106    1.507081
    304          6           0       -2.729826    6.883559    1.798785
    305          1           0       -2.518071    7.827148    1.300369
    306          6           0       -1.685082    6.107288    2.328649
    307          1           0       -0.771387    9.008816    2.671049
    308          1           0       -3.947190   11.076050   -4.655453
    309          6           0       -4.721257   10.354470   -4.373454
    310          1           0       -4.899804    9.708724   -5.239667
    311          6           0       -4.294953    9.548132   -3.144646
    312          1           0       -4.003615   10.243180   -2.345731
    313          1           0       -3.394645    8.964581   -3.382939
    314          6           0       -5.372505    8.600826   -2.593812
    315          1           0       -6.265754    9.207223   -2.379088
    316          6           0       -5.774497    7.523026   -3.606164
    317          1           0       -4.904827    6.925712   -3.907349
    318          1           0       -6.512866    6.838980   -3.173432
    319          1           0       -6.213087    7.955011   -4.511778
    320          6           0       -4.914934    7.964940   -1.277619
    321          1           0       -4.017393    7.350834   -1.417216
    322          1           0       -4.676123    8.728516   -0.527923
    323          1           0       -5.690445    7.313609   -0.860146
    324          1           0       -5.644538   10.912299   -4.175507
    325          6           0        2.663617   -1.144494    1.236792
    326          8           0        3.723383   -1.500272    1.796757
    327          6           0        2.153850    0.186188    1.382627
    328          6           0        0.896593    0.511968    0.986240
    329          6           0        0.040524   -0.454147    0.202332
    330          6           0        0.908638   -1.489377   -0.516726
    331          6           0        1.869138   -2.155125    0.458494
    332          6           0        0.286380    1.791447    1.464542
    333          6           0       -0.699211    2.414846    0.479634
    334          6           0       -1.712348    1.361202    0.046296
    335          6           0       -0.980001    0.241202   -0.722655
    336          6           0       -2.855580    1.901447   -0.795873
    337          6           0       -3.865511    0.794744   -1.166801
    338          6           0       -3.151240   -0.219379   -2.059162
    339          6           0       -1.920809   -0.805540   -1.354151
    340          6           0       -3.730985    3.012694   -0.212526
    341          6           0       -5.015158    2.962774   -1.071037
    342          6           0       -4.950009    1.635688   -1.868301
    343          6           0       -4.452965    0.092384    0.069049
    344          8           0       -6.233720    1.011915   -1.969364
    345          1           0        2.757415    0.881496    1.958132
    346          1           0       -0.562590   -0.961604    0.976549
    347          1           0        1.472708   -1.000768   -1.324419
    348          1           0        0.290011   -2.259808   -0.986182
    349          1           0        1.299072   -2.747316    1.188254
    350          1           0        2.557856   -2.850558   -0.033321
    351          1           0        1.072210    2.494719    1.758857
    352          1           0       -0.250320    1.525957    2.391576
    353          1           0       -0.166358    2.811050   -0.395185
    354          1           0       -1.197232    3.261931    0.960777
    355          1           0       -2.135928    0.942910    0.966152
    356          1           0       -0.429077    0.731293   -1.542532
    357          1           0       -2.428896    2.273962   -1.746650
    358          1           0       -2.840606    0.276765   -2.992719
    359          1           0       -3.824654   -1.045237   -2.334519
    360          1           0       -2.258979   -1.502757   -0.576882
    361          1           0       -1.360374   -1.399841   -2.084408
    362          1           0       -3.250579    3.993231   -0.227746
    363          1           0       -3.953044    2.799692    0.836345
    364          1           0       -5.081021    3.815175   -1.754844
    365          1           0       -5.911842    2.987280   -0.448340
    366          1           0       -4.607663    1.846823   -2.892891
    367          1           0       -5.085059    0.755335    0.663455
    368          1           0       -5.064989   -0.757859   -0.236801
    369          1           0       -3.684689   -0.305066    0.731567
    370          1           0       -6.279210    0.585606   -2.855711
    371          8           0       -1.789762   -1.184034    2.672055
    372          1           0       -2.437545   -0.449609    2.747711
    373          1           0       -1.071993   -0.908120    3.291408
    374          8           0       -7.135740   -1.547300   -1.187870
    375          1           0       -6.413740   -2.196720   -1.341418
    376          1           0       -6.747212   -0.670571   -1.397726
    377          8           0       -2.762114   -3.265308    1.249176
    378          1           0       -2.445070   -2.568904    1.875830
    379          1           0       -2.014599   -3.393836    0.654119
    380          8           0       -7.574677    1.493030    0.619161
    381          1           0       -7.282221    1.385850   -0.300835
    382          1           0       -7.528295    0.595429    0.999119
    383          8           0       -7.375813   -1.214914    1.478422
    384          1           0       -7.343025   -1.428240    0.514708
    385          1           0       -8.258050   -1.468031    1.773258
    386          8           0       -5.864737   -0.206855    3.794917
    387          1           0       -6.106826   -0.684436    2.985657
    388          1           0       -6.163679    0.707054    3.606689
    389          8           0       -5.973362    2.346579    2.751087
    390          1           0       -6.435629    2.223964    1.897222
    391          1           0       -5.041479    2.108990    2.602330
    392          8           0       -7.523507   -2.727658   -3.676216
    393          1           0       -6.871213   -3.371082   -3.355367
    394          1           0       -7.847894   -2.339216   -2.842922
    395          8           0       -6.001173   -0.524162   -4.187278
    396          1           0       -6.569743   -1.330081   -4.101529
    397          1           0       -5.097958   -0.855081   -4.105035
    398          8           0       -3.435113    0.967012    3.183691
    399          1           0       -2.768671    1.288887    3.832948
    400          1           0       -4.131205    0.466311    3.665178
 ---------------------------------------------------------------------
 Rotational constants (GHZ):           0.0067287           0.0054152           0.0049302
 Standard basis: 6-31G(d) (6D, 7F)
 There are  2827 symmetry adapted cartesian basis functions of A   symmetry.
 There are  2827 symmetry adapted basis functions of A   symmetry.
  2827 basis functions,  5392 primitive gaussians,  2827 cartesian basis functions
   629 alpha electrons      629 beta electrons
       nuclear repulsion energy     51310.6898931168 Hartrees.
 NAtoms=  400 NActive=  400 NUniq=  400 SFac= 1.00D+00 NAtFMM=   60 NAOKFM=T Big=T
 Integral buffers will be    131072 words long.
 Raffenetti 2 integral format.
 Two-electron integral symmetry is turned on.
 Nuclear repulsion after empirical dispersion term =    51310.1660952113 Hartrees.
 One-electron integrals computed using PRISM.
 NBasis=  2827 RedAO= T EigKep=  3.41D-04  NBF=  2827
 NBsUse=  2827 1.00D-06 EigRej= -1.00D+00 NBFU=  2827
 ExpMin= 1.17D-01 ExpMax= 2.19D+04 ExpMxC= 3.30D+03 IAcc=3 IRadAn=         5 AccDes= 0.00D+00
 Harris functional with IExCor= 4639 and IRadAn=       5 diagonalized for initial guess.
 HarFok:  IExCor= 4639 AccDes= 0.00D+00 IRadAn=         5 IDoV= 1 UseB2=F ITyADJ=14
 ICtDFT=  3500011 ScaDFX=  1.000000  1.000000  1.000000  1.000000
 FoFCou: FMM=F IPFlag=           0 FMFlag=      100000 FMFlg1=        2001
         NFxFlg=           0 DoJE=T BraDBF=F KetDBF=T FulRan=T
         wScrn=  0.000000 ICntrl=       500 IOpCl=  0 I1Cent=   200000004 NGrid=           0
         NMat0=    1 NMatS0=      1 NMatT0=    0 NMatD0=    1 NMtDS0=    0 NMtDT0=    0
 Petite list used in FoFCou.
 Requested convergence on RMS density matrix=1.00D-08 within 128 cycles.
 Requested convergence on MAX density matrix=1.00D-06.
 Requested convergence on             energy=1.00D-06.
 No special actions if energy rises.
 Integral accuracy reduced to 1.0D-05 until final iterations.
 Initial convergence to 1.0D-05 achieved.  Increase integral accuracy.
 SCF Done:  E(RwB97XD) =  -8086.44973496     A.U. after   15 cycles
            NFock= 15  Conv=0.34D-08     -V/T= 2.0085
 Hyperfine terms turned off by default for NAtoms > 100.

 **********************************************************************

            Population analysis using the SCF Density.

 **********************************************************************

 Orbital symmetries:
       Occupied  (A) (A) (A) (A) (A) (A) (A) (A) (A) (A) (A) (A)
                 (A) (A) (A) (A) (A) (A) (A) (A) (A) (A) (A) (A)
                 (A) (A) (A) (A) (A) (A) (A) (A) (A) (A) (A) (A)
                 (A) (A) (A) (A) (A) (A) (A) (A) (A) (A) (A) (A)
                 (A) (A) (A) (A) (A) (A) (A) (A) (A) (A) (A) (A)
                 (A) (A) (A) (A) (A) (A) (A) (A) (A) (A) (A) (A)
                 (A) (A) (A) (A) (A) (A) (A) (A) (A) (A) (A) (A)
                 (A) (A) (A) (A) (A) (A) (A) (A) (A) (A) (A) (A)
                 (A) (A) (A) (A) (A) (A) (A) (A) (A) (A) (A) (A)
                 (A) (A) (A) (A) (A) (A) (A) (A) (A) (A) (A) (A)
                 (A) (A) (A) (A) (A) (A) (A) (A) (A) (A) (A) (A)
                 (A) (A) (A) (A) (A) (A) (A) (A) (A) (A) (A) (A)
                 (A) (A) (A) (A) (A) (A) (A) (A) (A) (A) (A) (A)
                 (A) (A) (A) (A) (A) (A) (A) (A) (A) (A) (A) (A)
                 (A) (A) (A) (A) (A) (A) (A) (A) (A) (A) (A) (A)
                 (A) (A) (A) (A) (A) (A) (A) (A) (A) (A) (A) (A)
                 (A) (A) (A) (A) (A) (A) (A) (A) (A) (A) (A) (A)
                 (A) (A) (A) (A) (A) (A) (A) (A) (A) (A) (A) (A)
                 (A) (A) (A) (A) (A) (A) (A) (A) (A) (A) (A) (A)
                 (A) (A) (A) (A) (A) (A) (A) (A) (A) (A) (A) (A)
                 (A) (A) (A) (A) (A) (A) (A) (A) (A) (A) (A) (A)
                 (A) (A) (A) (A) (A) (A) (A) (A) (A) (A) (A) (A)
                 (A) (A) (A) (A) (A) (A) (A) (A) (A) (A) (A) (A)
                 (A) (A) (A) (A) (A) (A) (A) (A) (A) (A) (A) (A)
                 (A) (A) (A) (A) (A) (A) (A) (A) (A) (A) (A) (A)
                 (A) (A) (A) (A) (A) (A) (A) (A) (A) (A) (A) (A)
                 (A) (A) (A) (A) (A) (A) (A) (A) (A) (A) (A) (A)
                 (A) (A) (A) (A) (A) (A) (A) (A) (A) (A) (A) (A)
                 (A) (A) (A) (A) (A) (A) (A) (A) (A) (A) (A) (A)
                 (A) (A) (A) (A) (A) (A) (A) (A) (A) (A) (A) (A)
                 (A) (A) (A) (A) (A) (A) (A) (A) (A) (A) (A) (A)
                 (A) (A) (A) (A) (A) (A) (A) (A) (A) (A) (A) (A)
                 (A) (A) (A) (A) (A) (A) (A) (A) (A) (A) (A) (A)
                 (A) (A) (A) (A) (A) (A) (A) (A) (A) (A) (A) (A)
                 (A) (A) (A) (A) (A) (A) (A) (A) (A) (A) (A) (A)
                 (A) (A) (A) (A) (A) (A) (A) (A) (A) (A) (A) (A)
                 (A) (A) (A) (A) (A) (A) (A) (A) (A) (A) (A) (A)
                 (A) (A) (A) (A) (A) (A) (A) (A) (A) (A) (A) (A)
                 (A) (A) (A) (A) (A) (A) (A) (A) (A) (A) (A) (A)
                 (A) (A) (A) (A) (A) (A) (A) (A) (A) (A) (A) (A)
                 (A) (A) (A) (A) (A) (A) (A) (A) (A) (A) (A) (A)
                 (A) (A) (A) (A) (A) (A) (A) (A) (A) (A) (A) (A)
                 (A) (A) (A) (A) (A) (A) (A) (A) (A) (A) (A) (A)
                 (A) (A) (A) (A) (A) (A) (A) (A) (A) (A) (A) (A)
                 (A) (A) (A) (A) (A) (A) (A) (A) (A) (A) (A) (A)
                 (A) (A) (A) (A) (A) (A) (A) (A) (A) (A) (A) (A)
                 (A) (A) (A) (A) (A) (A) (A) (A) (A) (A) (A) (A)
                 (A) (A) (A) (A) (A) (A) (A) (A) (A) (A) (A) (A)
                 (A) (A) (A) (A) (A) (A) (A) (A) (A) (A) (A) (A)
                 (A) (A) (A) (A) (A) (A) (A) (A) (A) (A) (A) (A)
                 (A) (A) (A) (A) (A) (A) (A) (A) (A) (A) (A) (A)
                 (A) (A) (A) (A) (A) (A) (A) (A) (A) (A) (A) (A)
                 (A) (A) (A) (A) (A)
       Virtual   (A) (A) (A) (A) (A) (A) (A) (A) (A) (A) (A) (A)
                 (A) (A) (A) (A) (A) (A) (A) (A) (A) (A) (A) (A)
                 (A) (A) (A) (A) (A) (A) (A) (A) (A) (A) (A) (A)
                 (A) (A) (A) (A) (A) (A) (A) (A) (A) (A) (A) (A)
                 (A) (A) (A) (A) (A) (A) (A) (A) (A) (A) (A) (A)
                 (A) (A) (A) (A) (A) (A) (A) (A) (A) (A) (A) (A)
                 (A) (A) (A) (A) (A) (A) (A) (A) (A) (A) (A) (A)
                 (A) (A) (A) (A) (A) (A) (A) (A) (A) (A) (A) (A)
                 (A) (A) (A) (A) (A) (A) (A) (A) (A) (A) (A) (A)
                 (A) (A) (A) (A) (A) (A) (A) (A) (A) (A) (A) (A)
                 (A) (A) (A) (A) (A) (A) (A) (A) (A) (A) (A) (A)
                 (A) (A) (A) (A) (A) (A) (A) (A) (A) (A) (A) (A)
                 (A) (A) (A) (A) (A) (A) (A) (A) (A) (A) (A) (A)
                 (A) (A) (A) (A) (A) (A) (A) (A) (A) (A) (A) (A)
                 (A) (A) (A) (A) (A) (A) (A) (A) (A) (A) (A) (A)
                 (A) (A) (A) (A) (A) (A) (A) (A) (A) (A) (A) (A)
                 (A) (A) (A) (A) (A) (A) (A) (A) (A) (A) (A) (A)
                 (A) (A) (A) (A) (A) (A) (A) (A) (A) (A) (A) (A)
                 (A) (A) (A) (A) (A) (A) (A) (A) (A) (A) (A) (A)
                 (A) (A) (A) (A) (A) (A) (A) (A) (A) (A) (A) (A)
                 (A) (A) (A) (A) (A) (A) (A) (A) (A) (A) (A) (A)
                 (A) (A) (A) (A) (A) (A) (A) (A) (A) (A) (A) (A)
                 (A) (A) (A) (A) (A) (A) (A) (A) (A) (A) (A) (A)
                 (A) (A) (A) (A) (A) (A) (A) (A) (A) (A) (A) (A)
                 (A) (A) (A) (A) (A) (A) (A) (A) (A) (A) (A) (A)
                 (A) (A) (A) (A) (A) (A) (A) (A) (A) (A) (A) (A)
                 (A) (A) (A) (A) (A) (A) (A) (A) (A) (A) (A) (A)
                 (A) (A) (A) (A) (A) (A) (A) (A) (A) (A) (A) (A)
                 (A) (A) (A) (A) (A) (A) (A) (A) (A) (A) (A) (A)
                 (A) (A) (A) (A) (A) (A) (A) (A) (A) (A) (A) (A)
                 (A) (A) (A) (A) (A) (A) (A) (A) (A) (A) (A) (A)
                 (A) (A) (A) (A) (A) (A) (A) (A) (A) (A) (A) (A)
                 (A) (A) (A) (A) (A) (A) (A) (A) (A) (A) (A) (A)
                 (A) (A) (A) (A) (A) (A) (A) (A) (A) (A) (A) (A)
                 (A) (A) (A) (A) (A) (A) (A) (A) (A) (A) (A) (A)
                 (A) (A) (A) (A) (A) (A) (A) (A) (A) (A) (A) (A)
                 (A) (A) (A) (A) (A) (A) (A) (A) (A) (A) (A) (A)
                 (A) (A) (A) (A) (A) (A) (A) (A) (A) (A) (A) (A)
                 (A) (A) (A) (A) (A) (A) (A) (A) (A) (A) (A) (A)
                 (A) (A) (A) (A) (A) (A) (A) (A) (A) (A) (A) (A)
                 (A) (A) (A) (A) (A) (A) (A) (A) (A) (A) (A) (A)
                 (A) (A) (A) (A) (A) (A) (A) (A) (A) (A) (A) (A)
                 (A) (A) (A) (A) (A) (A) (A) (A) (A) (A) (A) (A)
                 (A) (A) (A) (A) (A) (A) (A) (A) (A) (A) (A) (A)
                 (A) (A) (A) (A) (A) (A) (A) (A) (A) (A) (A) (A)
                 (A) (A) (A) (A) (A) (A) (A) (A) (A) (A) (A) (A)
                 (A) (A) (A) (A) (A) (A) (A) (A) (A) (A) (A) (A)
                 (A) (A) (A) (A) (A) (A) (A) (A) (A) (A) (A) (A)
                 (A) (A) (A) (A) (A) (A) (A) (A) (A) (A) (A) (A)
                 (A) (A) (A) (A) (A) (A) (A) (A) (A) (A) (A) (A)
                 (A) (A) (A) (A) (A) (A) (A) (A) (A) (A) (A) (A)
                 (A) (A) (A) (A) (A) (A) (A) (A) (A) (A) (A) (A)
                 (A) (A) (A) (A) (A) (A) (A) (A) (A) (A) (A) (A)
                 (A) (A) (A) (A) (A) (A) (A) (A) (A) (A) (A) (A)
                 (A) (A) (A) (A) (A) (A) (A) (A) (A) (A) (A) (A)
                 (A) (A) (A) (A) (A) (A) (A) (A) (A) (A) (A) (A)
                 (A) (A) (A) (A) (A) (A) (A) (A) (A) (A) (A) (A)
                 (A) (A) (A) (A) (A) (A) (A) (A) (A) (A) (A) (A)
                 (A) (A) (A) (A) (A) (A) (A) (A) (A) (A) (A) (A)
                 (A) (A) (A) (A) (A) (A) (A) (A) (A) (A) (A) (A)
                 (A) (A) (A) (A) (A) (A) (A) (A) (A) (A) (A) (A)
                 (A) (A) (A) (A) (A) (A) (A) (A) (A) (A) (A) (A)
                 (A) (A) (A) (A) (A) (A) (A) (A) (A) (A) (A) (A)
                 (A) (A) (A) (A) (A) (A) (A) (A) (A) (A) (A) (A)
                 (A) (A) (A) (A) (A) (A) (A) (A) (A) (A) (A) (A)
                 (A) (A) (A) (A) (A) (A) (A) (A) (A) (A) (A) (A)
                 (A) (A) (A) (A) (A) (A) (A) (A) (A) (A) (A) (A)
                 (A) (A) (A) (A) (A) (A) (A) (A) (A) (A) (A) (A)
                 (A) (A) (A) (A) (A) (A) (A) (A) (A) (A) (A) (A)
                 (A) (A) (A) (A) (A) (A) (A) (A) (A) (A) (A) (A)
                 (A) (A) (A) (A) (A) (A) (A) (A) (A) (A) (A) (A)
                 (A) (A) (A) (A) (A) (A) (A) (A) (A) (A) (A) (A)
                 (A) (A) (A) (A) (A) (A) (A) (A) (A) (A) (A) (A)
                 (A) (A) (A) (A) (A) (A) (A) (A) (A) (A) (A) (A)
                 (A) (A) (A) (A) (A) (A) (A) (A) (A) (A) (A) (A)
                 (A) (A) (A) (A) (A) (A) (A) (A) (A) (A) (A) (A)
                 (A) (A) (A) (A) (A) (A) (A) (A) (A) (A) (A) (A)
                 (A) (A) (A) (A) (A) (A) (A) (A) (A) (A) (A) (A)
                 (A) (A) (A) (A) (A) (A) (A) (A) (A) (A) (A) (A)
                 (A) (A) (A) (A) (A) (A) (A) (A) (A) (A) (A) (A)
                 (A) (A) (A) (A) (A) (A) (A) (A) (A) (A) (A) (A)
                 (A) (A) (A) (A) (A) (A) (A) (A) (A) (A) (A) (A)
                 (A) (A) (A) (A) (A) (A) (A) (A) (A) (A) (A) (A)
                 (A) (A) (A) (A) (A) (A) (A) (A) (A) (A) (A) (A)
                 (A) (A) (A) (A) (A) (A) (A) (A) (A) (A) (A) (A)
                 (A) (A) (A) (A) (A) (A) (A) (A) (A) (A) (A) (A)
                 (A) (A) (A) (A) (A) (A) (A) (A) (A) (A) (A) (A)
                 (A) (A) (A) (A) (A) (A) (A) (A) (A) (A) (A) (A)
                 (A) (A) (A) (A) (A) (A) (A) (A) (A) (A) (A) (A)
                 (A) (A) (A) (A) (A) (A) (A) (A) (A) (A) (A) (A)
                 (A) (A) (A) (A) (A) (A) (A) (A) (A) (A) (A) (A)
                 (A) (A) (A) (A) (A) (A) (A) (A) (A) (A) (A) (A)
                 (A) (A) (A) (A) (A) (A) (A) (A) (A) (A) (A) (A)
                 (A) (A) (A) (A) (A) (A) (A) (A) (A) (A) (A) (A)
                 (A) (A) (A) (A) (A) (A) (A) (A) (A) (A) (A) (A)
                 (A) (A) (A) (A) (A) (A) (A) (A) (A) (A) (A) (A)
                 (A) (A) (A) (A) (A) (A) (A) (A) (A) (A) (A) (A)
                 (A) (A) (A) (A) (A) (A) (A) (A) (A) (A) (A) (A)
                 (A) (A) (A) (A) (A) (A) (A) (A) (A) (A) (A) (A)
                 (A) (A) (A) (A) (A) (A) (A) (A) (A) (A) (A) (A)
                 (A) (A) (A) (A) (A) (A) (A) (A) (A) (A) (A) (A)
                 (A) (A) (A) (A) (A) (A) (A) (A) (A) (A) (A) (A)
                 (A) (A) (A) (A) (A) (A) (A) (A) (A) (A) (A) (A)
                 (A) (A) (A) (A) (A) (A) (A) (A) (A) (A) (A) (A)
                 (A) (A) (A) (A) (A) (A) (A) (A) (A) (A) (A) (A)
                 (A) (A) (A) (A) (A) (A) (A) (A) (A) (A) (A) (A)
                 (A) (A) (A) (A) (A) (A) (A) (A) (A) (A) (A) (A)
                 (A) (A) (A) (A) (A) (A) (A) (A) (A) (A) (A) (A)
                 (A) (A) (A) (A) (A) (A) (A) (A) (A) (A) (A) (A)
                 (A) (A) (A) (A) (A) (A) (A) (A) (A) (A) (A) (A)
                 (A) (A) (A) (A) (A) (A) (A) (A) (A) (A) (A) (A)
                 (A) (A) (A) (A) (A) (A) (A) (A) (A) (A) (A) (A)
                 (A) (A) (A) (A) (A) (A) (A) (A) (A) (A) (A) (A)
                 (A) (A) (A) (A) (A) (A) (A) (A) (A) (A) (A) (A)
                 (A) (A) (A) (A) (A) (A) (A) (A) (A) (A) (A) (A)
                 (A) (A) (A) (A) (A) (A) (A) (A) (A) (A) (A) (A)
                 (A) (A) (A) (A) (A) (A) (A) (A) (A) (A) (A) (A)
                 (A) (A) (A) (A) (A) (A) (A) (A) (A) (A) (A) (A)
                 (A) (A) (A) (A) (A) (A) (A) (A) (A) (A) (A) (A)
                 (A) (A) (A) (A) (A) (A) (A) (A) (A) (A) (A) (A)
                 (A) (A) (A) (A) (A) (A) (A) (A) (A) (A) (A) (A)
                 (A) (A) (A) (A) (A) (A) (A) (A) (A) (A) (A) (A)
                 (A) (A) (A) (A) (A) (A) (A) (A) (A) (A) (A) (A)
                 (A) (A) (A) (A) (A) (A) (A) (A) (A) (A) (A) (A)
                 (A) (A) (A) (A) (A) (A) (A) (A) (A) (A) (A) (A)
                 (A) (A) (A) (A) (A) (A) (A) (A) (A) (A) (A) (A)
                 (A) (A) (A) (A) (A) (A) (A) (A) (A) (A) (A) (A)
                 (A) (A) (A) (A) (A) (A) (A) (A) (A) (A) (A) (A)
                 (A) (A) (A) (A) (A) (A) (A) (A) (A) (A) (A) (A)
                 (A) (A) (A) (A) (A) (A) (A) (A) (A) (A) (A) (A)
                 (A) (A) (A) (A) (A) (A) (A) (A) (A) (A) (A) (A)
                 (A) (A) (A) (A) (A) (A) (A) (A) (A) (A) (A) (A)
                 (A) (A) (A) (A) (A) (A) (A) (A) (A) (A) (A) (A)
                 (A) (A) (A) (A) (A) (A) (A) (A) (A) (A) (A) (A)
                 (A) (A) (A) (A) (A) (A) (A) (A) (A) (A) (A) (A)
                 (A) (A) (A) (A) (A) (A) (A) (A) (A) (A) (A) (A)
                 (A) (A) (A) (A) (A) (A) (A) (A) (A) (A) (A) (A)
                 (A) (A) (A) (A) (A) (A) (A) (A) (A) (A) (A) (A)
                 (A) (A) (A) (A) (A) (A) (A) (A) (A) (A) (A) (A)
                 (A) (A) (A) (A) (A) (A) (A) (A) (A) (A) (A) (A)
                 (A) (A) (A) (A) (A) (A) (A) (A) (A) (A) (A) (A)
                 (A) (A) (A) (A) (A) (A) (A) (A) (A) (A) (A) (A)
                 (A) (A) (A) (A) (A) (A) (A) (A) (A) (A) (A) (A)
                 (A) (A) (A) (A) (A) (A) (A) (A) (A) (A) (A) (A)
                 (A) (A) (A) (A) (A) (A) (A) (A) (A) (A) (A) (A)
                 (A) (A) (A) (A) (A) (A) (A) (A) (A) (A) (A) (A)
                 (A) (A) (A) (A) (A) (A) (A) (A) (A) (A) (A) (A)
                 (A) (A) (A) (A) (A) (A) (A) (A) (A) (A) (A) (A)
                 (A) (A) (A) (A) (A) (A) (A) (A) (A) (A) (A) (A)
                 (A) (A) (A) (A) (A) (A) (A) (A) (A) (A) (A) (A)
                 (A) (A) (A) (A) (A) (A) (A) (A) (A) (A) (A) (A)
                 (A) (A) (A) (A) (A) (A) (A) (A) (A) (A) (A) (A)
                 (A) (A) (A) (A) (A) (A) (A) (A) (A) (A) (A) (A)
                 (A) (A) (A) (A) (A) (A) (A) (A) (A) (A) (A) (A)
                 (A) (A) (A) (A) (A) (A) (A) (A) (A) (A) (A) (A)
                 (A) (A) (A) (A) (A) (A) (A) (A) (A) (A) (A) (A)
                 (A) (A) (A) (A) (A) (A) (A) (A) (A) (A) (A) (A)
                 (A) (A) (A) (A) (A) (A) (A) (A) (A) (A) (A) (A)
                 (A) (A) (A) (A) (A) (A) (A) (A) (A) (A) (A) (A)
                 (A) (A) (A) (A) (A) (A) (A) (A) (A) (A) (A) (A)
                 (A) (A) (A) (A) (A) (A) (A) (A) (A) (A) (A) (A)
                 (A) (A) (A) (A) (A) (A) (A) (A) (A) (A) (A) (A)
                 (A) (A) (A) (A) (A) (A) (A) (A) (A) (A) (A) (A)
                 (A) (A) (A) (A) (A) (A) (A) (A) (A) (A) (A) (A)
                 (A) (A) (A) (A) (A) (A) (A) (A) (A) (A) (A) (A)
                 (A) (A) (A) (A) (A) (A) (A) (A) (A) (A) (A) (A)
                 (A) (A) (A) (A) (A) (A) (A) (A) (A) (A) (A) (A)
                 (A) (A) (A) (A) (A) (A) (A) (A) (A) (A) (A) (A)
                 (A) (A) (A) (A) (A) (A) (A) (A) (A) (A) (A) (A)
                 (A) (A) (A) (A) (A) (A) (A) (A) (A) (A) (A) (A)
                 (A) (A) (A) (A) (A) (A) (A) (A) (A) (A) (A) (A)
                 (A) (A) (A) (A) (A) (A) (A) (A) (A) (A) (A) (A)
                 (A) (A) (A) (A) (A) (A) (A) (A) (A) (A) (A) (A)
                 (A) (A) (A) (A) (A) (A) (A) (A) (A) (A) (A) (A)
                 (A) (A) (A) (A) (A) (A) (A) (A) (A) (A) (A) (A)
                 (A) (A) (A) (A) (A) (A) (A) (A) (A) (A) (A) (A)
                 (A) (A) (A) (A) (A) (A) (A) (A) (A) (A) (A) (A)
                 (A) (A) (A) (A) (A) (A) (A) (A) (A) (A) (A) (A)
                 (A) (A) (A) (A) (A) (A) (A) (A) (A) (A) (A) (A)
                 (A) (A) (A) (A) (A) (A) (A) (A) (A) (A) (A) (A)
                 (A) (A) (A) (A) (A) (A) (A) (A) (A) (A) (A) (A)
                 (A) (A) (A) (A) (A) (A) (A) (A) (A) (A) (A) (A)
                 (A) (A) (A) (A) (A) (A) (A) (A) (A) (A) (A) (A)
                 (A) (A)
 The electronic state is 1-A.
 Alpha  occ. eigenvalues --  -88.97988 -88.97578 -88.96141 -19.24117 -19.23904
 Alpha  occ. eigenvalues --  -19.22822 -19.22543 -19.22507 -19.22280 -19.22121
 Alpha  occ. eigenvalues --  -19.21762 -19.21725 -19.21706 -19.20577 -19.19611
 Alpha  occ. eigenvalues --  -19.19499 -19.19317 -19.18669 -19.17854 -19.17835
 Alpha  occ. eigenvalues --  -19.17256 -19.16682 -19.16500 -19.13441 -19.12974
 Alpha  occ. eigenvalues --  -19.12860 -14.45362 -14.45294 -14.43586 -14.42447
 Alpha  occ. eigenvalues --  -14.39946 -14.38293 -10.38052 -10.37228 -10.36888
 Alpha  occ. eigenvalues --  -10.36374 -10.34646 -10.34417 -10.30319 -10.30251
 Alpha  occ. eigenvalues --  -10.29987 -10.29932 -10.29902 -10.29455 -10.28307
 Alpha  occ. eigenvalues --  -10.28239 -10.27913 -10.27780 -10.27708 -10.27675
 Alpha  occ. eigenvalues --  -10.27255 -10.26659 -10.26636 -10.26071 -10.26056
 Alpha  occ. eigenvalues --  -10.25993 -10.25937 -10.25771 -10.25560 -10.25516
 Alpha  occ. eigenvalues --  -10.25504 -10.25501 -10.25443 -10.25400 -10.25184
 Alpha  occ. eigenvalues --  -10.25066 -10.25033 -10.24949 -10.24780 -10.24746
 Alpha  occ. eigenvalues --  -10.24721 -10.24720 -10.24717 -10.24635 -10.24576
 Alpha  occ. eigenvalues --  -10.24547 -10.24519 -10.24454 -10.24421 -10.24374
 Alpha  occ. eigenvalues --  -10.24324 -10.24319 -10.24245 -10.24111 -10.24106
 Alpha  occ. eigenvalues --  -10.24025 -10.24010 -10.23974 -10.23912 -10.23877
 Alpha  occ. eigenvalues --  -10.23875 -10.23875 -10.23867 -10.23853 -10.23842
 Alpha  occ. eigenvalues --  -10.23840 -10.23813 -10.23801 -10.23753 -10.23751
 Alpha  occ. eigenvalues --  -10.23704 -10.23698 -10.23636 -10.23628 -10.23584
 Alpha  occ. eigenvalues --  -10.23562 -10.23489 -10.23473 -10.23465 -10.23388
 Alpha  occ. eigenvalues --  -10.23378 -10.23329 -10.23264 -10.23199 -10.23146
 Alpha  occ. eigenvalues --  -10.23129 -10.23114 -10.23052 -10.23027 -10.22965
 Alpha  occ. eigenvalues --  -10.22963 -10.22927 -10.22915 -10.22714 -10.22586
 Alpha  occ. eigenvalues --  -10.22501 -10.22384 -10.22327 -10.22270 -10.22178
 Alpha  occ. eigenvalues --  -10.22177 -10.22083 -10.22029 -10.21961 -10.21958
 Alpha  occ. eigenvalues --  -10.21935 -10.21815 -10.21755 -10.21678 -10.21406
 Alpha  occ. eigenvalues --  -10.21382 -10.21323 -10.21315 -10.21289 -10.21280
 Alpha  occ. eigenvalues --  -10.21254 -10.21037 -10.20960 -10.20912 -10.20900
 Alpha  occ. eigenvalues --  -10.20864 -10.20689 -10.20628 -10.20551 -10.20381
 Alpha  occ. eigenvalues --   -7.99889  -7.99483  -7.97959  -5.94937  -5.94559
 Alpha  occ. eigenvalues --   -5.94531  -5.94149  -5.93859  -5.93455  -5.93008
 Alpha  occ. eigenvalues --   -5.92620  -5.91958  -1.14054  -1.11553  -1.10596
 Alpha  occ. eigenvalues --   -1.10588  -1.09433  -1.09353  -1.08285  -1.07859
 Alpha  occ. eigenvalues --   -1.07774  -1.06679  -1.06089  -1.05471  -1.04588
 Alpha  occ. eigenvalues --   -1.04472  -1.04412  -1.03391  -1.03041  -1.02590
 Alpha  occ. eigenvalues --   -1.01890  -1.00670  -1.00253  -0.99715  -0.99477
 Alpha  occ. eigenvalues --   -0.99386  -0.98324  -0.96621  -0.96555  -0.94989
 Alpha  occ. eigenvalues --   -0.94946  -0.91077  -0.90409  -0.90319  -0.89352
 Alpha  occ. eigenvalues --   -0.89002  -0.87725  -0.87041  -0.86809  -0.86000
 Alpha  occ. eigenvalues --   -0.85939  -0.85815  -0.85698  -0.85650  -0.85023
 Alpha  occ. eigenvalues --   -0.84835  -0.84569  -0.84221  -0.84056  -0.83538
 Alpha  occ. eigenvalues --   -0.83307  -0.83090  -0.82964  -0.82745  -0.82598
 Alpha  occ. eigenvalues --   -0.82576  -0.81832  -0.81500  -0.81055  -0.80706
 Alpha  occ. eigenvalues --   -0.80511  -0.80485  -0.79666  -0.79176  -0.79077
 Alpha  occ. eigenvalues --   -0.78790  -0.78529  -0.78370  -0.78040  -0.77878
 Alpha  occ. eigenvalues --   -0.77868  -0.77607  -0.77390  -0.77175  -0.77131
 Alpha  occ. eigenvalues --   -0.76860  -0.76819  -0.75898  -0.75564  -0.75301
 Alpha  occ. eigenvalues --   -0.74906  -0.74504  -0.74216  -0.73566  -0.73453
 Alpha  occ. eigenvalues --   -0.73336  -0.73300  -0.73064  -0.73039  -0.72582
 Alpha  occ. eigenvalues --   -0.72386  -0.72378  -0.72057  -0.71536  -0.71499
 Alpha  occ. eigenvalues --   -0.71272  -0.70931  -0.70754  -0.70603  -0.70375
 Alpha  occ. eigenvalues --   -0.70215  -0.70042  -0.69278  -0.68599  -0.67891
 Alpha  occ. eigenvalues --   -0.67875  -0.67746  -0.67287  -0.67223  -0.66787
 Alpha  occ. eigenvalues --   -0.66382  -0.66350  -0.66192  -0.66079  -0.66019
 Alpha  occ. eigenvalues --   -0.65648  -0.65432  -0.65310  -0.65164  -0.64894
 Alpha  occ. eigenvalues --   -0.64304  -0.64183  -0.63888  -0.63596  -0.63437
 Alpha  occ. eigenvalues --   -0.63316  -0.63054  -0.62880  -0.62649  -0.61807
 Alpha  occ. eigenvalues --   -0.61676  -0.61578  -0.61487  -0.61165  -0.61065
 Alpha  occ. eigenvalues --   -0.60879  -0.60600  -0.60351  -0.59957  -0.59914
 Alpha  occ. eigenvalues --   -0.59721  -0.59600  -0.59480  -0.59445  -0.59124
 Alpha  occ. eigenvalues --   -0.58642  -0.58501  -0.58358  -0.58042  -0.57864
 Alpha  occ. eigenvalues --   -0.57741  -0.57549  -0.57272  -0.56858  -0.56783
 Alpha  occ. eigenvalues --   -0.56778  -0.56171  -0.55930  -0.55827  -0.55571
 Alpha  occ. eigenvalues --   -0.55445  -0.54999  -0.54783  -0.54602  -0.54529
 Alpha  occ. eigenvalues --   -0.54229  -0.54033  -0.53842  -0.53263  -0.53132
 Alpha  occ. eigenvalues --   -0.53092  -0.52591  -0.52204  -0.52105  -0.51969
 Alpha  occ. eigenvalues --   -0.51907  -0.51758  -0.51472  -0.51412  -0.51361
 Alpha  occ. eigenvalues --   -0.51302  -0.51221  -0.50960  -0.50892  -0.50867
 Alpha  occ. eigenvalues --   -0.50773  -0.50651  -0.50598  -0.50358  -0.50159
 Alpha  occ. eigenvalues --   -0.50069  -0.49938  -0.49864  -0.49749  -0.49636
 Alpha  occ. eigenvalues --   -0.49532  -0.49484  -0.49461  -0.49420  -0.49326
 Alpha  occ. eigenvalues --   -0.49229  -0.48994  -0.48936  -0.48816  -0.48767
 Alpha  occ. eigenvalues --   -0.48667  -0.48540  -0.48390  -0.48191  -0.48069
 Alpha  occ. eigenvalues --   -0.48064  -0.47976  -0.47923  -0.47793  -0.47771
[...]
  296 Atom       -0.302331      0.125505      0.176825
  297 Atom       -0.143409     -0.096400      0.239809
  298 Atom       -0.222426      0.074711      0.147715
  299 Atom       -0.300693      0.141345      0.159348
  300 Atom       -0.258347      0.119973      0.138374
  301 Atom       -0.298202      0.141829      0.156372
  302 Atom       -0.211580      0.081392      0.130189
  303 Atom       -0.305642      0.142259      0.163383
  304 Atom       -0.224113      0.075298      0.148815
  305 Atom       -0.303658      0.143120      0.160538
  306 Atom       -0.186881      0.076634      0.110247
  307 Atom       -0.292067      0.142359      0.149708
  308 Atom       -0.293459      0.144477      0.148983
  309 Atom       -0.023559      0.008007      0.015552
  310 Atom       -0.292496      0.144145      0.148351
  311 Atom       -0.034721     -0.000595      0.035316
  312 Atom       -0.283769      0.138011      0.145757
  313 Atom       -0.280955      0.136959      0.143996
  314 Atom       -0.021517     -0.004554      0.026071
  315 Atom       -0.277763      0.138530      0.139233
  316 Atom       -0.022379      0.009766      0.012613
  317 Atom       -0.288487      0.140647      0.147840
  318 Atom       -0.291049      0.142555      0.148494
  319 Atom       -0.293252      0.144255      0.148998
  320 Atom       -0.029119      0.010666      0.018453
  321 Atom       -0.289061      0.141439      0.147622
  322 Atom       -0.291017      0.142380      0.148638
  323 Atom       -0.291030      0.142126      0.148904
  324 Atom       -0.290746      0.142749      0.147997
  325 Atom       -0.572726      0.163343      0.409383
  326 Atom       -0.915557     -0.503244      1.418801
  327 Atom       -0.135183      0.011913      0.123269
  328 Atom       -0.571053      0.249198      0.321856
  329 Atom       -0.084356     -0.010177      0.094533
  330 Atom       -0.047471      0.006027      0.041444
  331 Atom       -0.050001      0.006566      0.043435
  332 Atom       -0.098296      0.020387      0.077910
  333 Atom       -0.053048     -0.010935      0.063983
  334 Atom       -0.049700     -0.009985      0.059685
  335 Atom       -0.044311      0.009171      0.035140
  336 Atom       -0.029810      0.001977      0.027833
  337 Atom       -0.020963     -0.007693      0.028656
  338 Atom       -0.027735      0.001220      0.026515
  339 Atom       -0.036501     -0.006296      0.042797
  340 Atom       -0.078944      0.013432      0.065512
  341 Atom       -0.065472      0.006624      0.058848
  342 Atom       -0.362248      0.176309      0.185939
  343 Atom       -0.058279      0.010742      0.047537
  344 Atom       -1.435553     -0.073414      1.508967
  345 Atom       -0.289805      0.130161      0.159643
  346 Atom       -0.239710      0.118500      0.121210
  347 Atom       -0.280521      0.137084      0.143436
  348 Atom       -0.290332      0.142311      0.148021
  349 Atom       -0.278637      0.133581      0.145056
  350 Atom       -0.284060      0.137949      0.146111
  351 Atom       -0.286716      0.136607      0.150109
  352 Atom       -0.255061      0.124859      0.130202
  353 Atom       -0.282266      0.138671      0.143596
  354 Atom       -0.283372      0.139391      0.143981
  355 Atom       -0.270742      0.130520      0.140222
  356 Atom       -0.272750      0.135745      0.137005
  357 Atom       -0.266658      0.131188      0.135470
  358 Atom       -0.277525      0.137832      0.139693
  359 Atom       -0.280927      0.139368      0.141560
  360 Atom       -0.275394      0.134679      0.140716
  361 Atom       -0.287243      0.140225      0.147018
  362 Atom       -0.291565      0.142690      0.148875
  363 Atom       -0.289993      0.141865      0.148129
  364 Atom       -0.291195      0.142918      0.148277
  365 Atom       -0.288327      0.141220      0.147107
  366 Atom       -0.270306      0.125148      0.145158
  367 Atom       -0.294525      0.141950      0.152575
  368 Atom       -0.301318      0.147225      0.154093
  369 Atom       -0.296370      0.141734      0.154636
  370 Atom       -0.328761      0.134914      0.193847
  371 Atom       -1.174592     -0.232908      1.407499
  372 Atom       -0.346219      0.146520      0.199699
  373 Atom       -0.334285      0.141662      0.192624
  374 Atom       -1.153728     -0.059978      1.213706
  375 Atom       -0.344848      0.155148      0.189701
  376 Atom       -0.353864      0.158436      0.195428
  377 Atom       -1.392099     -0.110592      1.502691
  378 Atom       -0.321013      0.133096      0.187917
  379 Atom       -0.464130      0.204954      0.259176
  380 Atom       -1.321759     -0.136880      1.458638
  381 Atom       -0.404176      0.175510      0.228667
  382 Atom       -0.376229      0.161187      0.215043
  383 Atom       -1.358903     -0.073126      1.432029
  384 Atom       -0.321921      0.139029      0.182892
  385 Atom       -0.462082      0.208394      0.253688
  386 Atom       -1.320288     -0.127405      1.447693
  387 Atom       -0.414810      0.183268      0.231542
  388 Atom       -0.359308      0.154764      0.204544
  389 Atom       -1.283843     -0.089542      1.373385
  390 Atom       -0.365617      0.162474      0.203143
  391 Atom       -0.398332      0.178667      0.219665
  392 Atom       -1.321462     -0.131018      1.452480
  393 Atom       -0.417846      0.184880      0.232966
  394 Atom       -0.390303      0.167621      0.222682
  395 Atom       -1.330464     -0.094436      1.424899
  396 Atom       -0.314381      0.131590      0.182791
  397 Atom       -0.451306      0.200996      0.250310
  398 Atom       -1.172968     -0.010928      1.183896
  399 Atom       -0.347103      0.158851      0.188252
  400 Atom       -0.348406      0.161857      0.186550
 -----------------------------------------------------
 Unable to Open any file for archive entry.
 1\1\GINC-EXP-7-16\SP\RwB97XD\6-31G(d)\C123H245N6O23S3(1-)\HKLEM\08-Aug
 -2024\0\\# 6-31G(d) wb97xd prop=efg\\19nt_mm_min_distance_cutoff5_opti
 mized_efg\\-1,1\H,0,9.603532,-6.306163,-2.273003\C,-1,8.728658,-5.9776
 22,-1.694562\H,0,8.258314,-6.86734,-1.270204\C,0,9.179764,-5.034938,-0
 .567148\H,0,9.967272,-5.540691,0.003637\H,0,9.640706,-4.12897,-0.98162
 6\C,0,8.038021,-4.664142,0.343817\C,0,7.726183,-5.429581,1.468446\H,0,
 8.356197,-6.27598,1.733455\C,0,6.617969,-5.138743,2.252611\H,0,6.36888
 3,-5.742155,3.119404\C,0,5.794487,-4.066879,1.912772\O,0,4.693154,-3.8
 36084,2.684534\H,0,4.228423,-3.03883,2.33798\C,0,6.093044,-3.284874,0.
 798649\H,0,5.457009,-2.448091,0.533317\C,0,7.206653,-3.592107,0.030217
 \H,0,7.421151,-2.99274,-0.847936\C,0,7.702576,-5.410517,-2.692491\O,0,
 6.69139,-6.033322,-2.980324\N,-1,7.99946,-4.207719,-3.27514\H,0,8.8890
 6,-3.776119,-3.072885\C,-1,7.196471,-3.638489,-4.354879\H,0,6.182281,-
 4.022649,-4.222179\C,0,7.196538,-2.103438,-4.37891\H,0,8.23043,-1.7688
 81,-4.557139\C,0,6.352069,-1.628788,-5.567337\H,0,6.340796,-0.534631,-
 5.619139\H,0,5.314592,-1.969034,-5.476727\H,0,6.743995,-2.011793,-6.51
 667\C,0,6.737161,-1.450652,-3.062418\H,0,7.502302,-1.615562,-2.294869\
 H,0,6.708739,-0.363738,-3.209138\C,0,5.380265,-1.919928,-2.540002\H,-1
 ,5.102371,-1.34474,-1.650574\H,0,5.392433,-2.981276,-2.269044\H,0,4.58
 687,-1.767027,-3.280525\H,0,7.552715,-4.015854,-5.324315\H,0,3.59532,-
 6.90553,-4.02894\C,-1,2.790813,-6.164213,-3.979266\H,0,1.913281,-6.646
 632,-3.531831\C,0,3.231416,-4.952994,-3.147275\H,0,4.146356,-4.557753,
 -3.608126\C,0,2.17982,-3.840679,-3.165266\H,-1,1.934786,-3.531833,-4.1
 88106\H,0,1.2508,-4.171769,-2.686389\H,0,2.535543,-2.955786,-2.623632\
 C,0,3.579125,-5.361825,-1.713913\H,0,3.926069,-4.500839,-1.128893\H,0,
 4.38385,-6.102632,-1.702014\H,0,2.705044,-5.784453,-1.200431\H,-1,2.53
 0959,-5.869633,-5.003326\H,0,-0.496965,1.826376,8.490898\C,-1,-0.65579
 2,2.008127,7.420589\H,0,0.018991,2.815288,7.124293\C,0,-0.332826,0.735
 638,6.63892\H,0,-1.009403,-0.060003,6.971195\H,0,0.68556,0.396319,6.85
 4918\C,0,-0.506625,0.83228,5.115136\O,0,-1.199261,1.795673,4.657892\O,
 0,0.011847,-0.082921,4.434586\C,0,-2.122934,2.390186,7.246402\O,0,-3.0
 03831,1.544169,7.363476\N,-1,-2.427522,3.696069,7.022044\C,0,-3.821112
 ,4.092432,6.842226\H,0,-4.189978,3.75867,5.863788\H,0,-4.445117,3.6240
 62,7.606847\C,0,-3.76998,5.617399,6.932125\H,-1,-4.591329,6.092134,6.3
 88966\H,0,-3.824125,5.932898,7.981412\C,-1,-2.396976,5.958221,6.340895
 \H,0,-2.014832,6.929593,6.667663\H,0,-2.455649,5.970239,5.249347\C,-1,
 -1.497207,4.802365,6.799802\H,0,-0.756786,4.550435,6.034737\H,0,-0.964
 025,5.05211,7.727815\H,0,-2.263972,-8.31524,2.878197\C,-1,-2.70325,-7.
 31718,2.773103\H,0,-2.497422,-6.764147,3.695319\C,0,-2.119401,-6.58224
 6,1.565812\H,0,-2.372169,-7.135925,0.650513\H,0,-2.576438,-5.589253,1.
 488782\C,-1,-0.620589,-6.445286,1.679067\C,0,0.217392,-7.509889,1.3331
 08\H,0,-0.220181,-8.417146,0.919254\C,0,1.591299,-7.438753,1.49726\H,0
 ,2.239445,-8.262581,1.216525\C,-1,2.169655,-6.288084,2.042439\O,0,3.50
 602,-6.282285,2.213744\H,-1,3.805161,-5.397067,2.501389\C,0,1.347195,-
 5.215147,2.39771\H,0,1.785094,-4.326463,2.846102\C,0,-0.031145,-5.2971
 41,2.208579\H,0,-0.661085,-4.456435,2.492387\H,0,-3.791502,-7.437233,2
 .681299\H,0,-7.207545,-7.314478,2.801935\C,-1,-8.013538,-6.950312,2.15
 1974\H,0,-8.412302,-7.805595,1.598115\C,0,-9.123378,-6.300409,2.984463
 \H,0,-9.925603,-5.981496,2.311561\H,-1,-8.731448,-5.393572,3.463342\C,
 -1,-9.680038,-7.25717,4.046432\H,0,-10.062804,-8.164473,3.572233\H,-1,
 -8.88159,-7.548045,4.741625\C,0,-10.841269,-6.641711,4.815935\O,0,-12.
 000038,-6.969718,4.636772\N,0,-10.486201,-5.682388,5.721213\H,0,-9.543
 772,-5.335858,5.798492\H,0,-11.222234,-5.162762,6.174219\C,-1,-7.48687
 1,-5.940318,1.111633\O,0,-8.195413,-5.558798,0.196308\N,0,-6.199813,-5
 .459455,1.253927\H,0,-5.703351,-5.651996,2.111949\C,-1,-5.765497,-4.28
 8881,0.487467\H,-1,-4.858984,-3.873006,0.946525\H,0,-6.545107,-3.52606
 ,0.49412\C,0,-5.405299,-4.577174,-0.970133\O,0,-5.480863,-3.664362,-1.
 810002\N,0,-4.94322,-5.801925,-1.257131\H,-1,-4.92492,-6.457594,-0.486
 938\C,-1,-4.397425,-6.228651,-2.547934\H,0,-4.524212,-5.389287,-3.2327
 94\C,0,-2.930219,-6.640564,-2.440035\H,0,-2.859013,-7.552034,-1.82894\
 H,0,-2.587773,-6.920472,-3.446197\C,0,-1.985476,-5.582009,-1.856135\H,
 0,-2.321487,-5.359718,-0.835986\C,0,-0.567814,-6.148625,-1.780086\H,0,
 0.095671,-5.489537,-1.210917\H,-1,-0.547115,-7.124938,-1.286146\H,0,-0
 .149695,-6.267215,-2.787055\C,0,-2.002244,-4.272536,-2.645981\H,0,-1.7
 8266,-4.450609,-3.706333\H,-1,-2.964783,-3.755811,-2.570743\H,-1,-1.23
 2878,-3.592592,-2.265571\H,0,-5.000784,-7.06092,-2.926882\H,0,-3.95359
 6,-4.162183,-7.866901\C,-1,-3.558423,-3.200012,-7.52131\H,0,-4.26589,-
 2.420807,-7.827054\C,0,-3.374679,-3.194965,-6.002224\H,0,-2.688538,-4.
 012771,-5.74164\C,0,-2.745754,-1.887325,-5.513936\H,-1,-1.788248,-1.69
 1323,-6.009504\H,0,-3.403187,-1.035576,-5.728951\H,0,-2.562475,-1.9154
 16,-4.432922\C,0,-4.711163,-3.453241,-5.306654\H,-1,-5.459331,-2.71746
 3,-5.623478\H,0,-5.106898,-4.444922,-5.5564\H,-1,-4.617719,-3.390413,-
 4.216149\H,0,-2.61044,-3.017103,-8.039961\H,0,2.631246,-1.53549,-8.600
 948\C,-1,2.872421,-1.068769,-7.640162\H,-1,2.265576,-0.161238,-7.54707
 6\C,0,2.610344,-2.02262,-6.47647\H,0,2.845816,-1.551338,-5.516025\H,0,
 3.216474,-2.931854,-6.556831\H,0,1.558632,-2.327643,-6.440656\H,-1,3.9
 24814,-0.765419,-7.669749\H,0,11.618947,4.099944,0.394823\C,-1,11.2958
 78,4.022385,-0.649363\H,-1,12.109181,4.391599,-1.282285\C,0,10.93616,2
 .578649,-1.007351\H,0,11.817655,1.939071,-0.877025\H,0,10.656137,2.515
 741,-2.065948\C,0,9.792413,2.032218,-0.153157\H,-1,8.871054,2.596724,-
 0.341791\H,0,10.033871,2.134419,0.912234\S,0,9.503857,0.270151,-0.5191
 03\C,0,8.159389,-0.064892,0.649611\H,-1,8.432382,0.266682,1.655269\H,0
 ,7.230446,0.417763,0.336455\H,-1,7.999717,-1.144258,0.682174\H,0,10.43
 627,4.689081,-0.783032\H,0,7.097087,4.884054,-4.014101\C,-1,6.546971,4
 .450488,-4.85598\H,-1,7.048399,4.751545,-5.781874\C,-1,6.480828,2.9199
 ,-4.740411\H,0,5.95599,2.513306,-5.613144\H,0,7.500088,2.513472,-4.774
 057\C,-1,5.796702,2.444068,-3.47658\C,0,4.547165,1.819333,-3.512824\H,
 0,4.056606,1.660942,-4.471642\C,0,3.922511,1.396058,-2.340211\H,0,2.94
 709,0.918268,-2.388613\C,0,4.538212,1.595751,-1.108776\H,0,4.060641,1.
 284752,-0.185316\C,0,5.778529,2.228617,-1.059162\H,0,6.236418,2.41823,
 -0.092629\C,0,6.403472,2.638918,-2.23144\H,-1,7.376405,3.124925,-2.184
 042\H,-1,5.540731,4.882134,-4.851408\H,0,1.237156,2.35413,-6.380028\C,
 -1,0.161054,2.158915,-6.278386\H,0,-0.121978,1.401685,-7.017668\C,0,-0
 .165789,1.69484,-4.855734\H,-1,-1.246796,1.496107,-4.808047\C,0,0.5604
 47,0.388928,-4.52442\H,0,1.648986,0.533191,-4.556991\H,0,0.309736,-0.4
 0039,-5.241984\H,0,0.300076,0.026382,-3.523297\C,-1,0.168353,2.785661,
 -3.834775\H,0,1.247464,2.988566,-3.82024\H,0,-0.125617,2.494265,-2.820
 196\H,0,-0.346242,3.723972,-4.073767\H,-1,-0.374519,3.081494,-6.527537
 \H,-1,-5.669094,1.43961,-9.212157\C,-1,-6.15698,0.705589,-8.561933\H,0
 ,-6.403884,-0.172432,-9.167808\C,0,-5.26246,0.312451,-7.38532\H,0,-4.3
 41009,-0.150224,-7.75997\H,0,-5.774041,-0.438226,-6.77223\C,0,-4.89294
 ,1.456695,-6.442194\H,0,-5.794208,1.98645,-6.114118\H,-1,-4.410222,1.0
 52799,-5.545925\S,0,-3.73116,2.633884,-7.212622\C,0,-3.354919,3.646955
 ,-5.757582\H,-1,-4.238968,4.182093,-5.397391\H,0,-2.947622,3.034813,-4
 .94567\H,0,-2.598687,4.378634,-6.051537\H,0,-7.095702,1.145186,-8.2062
 89\H,0,-2.56292,6.777821,-5.603307\C,-1,-1.711742,6.934154,-4.931093\H
 ,0,-1.574202,8.015941,-4.828526\C,0,-1.952315,6.26102,-3.580693\H,0,-2
 .161309,5.194638,-3.741288\H,0,-2.860272,6.675719,-3.124875\C,0,-0.808
 218,6.381691,-2.563958\H,0,0.098819,5.953097,-3.018306\C,0,-0.510092,7
 .836051,-2.1916\H,0,-0.22596,8.439329,-3.06063\H,0,-1.390073,8.301956,
 -1.728154\H,0,0.314465,7.886122,-1.471684\C,0,-1.145687,5.572387,-1.31
 2102\H,0,-1.313287,4.517728,-1.557562\H,0,-2.054843,5.954499,-0.83116\
 H,-1,-0.345681,5.617233,-0.56721\H,0,-0.816387,6.528944,-5.418947\H,0,
 2.758421,6.466308,-1.969349\C,-1,3.250178,6.438903,-0.989175\H,0,2.600
 167,6.964933,-0.27762\C,-1,3.494257,4.998446,-0.53248\H,0,4.136019,4.5
 07752,-1.276576\C,0,4.217126,4.962192,0.816135\H,0,4.393346,3.934436,1
 .151652\H,0,5.185453,5.475592,0.762737\H,0,3.614518,5.466893,1.584474\
 C,-1,2.182854,4.218126,-0.455636\H,0,2.366422,3.167445,-0.206171\H,-1,
 1.641417,4.247322,-1.409391\H,0,1.524182,4.634798,0.318636\H,0,4.18930
 7,6.999955,-1.064305\H,0,7.678874,3.006916,2.061052\C,-1,7.225463,3.14
 1562,3.050041\H,0,6.359528,3.797963,2.932639\C,0,6.804827,1.805398,3.6
 4421\H,0,7.648618,1.117537,3.755681\H,0,6.377322,1.943576,4.645782\C,0
 ,5.72604,1.132611,2.83215\O,0,4.915588,1.738665,2.15474\O,0,5.745751,-
 0.188085,2.939763\H,0,4.953404,-0.561408,2.470742\H,-1,7.957737,3.6385
 87,3.693621\H,0,7.106193,-1.285044,9.438204\C,-1,6.872861,-0.704835,8.
 53926\H,0,7.776764,-0.157391,8.245779\C,0,6.393868,-1.610475,7.403416\
 H,0,7.181151,-2.338213,7.163444\H,0,5.520215,-2.1888,7.727256\C,0,6.05
 1394,-0.845824,6.122777\H,0,6.866602,-0.155628,5.876686\H,0,5.951612,-
 1.521453,5.268583\S,0,4.522779,0.157212,6.198687\C,0,3.343094,-0.98838
 9,5.424056\H,0,3.20161,-1.882834,6.03669\H,0,3.697341,-1.275954,4.4306
 71\H,0,2.378862,-0.48269,5.308685\H,-1,6.102372,0.029075,8.799796\H,0,
 3.127203,4.54588,5.903248\C,-1,3.347452,3.805517,5.126301\H,0,4.325554
 ,3.364448,5.346661\C,0,2.275689,2.721039,5.067905\H,-1,2.470667,2.0072
 17,4.261485\H,0,1.276197,3.138419,4.908555\H,0,2.241394,2.154845,6.004
 76\H,-1,3.434613,4.33447,4.169808\H,0,0.556539,8.597015,3.761329\C,-1,
 0.287092,8.731449,2.708494\H,0,0.875133,9.561814,2.301908\C,0,0.543386
 ,7.435605,1.917702\H,0,0.31778,7.619542,0.85759\H,0,1.611805,7.189089,
 1.963799\C,0,-0.255596,6.260069,2.400874\C,0,0.209286,5.135431,3.03605
 6\H,0,1.228675,4.864513,3.278831\N,0,-0.829818,4.302898,3.375369\H,0,-
 0.779923,3.383619,3.827436\C,0,-2.000586,4.875403,2.949415\C,-1,-3.313
 9,4.411824,3.068508\H,0,-3.524666,3.460185,3.542988\C,0,-4.322882,5.20
 0948,2.546692\H,0,-5.34521,4.842045,2.611484\C,0,-4.031924,6.425753,1.
 911878\H,0,-4.846212,7.020106,1.507081\C,0,-2.729826,6.883559,1.798785
 \H,0,-2.518071,7.827148,1.300369\C,0,-1.685082,6.107288,2.328649\H,-1,
 -0.771387,9.008816,2.671049\H,0,-3.94719,11.07605,-4.655453\C,-1,-4.72
 1257,10.35447,-4.373454\H,0,-4.899804,9.708724,-5.239667\C,0,-4.294953
 ,9.548132,-3.144646\H,0,-4.003615,10.24318,-2.345731\H,-1,-3.394645,8.
 964581,-3.382939\C,0,-5.372505,8.600826,-2.593812\H,0,-6.265754,9.2072
 23,-2.379088\C,0,-5.774497,7.523026,-3.606164\H,0,-4.904827,6.925712,-
 3.907349\H,0,-6.512866,6.83898,-3.173432\H,0,-6.213087,7.955011,-4.511
 778\C,0,-4.914934,7.96494,-1.277619\H,0,-4.017393,7.350834,-1.417216\H
 ,0,-4.676123,8.728516,-0.527923\H,0,-5.690445,7.313609,-0.860146\H,0,-
 5.644538,10.912299,-4.175507\C,0,2.663617,-1.144494,1.236792\O,0,3.723
 383,-1.500272,1.796757\C,0,2.15385,0.186188,1.382627\C,0,0.896593,0.51
 1968,0.98624\C,0,0.040524,-0.454147,0.202332\C,-1,0.908638,-1.489377,-
 0.516726\C,0,1.869138,-2.155125,0.458494\C,0,0.28638,1.791447,1.464542
 \C,0,-0.699211,2.414846,0.479634\C,0,-1.712348,1.361202,0.046296\C,0,-
 0.980001,0.241202,-0.722655\C,0,-2.85558,1.901447,-0.795873\C,0,-3.865
 511,0.794744,-1.166801\C,0,-3.15124,-0.219379,-2.059162\C,0,-1.920809,
 -0.80554,-1.354151\C,0,-3.730985,3.012694,-0.212526\C,0,-5.015158,2.96
 2774,-1.071037\C,0,-4.950009,1.635688,-1.868301\C,0,-4.452965,0.092384
 ,0.069049\O,0,-6.23372,1.011915,-1.969364\H,0,2.757415,0.881496,1.9581
 32\H,-1,-0.56259,-0.961604,0.976549\H,0,1.472708,-1.000768,-1.324419\H
 ,0,0.290011,-2.259808,-0.986182\H,0,1.299072,-2.747316,1.188254\H,0,2.
 557856,-2.850558,-0.033321\H,0,1.07221,2.494719,1.758857\H,0,-0.25032,
 1.525957,2.391576\H,0,-0.166358,2.81105,-0.395185\H,0,-1.197232,3.2619
 31,0.960777\H,0,-2.135928,0.94291,0.966152\H,0,-0.429077,0.731293,-1.5
 42532\H,0,-2.428896,2.273962,-1.74665\H,0,-2.840606,0.276765,-2.992719
 \H,0,-3.824654,-1.045237,-2.334519\H,0,-2.258979,-1.502757,-0.576882\H
 ,0,-1.360374,-1.399841,-2.084408\H,0,-3.250579,3.993231,-0.227746\H,0,
 -3.953044,2.799692,0.836345\H,0,-5.081021,3.815175,-1.754844\H,0,-5.91
 1842,2.98728,-0.44834\H,0,-4.607663,1.846823,-2.892891\H,0,-5.085059,0
 .755335,0.663455\H,-1,-5.064989,-0.757859,-0.236801\H,0,-3.684689,-0.3
 05066,0.731567\H,0,-6.27921,0.585606,-2.855711\O,0,-1.789762,-1.184034
 ,2.672055\H,0,-2.437545,-0.449609,2.747711\H,0,-1.071993,-0.90812,3.29
 1408\O,0,-7.13574,-1.5473,-1.18787\H,0,-6.41374,-2.19672,-1.341418\H,0
 ,-6.747212,-0.670571,-1.397726\O,-1,-2.762114,-3.265308,1.249176\H,0,-
 2.44507,-2.568904,1.87583\H,0,-2.014599,-3.393836,0.654119\O,0,-7.5746
 77,1.49303,0.619161\H,0,-7.282221,1.38585,-0.300835\H,0,-7.528295,0.59
 5429,0.999119\O,0,-7.375813,-1.214914,1.478422\H,0,-7.343025,-1.42824,
 0.514708\H,0,-8.25805,-1.468031,1.773258\O,0,-5.864737,-0.206855,3.794
 917\H,0,-6.106826,-0.684436,2.985657\H,0,-6.163679,0.707054,3.606689\O
 ,0,-5.973362,2.346579,2.751087\H,0,-6.435629,2.223964,1.897222\H,0,-5.
 041479,2.10899,2.60233\O,0,-7.523507,-2.727658,-3.676216\H,0,-6.871213
 ,-3.371082,-3.355367\H,-1,-7.847894,-2.339216,-2.842922\O,0,-6.001173,
 -0.524162,-4.187278\H,0,-6.569743,-1.330081,-4.101529\H,0,-5.097958,-0
 .855081,-4.105035\O,0,-3.435113,0.967012,3.183691\H,0,-2.768671,1.2888
 87,3.832948\H,0,-4.131205,0.466311,3.665178\\Version=ES64L-G16RevC.01\
 State=1-A\HF=-8086.449735\RMSD=3.354e-09\Dipole=4.5603961,-1.1482434,-
 3.7007874\Quadrupole=-33.7145919,33.8178663,-0.1032744,18.783626,1.728
 3253,-5.126184\PG=C01 [X(C123H245N6O23S3)]\\@
 The archive entry for this job was punched.


 NECESSARY EVIL: ONE WE LIKE TOO MUCH TO RELINQUISH.
 Job cpu time:       0 days  5 hours 54 minutes 44.9 seconds.
 Elapsed time:       0 days  0 hours 30 minutes 12.7 seconds.
 File lengths (MBytes):  RWF=   4286 Int=      0 D2E=      0 Chk=    460 Scr=      1
 Normal termination of Gaussian 16 at Thu Aug  8 00:18:35 2024.
