 Entering Gaussian System, Link 0=g16
 Input=cutoff8_no_wat_ef.com
 Output=cutoff8_no_wat_ef.log
 Initial command:
 /usr/local/packages/license/gaussian/g16-c01/g16/l1.exe "/work/arkanil/gauss_scratch/Gau-483016.inp" -scrdir="/work/arkanil/gauss_scratch/"
 Entering Link 1 = /usr/local/packages/license/gaussian/g16-c01/g16/l1.exe PID=    483022.
  
 Copyright (c) 1988-2019, Gaussian, Inc.  All Rights Reserved.
  
 This is part of the Gaussian(R) 16 program.  It is based on
 the Gaussian(R) 09 system (copyright 2009, Gaussian, Inc.),
 the Gaussian(R) 03 system (copyright 2003, Gaussian, Inc.),
 the Gaussian(R) 98 system (copyright 1998, Gaussian, Inc.),
 the Gaussian(R) 94 system (copyright 1995, Gaussian, Inc.),
 the Gaussian 92(TM) system (copyright 1992, Gaussian, Inc.),
 the Gaussian 90(TM) system (copyright 1990, Gaussian, Inc.),
 the Gaussian 88(TM) system (copyright 1988, Gaussian, Inc.),
 the Gaussian 86(TM) system (copyright 1986, Carnegie Mellon
 University), and the Gaussian 82(TM) system (copyright 1983,
 Carnegie Mellon University). Gaussian is a federally registered
 trademark of Gaussian, Inc.
  
 This software contains proprietary and confidential information,
 including trade secrets, belonging to Gaussian, Inc.
  
 This software is provided under written license and may be
 used, copied, transmitted, or stored only in accord with that
 written license.
  
 The following legend is applicable only to US Government
 contracts under FAR:
  
                    RESTRICTED RIGHTS LEGEND
  
 Use, reproduction and disclosure by the US Government is
 subject to restrictions as set forth in subparagraphs (a)
 and (c) of the Commercial Computer Software - Restricted
 Rights clause in FAR 52.227-19.
  
 Gaussian, Inc.
 340 Quinnipiac St., Bldg. 40, Wallingford CT 06492
  
  
 ---------------------------------------------------------------
 Warning -- This program may not be used in any manner that
 competes with the business of Gaussian, Inc. or will provide
 assistance to any competitor of Gaussian, Inc.  The licensee
 of this program is prohibited from giving any competitor of
 Gaussian, Inc. access to this program.  By using this program,
 the user acknowledges that Gaussian, Inc. is engaged in the
 business of creating and licensing software in the field of
 computational chemistry and represents and warrants to the
 licensee that it is not a competitor of Gaussian, Inc. and that
 it will not use this program in any manner prohibited above.
 ---------------------------------------------------------------
  

 Cite this work as:
 Gaussian 16, Revision C.01,
 M. J. Frisch, G. W. Trucks, H. B. Schlegel, G. E. Scuseria, 
 M. A. Robb, J. R. Cheeseman, G. Scalmani, V. Barone, 
 G. A. Petersson, H. Nakatsuji, X. Li, M. Caricato, A. V. Marenich, 
 J. Bloino, B. G. Janesko, R. Gomperts, B. Mennucci, H. P. Hratchian, 
 J. V. Ortiz, A. F. Izmaylov, J. L. Sonnenberg, D. Williams-Young, 
 F. Ding, F. Lipparini, F. Egidi, J. Goings, B. Peng, A. Petrone, 
 T. Henderson, D. Ranasinghe, V. G. Zakrzewski, J. Gao, N. Rega, 
 G. Zheng, W. Liang, M. Hada, M. Ehara, K. Toyota, R. Fukuda, 
 J. Hasegawa, M. Ishida, T. Nakajima, Y. Honda, O. Kitao, H. Nakai, 
 T. Vreven, K. Throssell, J. A. Montgomery, Jr., J. E. Peralta, 
 F. Ogliaro, M. J. Bearpark, J. J. Heyd, E. N. Brothers, K. N. Kudin, 
 V. N. Staroverov, T. A. Keith, R. Kobayashi, J. Normand, 
 K. Raghavachari, A. P. Rendell, J. C. Burant, S. S. Iyengar, 
 J. Tomasi, M. Cossi, J. M. Millam, M. Klene, C. Adamo, R. Cammi, 
 J. W. Ochterski, R. L. Martin, K. Morokuma, O. Farkas, 
 J. B. Foresman, and D. J. Fox, Gaussian, Inc., Wallingford CT, 2019.
 
 ******************************************
 Gaussian 16:  ES64L-G16RevC.01  3-Jul-2019
                19-May-2026 
 ******************************************
 %chk=19NT_md_min_distance_cutoff6.chk
 %nprocshared=64
 Will use up to   64 processors via shared memory.
 %mem=200GB
 --------------------------
 # wb97xd/6-31g(d) prop=efg
 --------------------------
 1/38=1,172=1/1;
 2/12=2,17=6,18=5,40=1/2;
 3/5=1,6=6,7=1,11=2,25=1,30=1,74=-58/1,2,3;
 4//1;
 5/5=2,38=5/2;
 6/7=2,8=2,9=2,10=2,14=1,28=1/1,2;
 99/5=1,9=1/99;
 ----------------------------
 19NT_md_min_distance_cutoff6
 ----------------------------
 Symbolic Z-matrix:
 Charge = -2 Multiplicity = 1
 H                     46.95612   33.74423   30.94812 
 C                     46.354    34.588    30.601 
 H                     45.88841   34.31237   29.65551 
 C                     45.27822   34.92567   31.6394 
 H                     44.58734   34.08039   31.70652 
 H                     45.72777   35.06557   32.62441 
 C                     44.53869   36.1735   31.24629 
 C                     43.8234   36.22617   30.05602 
 H                     43.73939   35.3437   29.43827 
 C                     43.21736   37.39535   29.64586 
 H                     42.67182   37.43652   28.71471 
 C                     43.32072   38.54063   30.42964 
 O                     42.76931   39.69453   29.97242 
 H                     42.96813   40.45295   30.61826 
 C                     43.98832   38.48433   31.64532 
 H                     44.03576   39.35915   32.27286 
 C                     44.59181   37.30789   32.04296 
 H                     45.10186   37.27926   32.99446 
 C                     47.3001   35.76153   30.29172 
 O                     47.38258   36.23391   29.16611 
 N                     48.06242   36.20494   31.3057 
 H                     47.95879   35.78569   32.21625 
 C                     49.06     37.273    31.205 
 H                     48.71399   37.98255   30.45308 
 C                     49.27312   37.95571   32.55674 
 H                     49.54714   37.17812   33.28219 
 C                     50.44326   38.93163   32.45893 
 H                     50.61357   39.4029   33.42322 
 H                     50.23496   39.70877   31.7325 
 H                     51.35569   38.42418   32.15403 
 C                     48.00792   38.65315   33.08242 
 H                     47.28908   37.90268   33.41579 
 H                     48.28474   39.24005   33.95998 
 C                     47.32115   39.56993   32.07834 
 H                     46.5389   40.12978   32.58263 
 H                     46.86441   38.99714   31.27533 
 H                     48.02162   40.28475   31.65591 
 H                     50.00785   36.84146   30.8598 
 H                     49.23973   35.41625   26.932 
 C                     48.681    35.487    25.999 
 H                     49.25874   35.05753   25.18284 
 C                     47.33249   34.78048   26.14936 
 H                     46.81594   34.79568   25.18621 
 H                     46.73759   35.34331   26.87213 
 C                     47.44078   33.33645   26.64829 
 H                     47.92941   33.35316   27.62876 
 C                     46.03931   32.74982   26.81406 
 H                     46.08578   31.75716   27.25659 
 H                     45.5473   32.66875   25.84624 
 H                     45.43003   33.38348   27.45439 
 C                     48.26128   32.45997   25.70554 
 H                     48.2472   31.42591   26.04408 
 H                     47.84839   32.49675   24.69922 
 H                     49.29619   32.78822   25.66687 
 C                     48.42186   36.96822   25.65183 
 O                     48.35561   37.35411   24.49701 
 N                     48.26643   37.7963   26.70983 
 H                     48.1578   37.37555   27.62603 
 C                     48.063    39.251    26.62 
 H                     47.37679   39.47585   25.79853 
 C                     47.51275   39.75644   27.96394 
 H                     48.20116   39.41059   28.74388 
 C                     47.4518   41.27948   28.02405 
 H                     48.40835   41.72558   27.77268 
 H                     46.71242   41.65228   27.32307 
 H                     47.17366   41.59688   29.02606 
 C                     46.12732   39.17118   28.23697 
 H                     45.74847   39.54855   29.18359 
 H                     46.15427   38.0869   28.30061 
 H                     45.43046   39.45665   27.4514 
 C                     49.40461   39.9523   26.26868 
 O                     49.41933   40.95162   25.57674 
 N                     50.5121   39.41394   26.81916 
 H                     50.43902   38.51588   27.27261 
 C                     51.864    39.888    26.503 
 H                     51.834    40.98053   26.56723 
 C                     52.93921   39.32481   27.41538 
 H                     52.77276   39.57919   28.46172 
 H                     53.01824   38.2438   27.29613 
 C                     54.23426   39.99382   26.92075 
 O                     54.5297   41.11373   27.35536 
 O                     54.85539   39.38747   26.0059 
 H                     52.09206   39.61807   25.46289 
 H                     48.67353   38.83942   22.56343 
 C                     48.927    39.653    21.895 
 H                     49.09414   40.54697   22.48142 
 H                     49.83264   39.40476   21.35776 
 H                     48.1249   39.82252   21.18594 
 H                     43.40657   34.19376   25.17926 
 C                     42.526    34.831    25.164 
 H                     42.1771   34.95751   26.18604 
 C                     42.85472   36.18965   24.54687 
 H                     43.23714   36.01544   23.53148 
 C                     41.58929   37.04292   24.45941 
 H                     41.14753   37.159    25.44603 
 H                     40.8522   36.57217   23.81157 
 H                     41.80173   38.039    24.07631 
 C                     43.94533   36.89356   25.36325 
 H                     43.5072   37.29416   26.27839 
 H                     44.69969   36.16125   25.65279 
 C                     44.63904   38.01676   24.60252 
 H                     45.41926   38.45129   25.2191 
 H                     45.11676   37.62315   23.70476 
 H                     43.93667   38.80587   24.33864 
 H                     41.7468   34.328    24.59518 
 H                     37.88469   32.99119   28.1922 
 C                     36.813    32.932    28.368 
 H                     36.64933   32.78658   29.43199 
 C                     36.1263   34.21383   27.89757 
 H                     36.24993   34.31821   26.81688 
 H                     35.05845   34.15966   28.11697 
 C                     36.74914   35.37981   28.60651 
 C                     37.92713   35.93525   28.12878 
 H                     38.34736   35.57734   27.1982 
 C                     38.57514   36.93322   28.82822 
 H                     39.49562   37.35348   28.45258 
 C                     38.05136   37.39762   30.03001 
 O                     38.66709   38.3684   30.7454 
 H                     39.34796   38.78418   30.19318 
 C                     36.86842   36.84792   30.51477 
 H                     36.46215   37.21072   31.44462 
 C                     36.23036   35.85115   29.80507 
 H                     35.30912   35.43457   30.18699 
 H                     36.42139   32.06513   27.83729 
 H                     33.36485   40.90844   31.25912 
 C                     34.276    41.437    31.542 
 H                     34.74498   40.93335   32.38589 
 C                     35.23517   41.50265   30.34627 
 H                     34.7006   41.96822   29.51063 
 C                     36.44715   42.36675   30.6877 
 H                     37.192    42.3193   29.89454 
 H                     36.14766   43.40426   30.80759 
 H                     36.8994   42.03438   31.61918 
 C                     35.67854   40.10167   29.93443 
 H                     34.82254   39.46351   29.72339 
 H                     36.30244   40.1441   29.04273 
 H                     36.25879   39.64491   30.7315 
 C                     33.89302   42.87392   31.94112 
 O                     33.22731   43.58357   31.20351 
 N                     34.38615   43.28913   33.12247 
 H                     34.88256   42.62873   33.71368 
 C                     34.188    44.613    33.699 
 H                     33.50039   45.15594   33.0422 
 C                     33.63749   44.51806   35.12488 
 H                     34.34468   43.9499   35.73209 
 H                     33.57113   45.52765   35.53684 
 C                     32.28339   43.83613   35.18397 
 H                     32.32166   42.86647   34.68273 
 H                     31.49734   44.43902   34.73058 
 C                     31.84055   43.50898   36.67542 
 O                     32.76962   43.25785   37.45154 
 O                     30.62931   43.52077   36.86225 
 C                     35.57693   45.2987   33.71958 
 O                     36.37292   45.058    34.61742 
 N                     35.85797   46.09813   32.68259 
 H                     35.16847   46.26626   31.96447 
 C                     37.164    46.712    32.465 
 H                     37.694    46.6634   33.41629 
 C                     37.9468   45.93744   31.39965 
 H                     37.48743   46.074    30.4189 
 H                     37.95466   44.87135   31.6405 
 C                     39.41507   46.42122   31.35547 
 O                     39.78712   47.15844   32.27484 
 O                     40.13243   46.00897   30.4174 
 C                     37.01061   48.15529   31.9684 
 O                     36.48321   48.36507   30.88246 
 N                     37.54371   49.14006   32.70379 
 C                     37.43756   50.51687   32.24431 
 H                     38.28963   50.74346   31.59341 
 H                     36.51607   50.6383   31.67184 
 C                     37.48241   51.34847   33.52001 
 H                     37.86869   52.35133   33.35045 
 H                     36.48389   51.41299   33.95235 
 C                     38.38606   50.51301   34.42164 
 H                     38.27506   50.74725   35.4786 
 H                     39.43024   50.65553   34.14572 
 C                     37.95     49.082    34.098 
 H                     38.75234   48.3608   34.25944 
 C                     36.6966   48.71628   34.94295 
 O                     35.57486   48.99577   34.55742 
 N                     36.9498   48.12533   36.11969 
 H                     37.89572   47.82988   36.33374 
 C                     35.909    47.832    37.091 
 H                     34.96736   47.72767   36.54491 
 C                     36.20104   46.5734   37.90883 
 H                     37.22291   46.62362   38.29404 
 H                     36.11505   45.69645   37.26777 
 C                     35.22629   46.51169   39.05093 
 C                     34.14262   45.64587   39.03717 
 H                     34.00907   44.95265   38.22156 
 C                     33.20981   45.66678   40.05997 
 H                     32.36425   44.99761   40.01769 
 C                     33.34765   46.55316   41.11301 
 H                     32.61455   46.5765   41.90819 
 C                     34.42919   47.41982   41.13796 
 H                     34.53994   48.12469   41.95239 
 C                     35.35941   47.39777   40.11487 
 H                     36.19909   48.07787   40.13936 
 H                     35.80867   48.69068   37.76934 
 H                     36.94251   44.12374   22.07562 
 C                     37.317    44.529    23.018 
 H                     37.13792   45.60317   23.03591 
 C                     36.63682   43.8566   24.22048 
 H                     36.60511   42.77213   24.0841 
 H                     35.60319   44.20705   24.26889 
 C                     37.34905   44.1935   25.5082 
 C                     37.34043   45.49486   25.99645 
 H                     36.7839   46.25867   25.47099 
 C                     38.02164   45.81579   27.1567 
 H                     37.99483   46.8256   27.5363 
 C                     38.73107   44.84477   27.84674 
 H                     39.26512   45.10899   28.75047 
 C                     38.7318   43.54431   27.37274 
 H                     39.26499   42.76964   27.90482 
 C                     38.04263   43.22176   26.21567 
 H                     38.0317   42.19368   25.87701 
 C                     38.83744   44.35569   23.01074 
 O                     39.58706   45.28518   22.73599 
 N                     39.33422   43.11288   23.21822 
 H                     38.72993   42.42949   23.6497 
 C                     40.763    42.802    23.272 
 H                     41.25505   43.34495   24.08616 
 C                     40.95696   41.28282   23.44974 
 H                     40.25809   40.76486   22.78682 
 H                     41.97649   41.04683   23.13135 
 C                     40.78063   40.82837   24.87182 
 C                     39.61955   40.20715   25.31086 
 H                     38.8083   40.02319   24.61799 
 C                     39.48862   39.79238   26.62256 
 H                     38.58304   39.31644   26.96534 
 C                     40.53838   39.98081   27.52039 
 O                     40.4039   39.55223   28.78861 
 H                     41.26303   39.66193   29.27314 
 C                     41.712    40.58889   27.07859 
 H                     42.53181   40.71132   27.76887 
 C                     41.82006   41.01743   25.77458 
 H                     42.72851   41.49782   25.44412 
 C                     41.49492   43.1585   21.96195 
 O                     42.71684   43.26708   21.96222 
 N                     40.79363   43.17748   20.8129 
 H                     39.78346   43.21198   20.8442 
 C                     41.395    43.524    19.526 
 H                     42.48183   43.436    19.6498 
 C                     40.92385   42.60158   18.41389 
 H                     39.86877   42.36726   18.56721 
 H                     41.01085   43.15486   17.47689 
 C                     41.745    41.3136   18.29355 
 H                     41.30878   40.71816   17.49081 
 H                     42.76555   41.5602   17.99765 
 C                     41.80395   40.44493   19.56138 
 H                     40.88799   40.58687   20.14992 
 H                     41.86973   39.39505   19.26602 
 N                     42.98414   40.73773   20.34968 
 H                     43.19544   41.71358   20.5193 
 C                     43.6145   39.84956   21.14818 
 N                     43.14646   38.58074   21.31334 
 H                     42.15145   38.43521   21.25195 
 H                     43.60351   38.02931   22.02532 
 N                     44.76499   40.21361   21.75662 
 H                     45.25208   41.04184   21.45433 
 H                     45.32307   39.52154   22.23022 
 C                     41.22556   45.04632   19.18574 
 O                     41.57275   45.44931   18.09552 
 N                     40.79442   45.81211   20.19521 
 H                     40.41543   45.38771   21.03422 
 C                     40.928    47.267    20.313 
 H                     41.21801   47.65489   19.33132 
 C                     39.62563   47.88786   20.78648 
 H                     39.76969   48.96409   20.88538 
 H                     39.34887   47.48501   21.76146 
 C                     38.50128   47.60286   19.76873 
 H                     37.84855   48.4713   19.68389 
 H                     38.94474   47.40806   18.79079 
 C                     37.67089   46.38944   20.15147 
 O                     38.05088   45.23742   20.07075 
 N                     36.43423   46.69539   20.59926 
 H                     36.11812   47.64318   20.69908 
 H                     35.80762   45.9567   20.8745 
 C                     42.18783   47.38441   21.22888 
 O                     43.27704   47.65648   20.75569 
 N                     42.01736   46.99133   22.5023 
 H                     41.09653   46.70374   22.80458 
 C                     43.019    47.115    23.555 
 H                     42.69974   46.48836   24.39015 
 H                     43.07565   48.15353   23.89902 
 C                     44.46972   46.71486   23.20317 
 O                     45.39567   47.44504   23.48883 
 N                     44.659    45.49205   22.66129 
 H                     43.87476   44.88845   22.44992 
 C                     45.983    44.912    22.455 
 H                     46.6967   45.51168   23.02661 
 C                     45.98392   43.45202   22.8986 
 H                     45.23787   42.93446   22.28995 
 H                     46.96723   43.02854   22.69204 
 C                     45.62601   43.251    24.37445 
 H                     44.66019   43.73401   24.56325 
 C                     45.48869   41.75709   24.65633 
 H                     45.19168   41.59346   25.68924 
 H                     44.73852   41.30993   24.00759 
 H                     46.44202   41.26107   24.49041 
 C                     46.67156   43.86238   25.29696 
 H                     47.63941   43.39409   25.13709 
 H                     46.75433   44.93191   25.13254 
 H                     46.39192   43.70954   26.33567 
 C                     46.40962   44.98797   20.95978 
 O                     47.34566   44.32456   20.54332 
 N                     45.70323   45.80051   20.14025 
 H                     44.97137   46.39847   20.51057 
 C                     45.882    45.789    18.692 
 H                     46.05586   44.75934   18.36455 
 H                     44.97078   46.16237   18.22429 
 C                     47.06527   46.60668   18.12681 
 O                     47.35171   46.51417   16.95121 
 N                     47.77121   47.39181   18.97878 
 H                     47.47823   47.45438   19.94205 
 C                     48.878    48.229    18.53 
 H                     48.94312   49.12794   19.14084 
 H                     48.68732   48.51183   17.48983 
 C                     50.26209   47.53399   18.53179 
 O                     51.27492   48.18997   18.39855 
 N                     50.28624   46.19111   18.71548 
 H                     49.41114   45.68969   18.75555 
 C                     51.51     45.384    18.615 
 H                     51.24253   44.36623   18.91608 
 H                     51.88436   45.36259   17.58638 
 C                     52.6159   45.92396   19.48379 
 O                     53.8437   45.64877   19.07261 
 N                     52.32864   46.50431   20.67375 
 H                     51.37236   46.82407   20.74824 
 C                     53.245    47.177    21.576 
 H                     54.24606   46.76517   21.45404 
 C                     53.25749   48.69568   21.3394 
 H                     52.22144   49.03375   21.26741 
 H                     53.70255   49.16973   22.21565 
 C                     54.00823   49.1281   20.08033 
 H                     53.68835   50.14516   19.85309 
 H                     53.69435   48.51266   19.23732 
 C                     55.53802   49.11842   20.23438 
 H                     55.7987   49.02557   21.29092 
 H                     55.93347   50.07539   19.89201 
 C                     56.27089   48.03164   19.44887 
 H                     57.33555   48.30078   19.39596 
 H                     55.88569   47.98436   18.42705 
 N                     56.08896   46.70588   20.04959 
 H                     56.66672   46.02731   19.5624 
 H                     54.5819   46.11783   19.57516 
 H                     56.4011   46.72957   21.01717 
 C                     52.85239   46.95596   23.06783 
 O                     53.62884   47.34328   23.91659 
 N                     51.63358   46.44342   23.33796 
 H                     51.19217   45.84755   22.65328 
 C                     51.26     46.169    24.731 
 H                     51.57078   47.04336   25.3131 
 C                     49.7655   45.92569   24.918 
 H                     49.48961   44.9907   24.41736 
 C                     49.4813   45.81194   26.41516 
 H                     49.96398   44.93595   26.83914 
 H                     49.84722   46.69365   26.93595 
 H                     48.41386   45.73374   26.5946 
 C                     48.97112   47.08494   24.31692 
 H                     49.25532   48.01638   24.79851 
 H                     49.15064   47.18047   23.24785 
 H                     47.90418   46.94635   24.47092 
 C                     52.15584   44.98223   25.18191 
 O                     52.41365   44.07182   24.38999 
 N                     52.6832   45.07443   26.3968 
 H                     52.48059   45.90251   26.95786 
 C                     53.485    44.06     27.077 
 H                     53.48572   43.13951   26.49679 
 C                     54.9092   44.55747   27.36141 
 H                     55.52596   43.67676   27.5475 
 H                     54.89345   45.15416   28.27618 
 C                     55.50652   45.43203   26.25658 
 H                     56.50716   45.73645   26.57349 
 H                     54.90583   46.33392   26.13088 
 C                     55.595    44.75107   24.88851 
 H                     54.60448   44.61875   24.46515 
 H                     56.16044   45.39892   24.21042 
 N                     56.26225   43.46839   24.95578 
 H                     57.17296   43.49552   25.39127 
 C                     55.69614   42.25206   24.86724 
 N                     54.4633   42.0906   24.38724 
 H                     53.7667   42.839    24.3535 
 H                     54.10206   41.15092   24.44131 
 N                     56.42214   41.17036   25.10004 
 H                     57.32297   41.29853   25.53186 
 H                     55.8423   40.29237   25.45048 
 C                     52.76827   43.83792   28.44039 
 O                     52.13477   44.76728   28.9245 
 N                     52.88159   42.64114   29.01563 
 H                     53.45305   41.91248   28.56709 
 C                     52.152    42.334    30.246 
 H                     52.03313   43.26918   30.80366 
 C                     50.77308   41.76497   29.90673 
 H                     50.16404   41.70893   30.80537 
 H                     50.86778   40.77555   29.46466 
 H                     50.28067   42.42294   29.19423 
 C                     52.9432   41.31665   31.10132 
 O                     53.37907   40.28678   30.61725 
 N                     53.07505   41.62798   32.40703 
 H                     52.67961   42.50232   32.74565 
 C                     53.824    40.797    33.354 
 H                     54.46474   40.1477   32.75081 
 C                     54.64925   41.65122   34.30518 
 H                     54.87253   42.61828   33.85861 
 H                     55.57613   41.14704   34.5784 
 S                     53.70314   41.93458   35.85695 
 H                     54.33686   43.04168   36.23795 
 H                     53.13245   40.16417   33.92251 
 H                     45.43697   38.7857   40.55701 
 C                     46.435    38.561    40.187 
 H                     46.96145   37.97594   40.9377 
 C                     46.34362   37.79227   38.87394 
 H                     45.8284   36.84575   39.05269 
 H                     47.34332   37.56378   38.49644 
 C                     45.57414   38.59794   37.83924 
 H                     46.15199   39.45929   37.50285 
 H                     44.61713   38.92201   38.2526 
 S                     45.19719   37.64512   36.33101 
 C                     43.80976   36.65881   36.96209 
 H                     44.18175   35.87679   37.61875 
 H                     43.13573   37.31754   37.50309 
 H                     43.31279   36.20921   36.10891 
 H                     46.96954   39.4982   40.04503 
 H                     49.43046   42.7172   37.91992 
 C                     50.213    42.685    37.162 
 H                     51.15876   42.40486   37.6331 
 C                     49.85708   41.66088   36.07835 
 H                     50.65923   41.59689   35.33986 
 H                     49.76781   40.67967   36.55577 
 C                     48.56214   42.00723   35.39774 
 C                     48.53299   42.40582   34.06914 
 H                     49.45653   42.47727   33.51027 
 C                     47.33161   42.72355   33.45725 
 H                     47.31844   43.02266   32.41958 
 C                     46.14987   42.66543   34.17265 
 H                     45.21396   42.93173   33.70662 
 C                     46.17206   42.2776   35.50152 
 H                     45.25092   42.25615   36.06223 
 C                     47.36772   41.94237   36.10565 
 H                     47.38594   41.64974   37.14495 
 C                     50.34909   44.11549   36.63744 
 O                     49.7408   45.04977   37.12162 
 N                     51.22214   44.27443   35.62864 
 H                     51.71994   43.47722   35.25984 
 C                     51.54     45.542    34.998 
 H                     50.81193   46.2866   35.32319 
 C                     52.95379   45.98166   35.38212 
 H                     52.92182   46.35035   36.40623 
 H                     53.62104   45.11539   35.33546 
 C                     53.4794   47.06776   34.4538 
 H                     53.66891   46.64639   33.46451 
 H                     52.7296   47.85218   34.34795 
 C                     54.76796   47.68416   34.98773 
 H                     55.3161   48.13781   34.15714 
 H                     55.4029   46.90366   35.42646 
 N                     54.45464   48.66799   35.99889 
 H                     53.6109   48.48139   36.60908 
 C                     55.06177   49.82644   36.14993 
 N                     56.14099   50.16225   35.40528 
 H                     56.25643   49.75463   34.46888 
 H                     56.44819   51.11858   35.47198 
 N                     54.65185   50.62205   37.13542 
 H                     53.73958   50.43355   37.6627 
 H                     55.04329   51.54379   37.21293 
 C                     51.44122   45.33166   33.47578 
 O                     51.8856   44.30471   32.95742 
 N                     50.84804   46.31578   32.80105 
 H                     50.5328   47.14148   33.30947 
 C                     50.84     46.417    31.354 
 H                     51.3716   45.54211   30.9652 
 C                     49.42996   46.41794   30.73719 
 H                     49.5634   46.50635   29.65334 
 C                     48.74454   45.09156   31.04853 
 H                     48.62464   44.98218   32.12365 
 H                     49.33645   44.26082   30.67395 
 H                     47.76223   45.05893   30.58121 
 C                     48.58314   47.58217   31.23003 
 H                     48.49388   47.55804   32.31323 
 H                     47.58571   47.52997   30.7984 
 H                     49.03078   48.52188   30.92333 
 C                     51.6476   47.6781   30.96409 
 O                     51.61292   48.68784   31.65222 
 N                     52.4096   47.57262   29.8667 
 H                     52.38129   46.71307   29.32867 
 C                     53.236    48.657    29.347 
 H                     53.02346   49.54477   29.94669 
 C                     54.73665   48.34231   29.43018 
 H                     55.27883   49.20986   29.04321 
 H                     54.94835   47.48115   28.78946 
 C                     55.21908   48.08468   30.85762 
 H                     55.99856   47.31893   30.86712 
 H                     54.40422   47.73166   31.49119 
 C                     55.83675   49.34538   31.57263 
 O                     55.89863   50.40167   30.94663 
 O                     56.21584   49.13121   32.74794 
 C                     52.82886   48.90756   27.87938 
 O                     52.51802   47.96737   27.15287 
 N                     52.83192   50.18741   27.47246 
 H                     53.14442   50.90755   28.11613 
 C                     52.401    50.618    26.143 
 H                     52.98977   50.05066   25.40345 
 C                     50.92071   50.27081   25.918 
 H                     50.82996   49.19056   26.04612 
 H                     50.65187   50.49994   24.88346 
 C                     49.95593   50.95296   26.88869 
 H                     50.34141   51.90287   27.25217 
 H                     48.9916   51.13017   26.41141 
 S                     49.63128   49.90712   28.36486 
 C                     50.06923   51.0586   29.68991 
 H                     51.09794   51.37728   29.56098 
 H                     49.38715   51.9049   29.67917 
 H                     49.98203   50.51724   30.62542 
 C                     52.7698   52.11266   25.90658 
 O                     53.83057   52.55065   26.30181 
 N                     51.91042   52.85063   25.15929 
 H                     50.96837   52.53248   24.98399 
 C                     52.113    54.245    24.763 
 H                     52.98314   54.61749   25.31002 
 C                     52.34507   54.34496   23.24374 
 H                     51.43447   53.99161   22.7475 
 C                     52.59609   55.79576   22.84122 
 H                     53.47732   56.18283   23.34908 
 H                     52.76319   55.86292   21.7684 
 H                     51.74357   56.42043   23.0948 
 C                     53.51853   53.4631   22.824 
 H                     54.42218   53.76508   23.34804 
 H                     53.32237   52.4209   23.06152 
 H                     53.68989   53.54825   21.75294 
 C                     50.81861   55.01642   25.13691 
 O                     49.73962   54.51224   24.89775 
 N                     50.97168   56.25456   25.65293 
 H                     51.89834   56.55436   25.9124 
 C                     49.863    57.09     26.119 
 H                     48.96748   56.47267   26.02686 
 C                     50.03073   57.56057   27.56693 
 H                     50.54882   56.77829   28.12252 
 H                     50.62636   58.47501   27.60914 
 C                     48.69446   57.77064   28.19726 
 C                     48.08984   58.93002   28.58158 
 H                     48.45393   59.9393   28.52959 
 N                     46.84867   58.66307   29.1 
 H                     46.2207   59.34285   29.49205 
 C                     46.633    57.31342   29.06516 
 C                     45.54701   56.55538   29.48607 
 H                     44.68019   57.02125   29.93199 
 C                     45.62139   55.18971   29.31612 
 H                     44.79744   54.56836   29.63414 
 C                     46.7447   54.5872   28.74129 
 H                     46.75582   53.51775   28.60511 
 C                     47.82663   55.33007   28.33151 
 H                     48.6921   54.85577   27.89549 
 C                     47.77756   56.71426   28.49406 
 H                     49.76423   57.95124   25.44865 
 H                     54.36279   54.2869   28.87892 
 C                     53.834    54.416    29.825 
 H                     54.47751   54.93047   30.53933 
 C                     52.55137   55.21173   29.6085 
 H                     51.9357   55.21735   30.51057 
 H                     52.76797   56.2398   29.31449 
 S                     51.56386   54.48157   28.25314 
 H                     52.01188   53.24454   28.46639 
 C                     53.43699   53.03228   30.34611 
 O                     53.06104   52.16341   29.55924 
 N                     53.42154   52.8728   31.66474 
 H                     53.64145   53.6537   32.2646 
 C                     53.015    51.669    32.365 
 H                     52.95018   50.85364   31.64455 
 C                     54.02563   51.35136   33.45578 
 H                     54.04373   52.15438   34.19255 
 H                     55.00928   51.2308   33.01152 
 H                     53.73746   50.42756   33.94646 
 C                     51.64594   51.90358   33.06199 
 O                     51.26075   53.03952   33.29337 
 N                     51.01427   50.78747   33.44563 
 H                     51.2984   49.89721   33.0487 
 C                     49.755    50.767    34.187 
 H                     49.73486   51.66102   34.81689 
 C                     48.56852   50.75982   33.21374 
 H                     48.61218   49.82611   32.6541 
 H                     48.70178   51.58886   32.51453 
 C                     47.19298   50.88448   33.87858 
 H                     47.16194   50.23442   34.75872 
 C                     46.9329   52.32204   34.31127 
 H                     47.7064   52.6631   34.98954 
 H                     46.92187   52.97237   33.43893 
 H                     45.97566   52.41267   34.8146 
 C                     46.11705   50.42694   32.89492 
 H                     46.2679   49.38603   32.61985 
 H                     46.15418   51.03179   31.99092 
 H                     45.12775   50.52903   33.33226 
 C                     49.72573   49.50424   35.05955 
 O                     49.90197   48.3937   34.56622 
 N                     49.46956   49.70023   36.35443 
 H                     49.37885   50.64955   36.70199 
 C                     49.451    48.628    37.347 
 H                     49.94262   47.75914   36.8924 
 C                     50.28009   49.05073   38.55159 
 H                     49.93702   50.00106   38.96171 
 H                     50.22874   48.27784   39.32037 
 C                     51.76029   49.19362   38.09042 
 O                     52.25184   48.24079   37.45599 
 O                     52.35854   50.24923   38.37668 
 C                     47.95342   48.24807   37.59894 
 O                     47.14014   49.1178   37.89104 
 N                     47.61623   46.96286   37.38941 
 H                     48.3457   46.26757   37.24385 
 C                     46.253    46.438    37.253 
 H                     45.55863   47.20694   37.6037 
 C                     45.96877   46.07599   35.77595 
 H                     46.61949   45.23233   35.51699 
 C                     44.51011   45.66124   35.59568 
 H                     44.29881   45.51771   34.53886 
 H                     44.28606   44.72976   36.10695 
 H                     43.84677   46.43497   35.97489 
 C                     46.29268   47.24729   34.85203 
 H                     46.07431   46.96891   33.82316 
 H                     47.34306   47.51973   34.91582 
 H                     45.68879   48.11399   35.10932 
 C                     46.08765   45.13468   38.07124 
 O                     46.9657   44.29529   38.12293 
 N                     44.88089   44.94121   38.66379 
 H                     44.18317   45.67867   38.66306 
 C                     44.549    43.701    39.371 
 H                     45.41519   43.04402   39.23615 
 C                     44.29871   43.93908   40.87154 
 H                     43.44852   44.62251   40.96037 
 C                     43.93996   42.61273   41.53987 
 H                     43.72012   42.7628   42.59317 
 H                     43.06095   42.171    41.07537 
 H                     44.76613   41.90824   41.45566 
 C                     45.52397   44.59156   41.51704 
 H                     45.86187   45.4087   40.87812 
 H                     46.33434   43.86122   41.57249 
 C                     45.23594   45.14931   42.90574 
 H                     44.4172   45.86406   42.86307 
 H                     46.1153   45.65902   43.2927 
 H                     44.96774   44.36003   43.60424 
 C                     43.29042   43.09223   38.73567 
 O                     42.21235   43.65546   38.8196 
 N                     43.4414   41.91454   38.09915 
 H                     44.33081   41.4388   38.12522 
 C                     42.317    41.201    37.522 
 H                     41.52258   41.93808   37.36309 
 C                     42.64639   40.49855   36.21178 
 H                     43.5809   39.93594   36.28278 
 H                     41.85127   39.78533   35.98205 
 C                     42.75952   41.43107   35.02041 
 O                     42.81784   42.62961   35.07251 
 O                     42.80257   40.72311   33.90589 
 H                     42.91635   41.28851   33.08849 
 C                     41.79834   40.11083   38.50071 
 O                     42.54277   39.23213   38.92127 
 N                     40.50075   40.19484   38.80508 
 H                     39.93689   40.92905   38.36809 
 C                     39.76     39.18     39.55 
 H                     40.47926   38.58079   40.11729 
 C                     38.72925   39.85249   40.47159 
 H                     38.07705   40.46104   39.84035 
 C                     37.85682   38.82992   41.1918 
 H                     37.06547   39.35796   41.71701 
 H                     38.43959   38.25103   41.90747 
 H                     37.38524   38.14921   40.4866 
 C                     39.43421   40.76222   41.47204 
 H                     40.02552   41.51586   40.95906 
 H                     40.09312   40.18364   42.11811 
 H                     38.69598   41.2664   42.08903 
 C                     39.03798   38.32215   38.49283 
 O                     38.53186   38.83528   37.5109 
 N                     38.98765   36.98762   38.6891 
 H                     39.46848   36.58598   39.47786 
 C                     38.331    36.071    37.764 
 H                     37.65401   36.6694   37.15188 
 C                     39.33419   35.33628   36.87176 
 H                     38.80704   34.54824   36.33126 
 H                     40.10299   34.86408   37.48809 
 C                     39.98808   36.27854   35.87458 
 H                     40.56638   37.05069   36.38309 
 H                     39.23595   36.74733   35.24095 
 S                     41.12692   35.36017   34.77646 
 C                     41.49286   36.68152   33.59023 
 H                     41.91753   37.53648   34.10881 
 H                     42.21683   36.28735   32.88456 
 H                     40.58074   36.95996   33.06898 
 H                     37.75064   35.35162   38.34697 
 H                     36.60177   31.6253   31.96626 
 C                     36.768    32.394    32.719 
 H                     37.24394   31.92964   33.58085 
 C                     37.64795   33.51586   32.16713 
 H                     37.13503   33.97621   31.31613 
 C                     37.8618   34.59265   33.2255 
 H                     36.91118   34.89132   33.66271 
 H                     38.32193   35.47101   32.7823 
 H                     38.51038   34.22039   34.01494 
 C                     38.98072   32.9444   31.67241 
 H                     38.77159   32.12797   30.9754 
 H                     39.5268   32.52431   32.52056 
 C                     39.85728   33.97692   30.97339 
 H                     39.29618   34.49177   30.19654 
 H                     40.22563   34.71389   31.67973 
 H                     40.71831   33.4927   30.51671 
 H                     35.80119   32.78377   33.03011 
 H                     35.54444   38.64707   34.62147 
 C                     36.5      39.053    34.953 
 H                     36.84627   38.51798   35.8361 
 C                     37.53402   38.93305   33.82897 
 H                     37.64242   37.87761   33.5592 
 H                     37.17089   39.46094   32.94502 
 C                     38.9041   39.48284   34.21589 
 H                     39.09775   39.31843   35.27507 
 H                     39.69027   39.01579   33.62453 
 S                     39.08872   41.28024   33.94549 
 C                     39.70642   41.25028   32.23408 
 H                     39.0037   40.71428   31.60436 
 H                     40.68421   40.77594   32.2129 
 H                     39.788    42.28264   31.90881 
 C                     36.28278   40.53691   35.29656 
 O                     35.48411   41.19744   34.65022 
 N                     37.01308   41.02933   36.30673 
 H                     37.6553   40.41719   36.79631 
 C                     36.95     42.397    36.82 
 H                     36.31567   42.9735   36.14412 
 C                     36.41117   42.4041   38.25456 
 H                     37.21325   42.09262   38.92707 
 H                     36.12342   43.42166   38.52233 
 C                     35.21635   41.46434   38.42459 
 H                     34.43005   41.73846   37.72357 
 H                     35.52766   40.43387   38.24332 
 C                     34.69894   41.57204   39.84927 
 O                     35.25354   41.03318   40.79503 
 N                     33.59012   42.31041   39.95631 
 H                     33.16977   42.73553   39.1287 
 H                     33.21428   42.50708   40.8688 
 C                     38.39569   42.94522   36.82005 
 O                     39.26503   42.35225   37.45823 
 N                     38.63272   44.05565   36.12369 
 H                     37.88835   44.48817   35.58045 
 C                     39.963    44.652    35.992 
 H                     40.67504   43.93295   36.40819 
 C                     40.29581   44.93566   34.53868 
 H                     41.36122   45.12922   34.44656 
 H                     39.74719   45.79881   34.17289 
 H                     40.04671   44.06832   33.9331 
 C                     39.99435   45.94615   36.83911 
 O                     39.48748   46.98871   36.4466 
 N                     40.57622   45.84436   38.0409 
 H                     41.08087   45.00036   38.29277 
 C                     40.667    46.954    38.984 
 H                     39.74208   47.53757   38.90543 
 C                     40.84894   46.41297   40.40399 
 H                     41.24742   47.21041   41.03425 
 H                     41.57572   45.60137   40.36564 
 C                     39.53628   45.92742   40.94953 
 C                     39.0642   44.64985   40.6674 
 H                     39.66732   43.9786   40.07487 
 C                     37.82956   44.23563   41.127 
 H                     37.44815   43.24941   40.9212 
 C                     37.0343   45.10058   41.87109 
 O                     35.82091   44.66043   42.29951 
 H                     35.29311   45.4096   42.60317 
 C                     37.50576   46.37229   42.1714 
 H                     36.89943   47.04519   42.76269 
 C                     38.74329   46.77707   41.70819 
 H                     39.0962   47.77251   41.94012 
 C                     41.86457   47.86391   38.58224 
 O                     43.0125   47.46867   38.73683 
 N                     41.55282   49.07291   38.09186 
 H                     40.59571   49.33526   37.88071 
 C                     42.518    50.112    37.763 
 H                     43.16174   50.2612   38.64138 
 C                     43.43233   49.72137   36.57833 
 H                     44.24466   50.44566   36.50257 
 H                     43.8709   48.75214   36.82161 
 C                     42.69303   49.63925   35.28566 
 C                     41.9731   48.56216   34.83871 
 H                     41.80911   47.61834   35.32089 
 N                     41.42086   48.82248   33.62762 
 H                     40.83696   48.18501   33.08469 
 C                     41.75567   50.0865   33.25955 
 C                     41.41985   50.79667   32.1123 
 H                     40.79473   50.34599   31.35525 
 C                     41.90592   52.07994   31.9867 
 H                     41.66126   52.66323   31.11019 
 C                     42.71823   52.64076   32.97634 
 H                     43.08779   53.64749   32.84436 
 C                     43.05683   51.9429   34.11435 
 H                     43.68985   52.39878   34.85683 
 C                     42.56906   50.64606   34.28017 
 C                     41.77336   51.43404   37.47338 
 O                     40.55664   51.47621   37.45968 
 N                     42.5868   52.48285   37.27737 
 H                     43.5931   52.35542   37.26154 
 C                     42.195    53.859    37.015 
 H                     41.39549   53.88321   36.2697 
 C                     41.71644   54.54272   38.31731 
 H                     41.06653   53.83603   38.85343 
 H                     41.13499   55.43326   38.06663 
 O                     42.7644   54.99216   39.13569 
 H                     43.39303   54.27653   39.33032 
 C                     43.45778   54.61458   36.50031 
 O                     44.4954   53.98581   36.30325 
 N                     43.34294   55.92651   36.33256 
 H                     42.44026   56.4176   36.48059 
 C                     44.451    56.821    35.991 
 H                     45.09195   56.31261   35.26232 
 C                     43.91557   58.13059   35.42784 
 H                     44.76725   58.71157   35.06071 
 H                     43.27084   57.91289   34.57325 
 C                     43.14665   58.96063   36.45638 
 H                     43.30062   60.02715   36.29072 
 H                     43.46047   58.71062   37.47121 
 C                     41.57219   58.72805   36.416 
 O                     41.20979   57.54476   36.44278 
 O                     40.9147   59.76181   36.37274 
 H                     45.04368   57.01167   36.89475 
 H                     47.47928   54.69176   38.80573 
 C                     47.86     53.724    38.486 
 H                     48.46612   53.27941   39.27484 
 C                     46.71164   52.77672   38.08858 
 H                     46.10527   53.27772   37.32941 
 H                     47.13978   51.8704   37.65873 
 C                     45.778    52.38814   39.21702 
 O                     45.02522   53.17063   39.77675 
 N                     45.81363   51.08208   39.53011 
 H                     46.35166   50.40862   38.99697 
 H                     45.18903   50.7353   40.24058 
 C                     48.71416   53.81421   37.20224 
 O                     49.39078   52.86496   36.84156 
 N                     48.613    54.94943   36.47735 
 H                     47.98668   55.6661   36.81139 
 C                     49.23     55.22     35.169 
 H                     49.573    54.27226   34.75412 
 C                     48.22821   55.92034   34.26053 
 H                     47.87684   56.82326   34.77101 
 H                     47.36656   55.27134   34.10061 
 C                     48.82889   56.32322   32.90894 
 H                     49.81338   56.77186   33.09026 
 C                     49.00432   55.11882   31.98896 
 H                     48.04434   54.63885   31.81197 
 H                     49.39509   55.43614   31.02354 
 H                     49.68785   54.39468   32.42364 
 C                     47.94093   57.36877   32.23661 
 H                     46.95467   56.95339   32.04348 
 H                     47.82971   58.24988   32.86659 
 H                     48.37328   57.67504   31.28714 
 H                     50.10652   55.86116   35.32317 
 C                     43.44387   42.78393   30.94418 
 O                     43.23809   41.6846   31.51893 
 C                     43.23767   44.02503   31.56241 
 C                     43.35769   45.2179   30.89822 
 C                     43.93207   45.27945   29.51055 
 C                     44.71684   44.00594   29.19514 
 C                     43.86235   42.78632   29.49675 
 C                     42.77289   46.42828   31.44672 
 C                     43.45591   47.74062   31.08659 
 C                     43.87717   47.77643   29.62163 
 C                     44.76812   46.56061   29.32257 
 C                     44.65832   49.04549   29.31665 
 C                     45.16637   49.11769   27.86951 
 C                     46.11663   47.9458   27.64172 
 C                     45.40029   46.62245   27.92503 
 C                     43.96825   50.39202   29.51299 
 C                     44.9054   51.3665   28.78096 
 C                     45.83464   50.51142   27.89098 
 C                     44.05541   49.1186   26.81317 
 O                     45.97679   51.11941   26.62606 
 H                     42.86099   44.01541   32.57607 
 H                     43.07459   45.33487   28.82402 
 H                     45.62501   43.97658   29.80211 
 H                     45.00754   43.99023   28.14441 
 H                     42.94988   42.82117   28.89123 
 H                     44.39524   41.86109   29.26375 
 H                     42.60889   46.35463   32.52128 
 H                     41.7343   46.41633   30.98569 
 H                     44.33761   47.87171   31.7205 
 H                     42.78179   48.56812   31.29522 
 H                     42.97508   47.72754   29.00531 
 H                     45.58075   46.55005   30.0585 
 H                     45.54762   49.04137   29.95885 
 H                     46.98181   48.04329   28.30103 
 H                     46.48452   47.93699   26.61195 
 H                     44.62642   46.46251   27.17072 
 H                     46.13348   45.81987   27.8273 
 H                     43.86008   50.65274   30.56332 
 H                     42.97509   50.37853   29.06542 
 H                     45.48936   51.93904   29.49806 
 H                     44.36576   52.07036   28.14901 
 H                     46.82599   50.41629   28.36004 
 H                     43.56481   50.08615   26.78082 
 H                     44.48579   48.92555   25.83114 
 H                     43.30776   48.35806   27.0152 
 H                     46.42687   50.49562   26.04746 
 
 Stoichiometry    C295H470N56O65S6(2-)
 Framework group  C1[X(C295H470N56O65S6)]
 Deg. of freedom  2670
 Full point group                 C1      NOp   1
 Largest Abelian subgroup         C1      NOp   1
 Largest concise Abelian subgroup C1      NOp   1
                         Standard orientation:                         
 ---------------------------------------------------------------------
 Center     Atomic      Atomic             Coordinates (Angstroms)
 Number     Number       Type             X           Y           Z
 ---------------------------------------------------------------------
      1          1           0        2.948995   -8.181059   -7.814815
      2          6           0        2.873706   -7.874385   -6.768267
      3          1           0        2.781222   -8.768951   -6.153535
      4          6           0        4.122844   -7.083633   -6.363353
      5          1           0        4.985317   -7.754591   -6.410963
      6          1           0        4.300733   -6.264701   -7.063082
      7          6           0        3.969410   -6.529522   -4.974848
      8          6           0        3.796584   -7.379792   -3.889342
      9          1           0        3.840244   -8.450070   -4.030825
     10          6           0        3.565518   -6.876503   -2.626088
     11          1           0        3.420078   -7.539776   -1.786285
     12          6           0        3.502814   -5.500184   -2.429970
     13          8           0        3.210832   -5.031913   -1.188979
     14          1           0        3.145972   -4.018361   -1.207780
     15          6           0        3.726316   -4.642227   -3.498002
     16          1           0        3.717843   -3.576064   -3.341154
     17          6           0        3.954863   -5.159511   -4.757565
     18          1           0        4.133101   -4.478368   -5.576472
     19          6           0        1.563118   -7.088261   -6.588516
     20          8           0        0.685140   -7.477980   -5.830738
     21          7           0        1.414158   -5.984287   -7.340147
     22          1           0        2.165397   -5.701354   -7.949408
     23          6           0        0.224207   -5.129980   -7.355527
     24          1           0       -0.217663   -5.155831   -6.359204
     25          6           0        0.578432   -3.700986   -7.769319
     26          1           0        1.083592   -3.752570   -8.743055
     27          6           0       -0.701302   -2.888804   -7.953339
     28          1           0       -0.456033   -1.878477   -8.269620
     29          1           0       -1.254919   -2.829208   -7.023294
     30          1           0       -1.350265   -3.339218   -8.700995
     31          6           0        1.539078   -3.012622   -6.786057
     32          1           0        2.537439   -3.440827   -6.890801
     33          1           0        1.613535   -1.960391   -7.066190
     34          6           0        1.124976   -3.100483   -5.322798
     35          1           0        1.772201   -2.461250   -4.729391
     36          1           0        1.219116   -4.117450   -4.950713
     37          1           0        0.102916   -2.760163   -5.182644
     38          1           0       -0.502196   -5.546560   -8.064476
     39          1           0       -1.633442   -9.308907   -6.447733
     40          6           0       -1.781462   -9.953481   -5.581545
     41          1           0       -2.505468  -10.732203   -5.813391
     42          6           0       -0.443119  -10.557273   -5.151971
     43          1           0       -0.618136  -11.256915   -4.330647
     44          1           0        0.190052   -9.744996   -4.788137
     45          6           0        0.306153  -11.271645   -6.280752
     46          1           0        0.499384  -10.540875   -7.073855
     47          6           0        1.646726  -11.784375   -5.755693
     48          1           0        2.238794  -12.213126   -6.561297
     49          1           0        1.487438  -12.554483   -5.002772
     50          1           0        2.216849  -10.976827   -5.302278
     51          6           0       -0.498570  -12.429608   -6.865360
     52          1           0        0.094347  -12.966173   -7.603356
     53          1           0       -0.782072  -13.127886   -6.080153
     54          1           0       -1.401335  -12.072425   -7.352919
     55          6           0       -2.348241   -9.131594   -4.404702
     56          8           0       -3.101393   -9.624626   -3.582149
     57          7           0       -1.946197   -7.841507   -4.347678
     58          1           0       -1.187524   -7.556605   -4.957188
     59          6           0       -2.397542   -6.860457   -3.347959
     60          1           0       -2.447150   -7.335180   -2.363868
     61          6           0       -1.422533   -5.671432   -3.347908
     62          1           0       -1.352461   -5.312887   -4.381534
     63          6           0       -1.918713   -4.521025   -2.477649
     64          1           0       -2.929467   -4.229352   -2.743136
     65          1           0       -1.916841   -4.814279   -1.433123
     66          1           0       -1.265959   -3.660087   -2.599393
     67          6           0       -0.033281   -6.109680   -2.884871
     68          1           0        0.639026   -5.255292   -2.878615
     69          1           0        0.392432   -6.860199   -3.545114
     70          1           0       -0.077592   -6.517476   -1.876912
     71          6           0       -3.843014   -6.394991   -3.678279
     72          8           0       -4.624016   -6.118710   -2.788701
     73          7           0       -4.137099   -6.272952   -4.989016
     74          1           0       -3.487108   -6.641331   -5.666707
     75          6           0       -5.484357   -5.949640   -5.471409
     76          1           0       -5.838325   -5.108505   -4.866558
     77          6           0       -5.539909   -5.609756   -6.950296
     78          1           0       -4.919866   -4.750359   -7.203711
     79          1           0       -5.257391   -6.472288   -7.554685
     80          6           0       -7.020538   -5.269635   -7.198130
     81          8           0       -7.412485   -4.117677   -6.975109
     82          8           0       -7.765569   -6.237931   -7.510775
     83          1           0       -6.140049   -6.807888   -5.270946
     84          1           0       -4.992839   -9.774941   -2.018250
     85          6           0       -5.864988   -9.586774   -1.404317
     86          1           0       -5.991586   -8.517482   -1.296673
     87          1           0       -6.738789  -10.002102   -1.888474
     88          1           0       -5.745098  -10.043311   -0.428585
     89          1           0        2.098603  -12.170691   -2.388880
     90          6           0        2.493417  -11.833335   -1.433879
     91          1           0        3.281353  -11.109001   -1.625701
     92          6           0        1.389631  -11.200367   -0.587807
     93          1           0        0.598955  -11.950731   -0.448501
     94          6           0        1.943353  -10.805018    0.781177
     95          1           0        2.783023  -10.124599    0.662704
     96          1           0        2.292157  -11.682304    1.322749
     97          1           0        1.194390  -10.298798    1.386875
     98          6           0        0.789991   -9.991383   -1.315949
     99          1           0        1.479010   -9.148971   -1.241714
    100          1           0        0.679169  -10.233585   -2.373408
    101          6           0       -0.573430   -9.576810   -0.776755
    102          1           0       -0.957857   -8.740998   -1.352394
    103          1           0       -1.284167  -10.397119   -0.881930
    104          1           0       -0.507490   -9.268705    0.265541
    105          1           0        2.930069  -12.687571   -0.920720
    106          1           0        8.302398  -11.808202   -0.840724
    107          6           0        9.208383  -11.881651   -0.243470
    108          1           0        9.987322  -11.303825   -0.732736
    109          6           0        8.959557  -11.346712    1.166453
    110          1           0        8.215905  -11.971267    1.667434
    111          1           0        9.885612  -11.386970    1.742805
    112          6           0        8.466594   -9.933763    1.063517
    113          6           0        7.124041   -9.681865    0.821651
    114          1           0        6.423232  -10.505632    0.790932
    115          6           0        6.670693   -8.395199    0.611787
    116          1           0        5.625490   -8.210031    0.416162
    117          6           0        7.561093   -7.327160    0.640027
    118          8           0        7.150668   -6.054283    0.428659
    119          1           0        6.182098   -6.022574    0.476325
    120          6           0        8.909078   -7.570846    0.885032
    121          1           0        9.597424   -6.742061    0.909523
    122          6           0        9.348877   -8.862088    1.093905
    123          1           0       10.396821   -9.040485    1.289059
    124          1           0        9.520566  -12.924763   -0.212914
    125          1           0       10.361537   -4.573276    5.153733
    126          6           0        9.656320   -3.872215    4.705667
    127          1           0        9.982762   -3.617152    3.698627
    128          6           0        8.250860   -4.487223    4.682455
    129          1           0        7.991442   -4.773760    5.707834
    130          6           0        7.232218   -3.459560    4.194162
    131          1           0        6.254862   -3.919477    4.054893
    132          1           0        7.127725   -2.658768    4.921007
    133          1           0        7.556010   -3.022764    3.252341
    134          6           0        8.221499   -5.729326    3.796301
    135          1           0        8.968556   -6.455604    4.110853
    136          1           0        7.242699   -6.205268    3.836373
    137          1           0        8.422271   -5.455689    2.764103
    138          6           0        9.620725   -2.603891    5.577907
    139          8           0        9.420768   -2.663957    6.780929
    140          7           0        9.774348   -1.446286    4.908963
    141          1           0        9.996376   -1.470522    3.917900
    142          6           0        9.747019   -0.117795    5.507835
    143          1           0        9.671909   -0.249615    6.592250
    144          6           0       10.995381    0.684614    5.129762
    145          1           0       11.037526    0.767638    4.042120
    146          1           0       10.896822    1.690925    5.543297
    147          6           0       12.276690    0.037468    5.621248
    148          1           0       12.330013   -1.002679    5.292338
    149          1           0       12.366475    0.071383    6.706465
    150          6           0       13.571201    0.727621    5.008477
    151          8           0       13.427345    1.186171    3.869341
    152          8           0       14.558730    0.694535    5.733626
    153          6           0        8.484066    0.589833    4.956524
    154          8           0        8.502741    1.118696    3.853075
    155          7           0        7.387755    0.526457    5.723007
    156          1           0        7.420669    0.078303    6.627135
    157          6           0        6.077262    1.011693    5.302227
    158          1           0        6.248313    1.680761    4.458842
    159          6           0        5.192005   -0.158040    4.859813
    160          1           0        4.919360   -0.772394    5.719908
    161          1           0        5.725468   -0.780046    4.136525
    162          6           0        3.910457    0.369097    4.173089
    163          8           0        3.882283    1.572564    3.893791
    164          8           0        3.008591   -0.458863    3.916868
    165          6           0        5.362577    1.720894    6.459589
    166          8           0        5.052306    1.081105    7.457497
    167          7           0        5.018672    3.006014    6.301601
    168          6           0        4.315622    3.697516    7.371898
    169          1           0        3.237202    3.548130    7.246433
    170          1           0        4.618565    3.280071    8.333961
    171          6           0        4.693515    5.162305    7.191386
    172          1           0        3.936145    5.839223    7.581092
    173          1           0        5.645012    5.360242    7.684955
    174          6           0        4.860104    5.271531    5.678836
    175          1           0        5.453221    6.130796    5.371858
    176          1           0        3.885907    5.335894    5.195557
    177          6           0        5.535356    3.945528    5.320469
    178          1           0        5.312481    3.632928    4.299420
    179          6           0        7.070027    4.066697    5.541393
    180          8           0        7.565949    3.862157    6.635586
    181          7           0        7.776304    4.449273    4.467676
    182          1           0        7.317587    4.504044    3.565198
    183          6           0        9.199932    4.736707    4.526018
    184          1           0        9.617814    4.168188    5.361455
    185          6           0        9.925956    4.395642    3.224188
    186          1           0        9.378437    4.828483    2.382756
    187          1           0        9.955746    3.313652    3.098450
    188          6           0       11.310857    4.975770    3.286073
    189          6           0       12.422419    4.182168    3.528570
    190          1           0       12.318493    3.112635    3.622952
    191          6           0       13.677705    4.749454    3.666942
    192          1           0       14.524693    4.113975    3.875092
    193          6           0       13.840435    6.119247    3.563312
    194          1           0       14.819456    6.564408    3.680155
    195          6           0       12.736469    6.920611    3.317278
    196          1           0       12.852007    7.994791    3.245262
    197          6           0       11.483351    6.351942    3.180130
    198          1           0       10.626440    6.982824    2.990711
    199          1           0        9.334489    5.804530    4.747825
    200          1           0        1.315055   -7.824146    9.035427
    201          6           0        1.423470   -6.848897    8.556156
    202          1           0        1.159148   -6.072453    9.272741
    203          6           0        2.857746   -6.636905    8.047599
    204          1           0        3.212833   -7.528519    7.523556
    205          1           0        3.508927   -6.488875    8.912246
    206          6           0        2.941106   -5.436122    7.136469
    207          6           0        2.733520   -4.156873    7.638895
    208          1           0        2.553760   -4.021207    8.696497
    209          6           0        2.773182   -3.056775    6.801372
    210          1           0        2.627235   -2.066396    7.204327
    211          6           0        3.012805   -3.214339    5.444884
    212          1           0        3.035811   -2.346528    4.798255
    213          6           0        3.233922   -4.484537    4.941312
    214          1           0        3.438607   -4.626979    3.889967
    215          6           0        3.202493   -5.584800    5.781694
    216          1           0        3.406197   -6.566564    5.373778
    217          6           0        0.372768   -6.772775    7.446169
    218          8           0       -0.682387   -6.169890    7.602824
    219          7           0        0.596417   -7.479797    6.312813
    220          1           0        1.541412   -7.777854    6.121720
    221          6           0       -0.300648   -7.476728    5.156861
    222          1           0       -0.403021   -6.469441    4.738946
    223          6           0        0.231897   -8.448023    4.084427
    224          1           0        0.561998   -9.364773    4.581179
    225          1           0       -0.605520   -8.693303    3.424821
    226          6           0        1.340145   -7.860973    3.255515
    227          6           0        2.673181   -8.184586    3.467786
    228          1           0        2.942388   -8.891279    4.242480
    229          6           0        3.670547   -7.635526    2.684506
    230          1           0        4.707205   -7.881398    2.854737
    231          6           0        3.341632   -6.756668    1.653479
    232          8           0        4.322113   -6.247134    0.885891
    233          1           0        3.927577   -5.726877    0.138507
    234          6           0        2.002812   -6.442816    1.426754
    235          1           0        1.749104   -5.781873    0.612906
    236          6           0        1.021348   -6.979793    2.229341
    237          1           0       -0.012093   -6.722076    2.053726
    238          6           0       -1.714629   -7.985176    5.504969
    239          8           0       -2.649129   -7.737862    4.749701
    240          7           0       -1.861547   -8.830888    6.542113
    241          1           0       -1.117996   -8.923109    7.221247
    242          6           0       -3.163134   -9.349166    6.960571
    243          1           0       -3.854468   -9.182669    6.124743
    244          6           0       -3.102047  -10.830343    7.295242
    245          1           0       -2.154869  -11.045107    7.793574
    246          1           0       -3.906738  -11.034676    8.004034
    247          6           0       -3.284787  -11.743972    6.078877
    248          1           0       -3.196951  -12.774591    6.424356
    249          1           0       -4.292334  -11.619677    5.679765
    250          6           0       -2.279876  -11.531495    4.934128
    251          1           0       -1.329267  -11.161574    5.340340
    252          1           0       -2.099449  -12.489987    4.441642
    253          7           0       -2.805797  -10.630887    3.927980
    254          1           0       -3.232334   -9.772378    4.254660
    255          6           0       -2.478010  -10.666348    2.618354
    256          7           0       -1.562950  -11.552761    2.135465
    257          1           0       -0.815172  -11.836750    2.747981
    258          1           0       -1.284670  -11.422097    1.173509
    259          7           0       -3.111260   -9.837001    1.759556
    260          1           0       -3.951828   -9.362764    2.047894
    261          1           0       -2.989177   -9.954212    0.766552
    262          6           0       -3.807110   -8.480212    8.097303
    263          8           0       -4.832388   -8.861122    8.621919
    264          7           0       -3.207465   -7.305887    8.326974
    265          1           0       -2.293537   -7.112004    7.933501
    266          6           0       -3.787435   -6.140572    9.000835
    267          1           0       -4.703545   -6.468278    9.502437
    268          6           0       -2.800351   -5.548241    9.991094
    269          1           0       -3.255777   -4.672194   10.453633
    270          1           0       -1.892079   -5.234159    9.475462
    271          6           0       -2.448542   -6.587942   11.075742
    272          1           0       -2.347159   -6.095774   12.042664
    273          1           0       -3.254817   -7.320180   11.144475
    274          6           0       -1.165803   -7.338695   10.760521
    275          8           0       -1.054712   -8.186548    9.896307
    276          7           0       -0.122489   -6.985764   11.541803
    277          1           0       -0.192366   -6.266495   12.238917
    278          1           0        0.770956   -7.431322   11.410302
    279          6           0       -4.232924   -5.273122    7.780649
    280          8           0       -5.401007   -5.238519    7.436109
    281          7           0       -3.236571   -4.738979    7.054599
    282          1           0       -2.282859   -4.875493    7.360875
    283          6           0       -3.417881   -3.811369    5.944007
    284          1           0       -2.473479   -3.760429    5.398479
    285          1           0       -3.655924   -2.812100    6.324666
    286          6           0       -4.527683   -4.140400    4.920016
    287          8           0       -5.318256   -3.287358    4.574386
    288          7           0       -4.512336   -5.372842    4.367221
    289          1           0       -3.830986   -6.064125    4.653466
    290          6           0       -5.378880   -5.754677    3.255784
    291          1           0       -5.802543   -4.836543    2.839534
    292          6           0       -4.576494   -6.532248    2.216610
    293          1           0       -4.181214   -7.419098    2.718756
    294          1           0       -5.253127   -6.845907    1.421194
    295          6           0       -3.400565   -5.748174    1.625791
    296          1           0       -2.769284   -5.400183    2.451703
    297          6           0       -2.576119   -6.677069    0.738367
    298          1           0       -1.710438   -6.151530    0.343011
    299          1           0       -2.227173   -7.539414    1.302420
    300          1           0       -3.180363   -7.021118   -0.097660
    301          6           0       -3.872031   -4.542796    0.824047
    302          1           0       -4.493924   -4.860465   -0.008965
    303          1           0       -4.429669   -3.855053    1.451618
    304          1           0       -3.019834   -4.003103    0.420358
    305          6           0       -6.568862   -6.634073    3.739600
    306          8           0       -7.239574   -7.269951    2.942400
    307          7           0       -6.824430   -6.678559    5.067576
    308          1           0       -6.304540   -6.093459    5.713867
    309          6           0       -7.773440   -7.624953    5.644853
    310          1           0       -7.697925   -8.575118    5.107147
    311          1           0       -7.513599   -7.786307    6.691243
    312          6           0       -9.268518   -7.237808    5.589769
    313          8           0      -10.110830   -8.047772    5.917061
    314          7           0       -9.597259   -5.998199    5.147141
    315          1           0       -8.859462   -5.352230    4.910451
    316          6           0      -10.977644   -5.529840    5.097639
    317          1           0      -11.017630   -4.454641    5.264387
    318          1           0      -11.535766   -6.039431    5.889544
    319          6           0      -11.726555   -5.849614    3.780203
    320          8           0      -12.790591   -5.317550    3.538094
    321          7           0      -11.132989   -6.710703    2.917733
    322          1           0      -10.280944   -7.172275    3.200217
    323          6           0      -11.780414   -7.202745    1.693873
    324          1           0      -11.029610   -7.786940    1.152536
    325          1           0      -12.630387   -7.850756    1.931141
    326          6           0      -12.299569   -6.077271    0.837635
    327          8           0      -13.327215   -6.384489    0.061837
    328          7           0      -11.632648   -4.899518    0.778987
    329          1           0      -11.011650   -4.746111    1.561989
    330          6           0      -12.044279   -3.680266    0.107962
    331          1           0      -12.690241   -3.926718   -0.733819
    332          6           0      -12.761051   -2.720179    1.070765
    333          1           0      -12.171830   -2.661591    1.988505
    334          1           0      -12.767787   -1.728686    0.615244
    335          6           0      -14.188503   -3.136410    1.424348
    336          1           0      -14.467530   -2.584115    2.321842
    337          1           0      -14.205458   -4.191705    1.696372
    338          6           0      -15.216174   -2.831605    0.322050
    339          1           0      -14.771665   -2.161986   -0.417457
    340          1           0      -16.061084   -2.301980    0.763659
    341          6           0      -15.788116   -4.051556   -0.398918
    342          1           0      -16.698412   -3.743187   -0.932775
    343          1           0      -16.068947   -4.818099    0.327916
    344          7           0      -14.813420   -4.651165   -1.316541
    345          1           0      -15.256550   -5.394252   -1.848581
    346          1           0      -13.758709   -5.604844   -0.410890
    347          1           0      -14.501057   -3.948007   -1.981533
    348          6           0      -10.826342   -2.905033   -0.478716
    349          8           0      -11.058315   -1.950118   -1.191190
    350          7           0       -9.588050   -3.268971   -0.084588
    351          1           0       -9.429194   -4.222145    0.206791
    352          6           0       -8.419991   -2.595990   -0.666115
    353          1           0       -8.646699   -1.524291   -0.663398
    354          6           0       -7.128911   -2.855158    0.104366
    355          1           0       -6.858571   -3.912480    0.004602
    356          6           0       -6.027725   -1.982721   -0.496841
    357          1           0       -5.809264   -2.278348   -1.519081
    358          1           0       -6.332356   -0.938814   -0.497046
    359          1           0       -5.115604   -2.067132    0.085091
    360          6           0       -7.326925   -2.511842    1.580556
    361          1           0       -7.612826   -1.468654    1.682012
    362          1           0       -8.101512   -3.127520    2.033566
    363          1           0       -6.406820   -2.657449    2.140446
    364          6           0       -8.371085   -3.045422   -2.152684
    365          8           0       -8.665804   -4.205152   -2.453717
    366          7           0       -8.101532   -2.098111   -3.042912
    367          1           0       -7.947236   -1.144716   -2.713081
    368          6           0       -7.918663   -2.281454   -4.480818
    369          1           0       -7.901288   -3.343113   -4.718575
    370          6           0       -8.986505   -1.531935   -5.289923
    371          1           0       -8.999436   -1.970753   -6.288894
    372          1           0       -8.680633   -0.487871   -5.387139
    373          6           0      -10.381025   -1.541886   -4.659441
[...]
 002596,47.6780990327,30.9640918012\O,0,51.6129248717,48.6878417036,31.
 6522166602\N,0,52.4095953019,47.5726196712,29.8666981577\H,0,52.381292
 1478,46.7130678764,29.3286679603\C,0,53.2359999498,48.6570000363,29.34
 69999323\H,0,53.0234623383,49.5447687034,29.946692109\C,0,54.736654150
 3,48.3423107621,29.430177043\H,0,55.2788258396,49.2098637729,29.043207
 9451\H,0,54.9483545397,47.481145645,28.7894605305\C,0,55.2190839118,48
 .084675162,30.8576204616\H,0,55.9985578378,47.3189268807,30.8671176864
 \H,0,54.4042160199,47.7316627905,31.4911932122\C,0,55.836749339,49.345
 3803393,31.5726332886\O,0,55.8986273658,50.4016721659,30.9466276267\O,
 0,56.2158437895,49.1312132629,32.7479375492\C,0,52.8288607265,48.90755
 93468,27.8793811283\O,0,52.518018103,47.9673679066,27.1528670495\N,0,5
 2.8319244348,50.1874137595,27.4724642286\H,0,53.1444235164,50.90755206
 72,28.1161331915\C,0,52.4010000608,50.6180000631,26.1430001022\H,0,52.
 9897721856,50.0506646913,25.4034504272\C,0,50.9207060767,50.2708079596
 ,25.9179958729\H,0,50.8299632439,49.1905592579,26.0461188945\H,0,50.65
 18702298,50.4999350157,24.8834619105\C,0,49.9559309221,50.9529609305,2
 6.8886857616\H,0,50.3414148814,51.9028743165,27.2521677765\H,0,48.9915
 972891,51.1301736157,26.4114126839\S,0,49.6312827181,49.9071181587,28.
 3648555061\C,0,50.0692317075,51.0585953584,29.6899080444\H,0,51.097942
 516,51.3772835134,29.5609847426\H,0,49.3871520643,51.9049012079,29.679
 1681561\H,0,49.9820256276,50.5172403673,30.6254176624\C,0,52.769803126
 6,52.1126563126,25.9065762465\O,0,53.8305749709,52.5506517105,26.30180
 9808\N,0,51.910419808,52.8506297942,25.1592893578\H,0,50.9683734584,52
 .5324795372,24.9839922484\C,0,52.1129994298,54.2449993628,24.763000380
 1\H,0,52.9831408279,54.6174890804,25.3100219181\C,0,52.3450684871,54.3
 44958299,23.2437435469\H,0,51.4344681257,53.9916099555,22.7475017215\C
 ,0,52.5960947253,55.7957593203,22.8412244699\H,0,53.4773236276,56.1828
 310925,23.3490765531\H,0,52.7631873093,55.8629160534,21.7683965044\H,0
 ,51.7435729263,56.4204253265,23.0947980059\C,0,53.5185307784,53.463104
 0076,22.8240018493\H,0,54.4221827778,53.7650817915,23.3480357391\H,0,5
 3.3223656422,52.4209033063,23.0615169462\H,0,53.6898858926,53.54824665
 09,21.7529401869\C,0,50.8186107464,55.0164231462,25.1369115925\O,0,49.
 7396189397,54.5122428403,24.8977540008\N,0,50.9716788693,56.2545581656
 ,25.6529277863\H,0,51.8983435511,56.5543602857,25.9124043183\C,0,49.86
 29999892,57.0900000105,26.119000004\H,0,48.9674784992,56.4726748538,26
 .0268646279\C,0,50.030726261,57.5605737459,27.5669346049\H,0,50.548818
 6565,56.77828934,28.1225193551\H,0,50.6263569588,58.4750101447,27.6091
 36509\C,0,48.6944639986,57.7706422084,28.1972595254\C,0,48.0898363703,
 58.9300177933,28.5815835752\H,0,48.4539301685,59.9393007265,28.5295883
 818\N,0,46.8486735494,58.6630667858,29.1000026432\H,0,46.2207039072,59
 .3428505707,29.4920504682\C,0,46.632996484,57.3134159168,29.0651571211
 \C,0,45.5470125251,56.5553813719,29.4860709929\H,0,44.6801937815,57.02
 12546106,29.9319904826\C,0,45.621386782,55.1897139781,29.3161202236\H,
 0,44.7974393558,54.5683555403,29.6341373031\C,0,46.7447027679,54.58720
 101,28.741292424\H,0,46.7558164651,53.5177549702,28.6051084384\C,0,47.
 826629805,55.3300682173,28.3315123534\H,0,48.6921031867,54.8557708943,
 27.8954876582\C,0,47.7775633994,56.7142589427,28.4940642173\H,0,49.764
 2343335,57.9512391467,25.4486482257\H,0,54.3627879557,54.2868954415,28
 .8789200998\C,0,53.8339999918,54.4159999563,29.824999993\H,0,54.477507
 9349,54.930472183,30.5393299814\C,0,52.5513672409,55.2117319194,29.608
 4987607\H,0,51.9357037513,55.2173465362,30.5105673505\H,0,52.767969473
 2,56.2398048347,29.314486425\S,0,51.5638642306,54.4815703675,28.253143
 915\H,0,52.0118848417,53.2445438695,28.4663850375\C,0,53.4369923189,53
 .0322825598,30.3461081779\O,0,53.0610392608,52.1634148996,29.559235350
 2\N,0,53.4215383209,52.872802563,31.664738657\H,0,53.6414516616,53.653
 7033617,32.2646025135\C,0,53.0150000027,51.6689999736,32.3649999633\H,
 0,52.9501808347,50.8536398486,31.6445540818\C,0,54.0256262185,51.35136
 32796,33.4557794574\H,0,54.0437316867,52.1543839646,34.1925479914\H,0,
 55.0092767056,51.2308000808,33.011523939\H,0,53.737459217,50.427558077
 6,33.9464610851\C,0,51.6459421113,51.903580874,33.0619931422\O,0,51.26
 07489513,53.0395194759,33.2933676976\N,0,51.0142736704,50.7874699422,3
 3.4456312197\H,0,51.2983957512,49.8972094429,33.0486989907\C,0,49.7550
 000228,50.7670000199,34.1870000958\H,0,49.7348628919,51.6610167888,34.
 8168941572\C,0,48.5685194136,50.7598189857,33.2137424154\H,0,48.612183
 9906,49.8261080919,32.6540984634\H,0,48.7017792827,51.5888564289,32.51
 45274124\C,0,47.1929827102,50.8844800967,33.8785759505\H,0,47.16194152
 1,50.2344228765,34.7587190845\C,0,46.9329005905,52.3220404937,34.31126
 58581\H,0,47.7063960221,52.6631009627,34.9895443085\H,0,46.9218658708,
 52.9723748653,33.438927403\H,0,45.9756635446,52.4126675231,34.81459604
 1\C,0,46.1170460699,50.4269413687,32.8949154637\H,0,46.2679035898,49.3
 860287042,32.6198536016\H,0,46.154180405,51.0317935567,31.9909199524\H
 ,0,45.1277498167,50.529025491,33.3322602951\C,0,49.7257343268,49.50424
 21969,35.0595463201\O,0,49.901974369,48.3937044593,34.5662228006\N,0,4
 9.4695568622,49.7002294482,36.3544303971\H,0,49.3788530597,50.64955293
 17,36.7019904214\C,0,49.4510000017,48.6280000425,37.3469999709\H,0,49.
 9426170185,47.7591361161,36.8924030747\C,0,50.2800864149,49.0507332273
 ,38.5515936246\H,0,49.9370232515,50.0010620858,38.9617050168\H,0,50.22
 87380339,48.2778411606,39.3203650281\C,0,51.7602882251,49.1936206758,3
 8.0904166264\O,0,52.2518419611,48.240785228,37.4559903291\O,0,52.35854
 00502,50.2492271548,38.3766843499\C,0,47.9534188807,48.2480651771,37.5
 989384504\O,0,47.1401356386,49.117800962,37.8910365687\N,0,47.61623326
 86,46.962862123,37.3894111669\H,0,48.3456989237,46.2675741698,37.24385
 32651\C,0,46.2529999976,46.4379999994,37.2530000087\H,0,45.5586282227,
 47.2069363605,37.6037005925\C,0,45.9687735773,46.0759870988,35.7759543
 297\H,0,46.619493122,45.2323252672,35.5169866372\C,0,44.510113686,45.6
 612440105,35.5956802792\H,0,44.2988149342,45.5177126691,34.5388589535\
 H,0,44.2860616649,44.7297634744,36.1069463167\H,0,43.8467683474,46.434
 9697741,35.9748936837\C,0,46.2926773368,47.247292653,34.852034765\H,0,
 46.0743146286,46.9689052509,33.8231636866\H,0,47.3430649408,47.5197322
 03,34.9158188548\H,0,45.688792209,48.1139941704,35.1093187744\C,0,46.0
 876487592,45.1346804876,38.0712420705\O,0,46.9656971762,44.2952938747,
 38.1229269652\N,0,44.8808901562,44.9412098967,38.6637853599\H,0,44.183
 1688095,45.6786708141,38.6630584239\C,0,44.549000032,43.7009999932,39.
 3709999874\H,0,45.4151889965,43.0440211516,39.2361520421\C,0,44.298709
 2768,43.9390846371,40.8715372829\H,0,43.4485169467,44.6225096847,40.96
 03700878\C,0,43.9399600455,42.6127306252,41.5398747925\H,0,43.72011540
 17,42.7627990787,42.5931667013\H,0,43.0609502395,42.1709952141,41.0753
 732436\H,0,44.7661266386,41.9082398234,41.4556576344\C,0,45.5239652844
 ,44.5915621977,41.517038669\H,0,45.8618683044,45.4086964764,40.8781243
 385\H,0,46.3343350555,43.8612205583,41.5724918029\C,0,45.2359412356,45
 .1493123886,42.9057443713\H,0,44.4172034307,45.8640594927,42.863069289
 7\H,0,46.1153023826,45.6590157549,43.292696402\H,0,44.9677436379,44.36
 00318857,43.6042411621\C,0,43.2904183787,43.0922313287,38.7356674761\O
 ,0,42.2123521204,43.6554581639,38.8195966108\N,0,43.4413965441,41.9145
 422907,38.0991466636\H,0,44.3308056067,41.438804688,38.1252176093\C,0,
 42.317000019,41.2009999809,37.5219999517\H,0,41.522581104,41.938077980
 3,37.3630882703\C,0,42.6463945712,40.4985495606,36.2117822988\H,0,43.5
 80900285,39.9359433209,36.2827824976\H,0,41.8512708504,39.7853328758,3
 5.982048803\C,0,42.7595179042,41.4310708085,35.0204116264\O,0,42.81783
 56457,42.6296083955,35.0725096693\O,0,42.8025715216,40.7231067524,33.9
 058852319\H,0,42.916346816,41.2885102153,33.0884914644\C,0,41.79834077
 08,40.1108341847,38.5007088864\O,0,42.54276618,39.2321272398,38.921266
 4276\N,0,40.5007508369,40.1948401399,38.8050805364\H,0,39.9368949535,4
 0.9290523238,38.3680874906\C,0,39.7599999885,39.1800000011,39.55000001
 02\H,0,40.4792641205,38.5807913196,40.117285365\C,0,38.7292512584,39.8
 524901428,40.4715873458\H,0,38.0770517447,40.4610437835,39.8403543193\
 C,0,37.8568240525,38.8299232214,41.1917974706\H,0,37.0654670231,39.357
 9648077,41.7170060081\H,0,38.4395867286,38.2510273045,41.90746702\H,0,
 37.3852352788,38.1492148935,40.4865993019\C,0,39.4342107311,40.7622235
 007,41.4720416813\H,0,40.0255176821,41.5158611844,40.9590640501\H,0,40
 .0931197264,40.1836433774,42.1181149401\H,0,38.6959804995,41.266397369
 4,42.0890327946\C,0,39.0379805833,38.3221477706,38.4928325667\O,0,38.5
 31855528,38.8352811694,37.5108984454\N,0,38.9876522515,36.9876156895,3
 8.6890960288\H,0,39.468484599,36.5859774832,39.4778593254\C,0,38.33100
 00318,36.0710000155,37.7639999352\H,0,37.6540103137,36.6694026654,37.1
 518766787\C,0,39.3341895865,35.336284024,36.8717644487\H,0,38.80703584
 14,34.5482383795,36.3312591426\H,0,40.1029875309,34.8640803206,37.4880
 917447\C,0,39.9880828653,36.2785379377,35.8745836384\H,0,40.5663766976
 ,37.0506933912,36.3830941712\H,0,39.2359494192,36.7473347881,35.240946
 6884\S,0,41.1269153537,35.3601676974,34.7764574024\C,0,41.4928610807,3
 6.6815196863,33.5902337207\H,0,41.9175282328,37.5364805548,34.10881138
 77\H,0,42.2168252882,36.2873473034,32.8845598507\H,0,40.5807355448,36.
 9599562509,33.0689814128\H,0,37.750637271,35.3516199481,38.3469710559\
 H,0,36.6017740577,31.6252999091,31.9662569753\C,0,36.7679999813,32.393
 9999823,32.7189999392\H,0,37.2439383985,31.9296402317,33.5808536601\C,
 0,37.6479537903,33.5158565037,32.1671292932\H,0,37.1350328549,33.97620
 6576,31.3161274819\C,0,37.8617953987,34.592648573,33.2254989013\H,0,36
 .9111754828,34.8913167484,33.6627056354\H,0,38.3219297318,35.471008850
 5,32.7822970916\H,0,38.5103840904,34.2203857928,34.014942751\C,0,38.98
 07243157,32.9443965762,31.6724118836\H,0,38.7715902794,32.127967349,30
 .97539745\H,0,39.5268011034,32.5243142436,32.5205555835\C,0,39.8572818
 396,33.9769153248,30.973386285\H,0,39.2961788657,34.4917651231,30.1965
 367049\H,0,40.2256316172,34.713889022,31.679732458\H,0,40.7183118946,3
 3.4926973522,30.516714697\H,0,35.8011915252,32.7837700443,33.030111091
 9\H,0,35.5444411602,38.6470680758,34.6214727639\C,0,36.4999999927,39.0
 529999869,34.9529999951\H,0,36.8462690504,38.5179821676,35.8360974862\
 C,0,37.534023309,38.933047989,33.8289654125\H,0,37.6424227067,37.87761
 08126,33.5591998057\H,0,37.1708935187,39.4609387377,32.9450153505\C,0,
 38.9041018851,39.4828363152,34.2158879825\H,0,39.0977486154,39.3184309
 221,35.2750651758\H,0,39.6902674109,39.0157915134,33.624525854\S,0,39.
 088718816,41.2802400577,33.9454945876\C,0,39.7064155288,41.2502797501,
 32.234082999\H,0,39.0037033168,40.7142778227,31.6043552762\H,0,40.6842
 111824,40.7759427802,32.2128965633\H,0,39.788004018,42.282639266,31.90
 8808073\C,0,36.2827775755,40.5369140211,35.2965643221\O,0,35.484112492
 7,41.1974378129,34.6502233034\N,0,37.0130831803,41.029331638,36.306727
 0692\H,0,37.6552955846,40.41718796,36.7963137029\C,0,36.9499999978,42.
 3970000132,36.8200000012\H,0,36.315670551,42.9735027568,36.1441206848\
 C,0,36.4111701391,42.4040970759,38.2545553227\H,0,37.2132466181,42.092
 6228039,38.9270673702\H,0,36.1234166828,43.4216576603,38.5223320808\C,
 0,35.216347067,41.4643390304,38.4245920736\H,0,34.4300534769,41.738455
 4622,37.7235673184\H,0,35.5276565362,40.4338710064,38.2433219776\C,0,3
 4.69894099,41.5720388216,39.8492727663\O,0,35.2535376615,41.0331811629
 ,40.795025838\N,0,33.5901170399,42.3104124183,39.956309596\H,0,33.1697
 692636,42.735528063,39.1287017008\H,0,33.2142782507,42.5070816909,40.8
 687950846\C,0,38.395688573,42.9452179123,36.8200503238\O,0,39.26502525
 ,42.3522504981,37.4582295795\N,0,38.6327161125,44.0556461743,36.123688
 0144\H,0,37.8883453076,44.4881650428,35.5804498261\C,0,39.9630000013,4
 4.6519999731,35.9920000096\H,0,40.6750400578,43.9329469915,36.40819293
 26\C,0,40.2958063519,44.9356624853,34.5386818669\H,0,41.3612193821,45.
 1292249491,34.4465628167\H,0,39.7471884004,45.7988135273,34.1728870941
 \H,0,40.046709459,44.0683240472,33.9330994609\C,0,39.9943523989,45.946
 1515889,36.8391095663\O,0,39.4874835392,46.9887083155,36.4466004735\N,
 0,40.5762213114,45.8443640144,38.0409012828\H,0,41.0808707606,45.00036
 41857,38.2927715897\C,0,40.6669999666,46.9540000132,38.9839999944\H,0,
 39.7420782304,47.5375666269,38.9054312082\C,0,40.8489412521,46.4129690
 926,40.4039853616\H,0,41.2474166625,47.2104065581,41.0342482508\H,0,41
 .5757211772,45.6013709245,40.3656435003\C,0,39.5362790338,45.927421360
 7,40.9495295824\C,0,39.0641978686,44.6498478812,40.6674026032\H,0,39.6
 67318523,43.9786045326,40.0748742925\C,0,37.8295621067,44.2356314572,4
 1.1270042727\H,0,37.4481549791,43.249407581,40.9211977481\C,0,37.03429
 69039,45.1005820128,41.8710909796\O,0,35.8209095924,44.660426478,42.29
 95073159\H,0,35.2931110826,45.4095953473,42.6031710332\C,0,37.50575925
 ,46.372292972,42.1714031019\H,0,36.8994331415,47.0451910535,42.7626869
 483\C,0,38.7432947944,46.7770731247,41.7081918017\H,0,39.0961959952,47
 .7725062362,41.9401227985\C,0,41.8645749746,47.8639081093,38.582236184
 8\O,0,43.0124999941,47.4686717265,38.7368267326\N,0,41.5528168855,49.0
 729094541,38.0918649556\H,0,40.595713014,49.3352587777,37.8807088588\C
 ,0,42.5180000137,50.1120000123,37.7630000157\H,0,43.1617377207,50.2611
 981482,38.6413822866\C,0,43.4323263348,49.7213688313,36.5783265554\H,0
 ,44.2446628915,50.4456608892,36.502573112\H,0,43.8708990818,48.7521449
 365,36.8216140344\C,0,42.693027378,49.6392463587,35.285658266\C,0,41.9
 730990725,48.5621578955,34.8387052688\H,0,41.809110862,47.6183437723,3
 5.3208912605\N,0,41.4208646709,48.8224789319,33.6276184228\H,0,40.8369
 598967,48.1850094959,33.0846850086\C,0,41.7556702998,50.0864978855,33.
 2595520836\C,0,41.4198527038,50.7966697974,32.1123024646\H,0,40.794730
 7174,50.3459866604,31.3552526424\C,0,41.9059205285,52.0799387887,31.98
 67018356\H,0,41.6612592036,52.6632290113,31.1101907732\C,0,42.71823177
 92,52.6407577035,32.9763359069\H,0,43.0877944003,53.6474891846,32.8443
 612287\C,0,43.0568294905,51.9429024234,34.1143522632\H,0,43.6898487159
 ,52.3987785761,34.8568291048\C,0,42.5690551774,50.6460552499,34.280166
 1599\C,0,41.7733624045,51.4340411674,37.473382824\O,0,40.5566411994,51
 .4762066979,37.4596842377\N,0,42.5868011049,52.4828490824,37.277369609
 3\H,0,43.5930952398,52.355418525,37.2615425288\C,0,42.1950003737,53.85
 90001628,37.0149996579\H,0,41.3954851895,53.8832084036,36.2697030572\C
 ,0,41.7164405538,54.542724203,38.3173113162\H,0,41.0665332735,53.83603
 40729,38.8534269035\H,0,41.1349869779,55.4332553428,38.0666293246\O,0,
 42.7643983067,54.9921599881,39.13569151\H,0,43.3930260565,54.276529864
 8,39.3303155252\C,0,43.4577761342,54.6145804491,36.5003062181\O,0,44.4
 953954836,53.9858093456,36.3032460251\N,0,43.3429370501,55.9265126922,
 36.3325595584\H,0,42.4402602576,56.4175992484,36.4805851009\C,0,44.451
 0000031,56.8210000029,35.9910000261\H,0,45.0919475869,56.3126141543,35
 .2623192477\C,0,43.9155677631,58.1305944956,35.4278390615\H,0,44.76724
 52425,58.7115728911,35.0607145294\H,0,43.2708372237,57.9128857389,34.5
 73251439\C,0,43.1466486368,58.9606289784,36.45638177\H,0,43.3006221793
 ,60.0271467656,36.290717704\H,0,43.4604691947,58.710615401,37.47121301
 74\C,0,41.5721862861,58.7280498261,36.4159990557\O,0,41.2097865529,57.
 5447580222,36.4427792796\O,0,40.9147035832,59.7618119224,36.3727353624
 \H,0,45.0436750726,57.0116713033,36.8947490334\H,0,47.4792814929,54.69
 1758094,38.8057312883\C,0,47.8599998658,53.7239997519,38.4859999441\H,
 0,48.4661194325,53.2794117402,39.2748369119\C,0,46.7116351862,52.77671
 9672,38.0885830471\H,0,46.1052676738,53.2777204186,37.329405851\H,0,47
 .1397828197,51.8704001268,37.6587298459\C,0,45.777999555,52.3881377234
 ,39.2170182423\O,0,45.025215639,53.1706317395,39.7767512522\N,0,45.813
 62805,51.0820774547,39.5301127683\H,0,46.3516574421,50.4086201619,38.9
 969720015\H,0,45.1890346063,50.7352956413,40.2405758778\C,0,48.7141621
 873,53.8142096441,37.2022353291\O,0,49.3907817051,52.8649613045,36.841
 5584533\N,0,48.6130028254,54.9494265833,36.4773514228\H,0,47.986675977
 8,55.6660982123,36.811390347\C,0,49.2299999689,55.2200000359,35.168999
 9695\H,0,49.5730024005,54.2722578819,34.7541160504\C,0,48.228212054,55
 .9203382214,34.2605331641\H,0,47.876835194,56.8232628972,34.7710136932
 \H,0,47.3665645427,55.2713384804,34.1006079462\C,0,48.8288892247,56.32
 32202238,32.9089396955\H,0,49.81338245,56.7718590453,33.0902616444\C,0
 ,49.0043249511,55.1188186351,31.9889625932\H,0,48.0443419868,54.638845
 3227,31.8119692843\H,0,49.3950917553,55.4361426917,31.0235387985\H,0,4
 9.6878508604,54.3946775626,32.423644651\C,0,47.9409253418,57.368771082
 9,32.2366075103\H,0,46.9546729349,56.9533935233,32.0434759739\H,0,47.8
 297073023,58.2498768756,32.8665928311\H,0,48.3732774953,57.6750437616,
 31.2871373956\H,0,50.1065208781,55.861155779,35.3231682389\C,0,43.4438
 740686,42.7839301979,30.9441847162\O,0,43.238091959,41.6846040505,31.5
 18932429\C,0,43.237669142,44.02502769,31.5624107025\C,0,43.3576903457,
 45.2179045227,30.898221138\C,0,43.9320728415,45.2794541898,29.51055038
 82\C,0,44.7168364545,44.0059430971,29.1951402746\C,0,43.8623520864,42.
 7863150987,29.496749192\C,0,42.7728861479,46.4282810348,31.4467172102\
 C,0,43.4559066324,47.7406168099,31.0865935545\C,0,43.8771698003,47.776
 4261458,29.621628595\C,0,44.7681182608,46.5606138006,29.3225689733\C,0
 ,44.6583207997,49.0454896941,29.3166489167\C,0,45.1663749448,49.117694
 7267,27.8695070182\C,0,46.1166327443,47.9457963266,27.6417212987\C,0,4
 5.4002875838,46.6224480843,27.9250327316\C,0,43.9682469499,50.39201888
 02,29.5129851169\C,0,44.9053978678,51.366500539,28.7809631219\C,0,45.8
 346414331,50.5114155896,27.8909766204\C,0,44.0554083058,49.1186022853,
 26.8131742164\O,0,45.9767903741,51.1194126567,26.6260619442\H,0,42.860
 9853213,44.0154086075,32.5760691868\H,0,43.0745921925,45.3348727174,28
 .8240207903\H,0,45.6250058676,43.9765781472,29.8021083733\H,0,45.00754
 14986,43.9902257767,28.1444080626\H,0,42.9498824,42.821166831,28.89123
 38245\H,0,44.3952424449,41.8610949641,29.2637484791\H,0,42.6088858723,
 46.3546319549,32.521279038\H,0,41.734297344,46.416334813,30.9856933874
 \H,0,44.3376079554,47.8717135231,31.720502019\H,0,42.7817898645,48.568
 1233721,31.2952198475\H,0,42.9750801997,47.7275447979,29.0053104794\H,
 0,45.5807471908,46.5500501557,30.0584951438\H,0,45.5476231709,49.04136
 62851,29.9588507635\H,0,46.9818120817,48.0432877735,28.3010263752\H,0,
 46.4845234743,47.9369913873,26.6119492884\H,0,44.6264226102,46.4625119
 846,27.1707220937\H,0,46.1334818661,45.8198676221,27.8273017452\H,0,43
 .860077737,50.652737908,30.5633176502\H,0,42.9750900376,50.3785287009,
 29.0654175837\H,0,45.4893621915,51.9390405863,29.4980634794\H,0,44.365
 7582174,52.0703594956,28.1490106886\H,0,46.825985875,50.416287242,28.3
 600432998\H,0,43.5648074855,50.0861529607,26.780815255\H,0,44.48578875
 58,48.9255452184,25.8311430662\H,0,43.3077583755,48.3580560566,27.0151
 997443\H,0,46.4268673782,50.4956235783,26.0474566665\\Version=ES64L-G1
 6RevC.01\State=1-A\HF=-21865.2977896\RMSD=9.466e-10\Dipole=25.8866799,
 -25.0884008,-46.0914043\Quadrupole=-273.9780876,-124.3725798,398.35066
 74,101.3483419,213.6465874,-181.0591883\PG=C01 [X(C295H470N56O65S6)]\\
 @
 The archive entry for this job was punched.


 ERWIN WITH HIS PSI CAN DO
 CALCULATIONS QUITE A FEW.
 BUT ONE THING HAS NOT BEEN SEEN
 JUST WHAT DOES PSI REALLY MEAN.
 -- WALTER HUCKEL, TRANS. BY FELIX BLOCH
 Job cpu time:       3 days 10 hours 16 minutes 39.0 seconds.
 Elapsed time:       0 days  1 hours 18 minutes 47.5 seconds.
 File lengths (MBytes):  RWF=  28477 Int=      0 D2E=      0 Chk=   3049 Scr=      1
 Normal termination of Gaussian 16 at Tue May 19 09:27:50 2026.
