 Entering Gaussian System, Link 0=g16
 Initial command:
 /cm/shared/apps/spack/cpu/opt/spack/linux-centos8-zen/gcc-8.3.1/gaussian-16.C.01-po5bqktfeugvmjyga3v7eigbecnokxng/g16/l1.exe "/scratch/hklem/job_32333406/Gau-1641037.inp" -scrdir="/scratch/hklem/job_32333406/"
 Entering Link 1 = /cm/shared/apps/spack/cpu/opt/spack/linux-centos8-zen/gcc-8.3.1/gaussian-16.C.01-po5bqktfeugvmjyga3v7eigbecnokxng/g16/l1.exe PID=   1641044.
  
 Copyright (c) 1988-2019, Gaussian, Inc.  All Rights Reserved.
  
 This is part of the Gaussian(R) 16 program.  It is based on
 the Gaussian(R) 09 system (copyright 2009, Gaussian, Inc.),
 the Gaussian(R) 03 system (copyright 2003, Gaussian, Inc.),
 the Gaussian(R) 98 system (copyright 1998, Gaussian, Inc.),
 the Gaussian(R) 94 system (copyright 1995, Gaussian, Inc.),
 the Gaussian 92(TM) system (copyright 1992, Gaussian, Inc.),
 the Gaussian 90(TM) system (copyright 1990, Gaussian, Inc.),
 the Gaussian 88(TM) system (copyright 1988, Gaussian, Inc.),
 the Gaussian 86(TM) system (copyright 1986, Carnegie Mellon
 University), and the Gaussian 82(TM) system (copyright 1983,
 Carnegie Mellon University). Gaussian is a federally registered
 trademark of Gaussian, Inc.
  
 This software contains proprietary and confidential information,
 including trade secrets, belonging to Gaussian, Inc.
  
 This software is provided under written license and may be
 used, copied, transmitted, or stored only in accord with that
 written license.
  
 The following legend is applicable only to US Government
 contracts under FAR:
  
                    RESTRICTED RIGHTS LEGEND
  
 Use, reproduction and disclosure by the US Government is
 subject to restrictions as set forth in subparagraphs (a)
 and (c) of the Commercial Computer Software - Restricted
 Rights clause in FAR 52.227-19.
  
 Gaussian, Inc.
 340 Quinnipiac St., Bldg. 40, Wallingford CT 06492
  
  
 ---------------------------------------------------------------
 Warning -- This program may not be used in any manner that
 competes with the business of Gaussian, Inc. or will provide
 assistance to any competitor of Gaussian, Inc.  The licensee
 of this program is prohibited from giving any competitor of
 Gaussian, Inc. access to this program.  By using this program,
 the user acknowledges that Gaussian, Inc. is engaged in the
 business of creating and licensing software in the field of
 computational chemistry and represents and warrants to the
 licensee that it is not a competitor of Gaussian, Inc. and that
 it will not use this program in any manner prohibited above.
 ---------------------------------------------------------------
  

 Cite this work as:
 Gaussian 16, Revision C.01,
 M. J. Frisch, G. W. Trucks, H. B. Schlegel, G. E. Scuseria, 
 M. A. Robb, J. R. Cheeseman, G. Scalmani, V. Barone, 
 G. A. Petersson, H. Nakatsuji, X. Li, M. Caricato, A. V. Marenich, 
 J. Bloino, B. G. Janesko, R. Gomperts, B. Mennucci, H. P. Hratchian, 
 J. V. Ortiz, A. F. Izmaylov, J. L. Sonnenberg, D. Williams-Young, 
 F. Ding, F. Lipparini, F. Egidi, J. Goings, B. Peng, A. Petrone, 
 T. Henderson, D. Ranasinghe, V. G. Zakrzewski, J. Gao, N. Rega, 
 G. Zheng, W. Liang, M. Hada, M. Ehara, K. Toyota, R. Fukuda, 
 J. Hasegawa, M. Ishida, T. Nakajima, Y. Honda, O. Kitao, H. Nakai, 
 T. Vreven, K. Throssell, J. A. Montgomery, Jr., J. E. Peralta, 
 F. Ogliaro, M. J. Bearpark, J. J. Heyd, E. N. Brothers, K. N. Kudin, 
 V. N. Staroverov, T. A. Keith, R. Kobayashi, J. Normand, 
 K. Raghavachari, A. P. Rendell, J. C. Burant, S. S. Iyengar, 
 J. Tomasi, M. Cossi, J. M. Millam, M. Klene, C. Adamo, R. Cammi, 
 J. W. Ochterski, R. L. Martin, K. Morokuma, O. Farkas, 
 J. B. Foresman, and D. J. Fox, Gaussian, Inc., Wallingford CT, 2019.
 
 ******************************************
 Gaussian 16:  ES64L-G16RevC.01  3-Jul-2019
                16-Jul-2024 
 ******************************************
 %nprocshared=32
 Will use up to   32 processors via shared memory.
 %mem=64GB
 --------------------------
 # 6-31G(d) wb97xd prop=efg
 --------------------------
 1/38=1,172=1/1;
 2/12=2,17=6,18=5,40=1/2;
 3/5=1,6=6,7=1,11=2,25=1,30=1,74=-58/1,2,3;
 4//1;
 5/5=2,38=5/2;
 6/7=2,8=2,9=2,10=2,14=1,28=1/1,2;
 99/5=1,9=1/99;
 ----------------------------------
 19nt_mm_min_distance_cutoff5_nowat
 ----------------------------------
 Symbolic Z-matrix:
 Charge = -1 Multiplicity = 1
 H                    0     7.28322  -7.65112  -3.59618 
 C                    -1    6.5526   -7.24856  -2.8809 
 H                    0     5.98582  -8.08734  -2.47124 
 C                    0     7.29268  -6.51376  -1.74994 
 H                    0     8.05148  -7.19215  -1.34314 
 H                    0     7.83981  -5.65018  -2.15033 
 C                    0     6.36021  -6.06886  -0.65178 
 C                    0     6.14441  -6.84753   0.48594 
 H                    0     6.69547  -7.77676   0.61372 
 C                    0     5.23484  -6.45984   1.46156 
 H                    0     5.06632  -7.06763   2.34471 
 C                    0     4.5175   -5.27506   1.30637 
 O                    0     3.6143   -4.94166   2.27403 
 H                    0     3.28067  -4.03      2.09664 
 C                    0     4.71673  -4.48472   0.1759 
 H                    0     4.16036  -3.56309   0.04898 
 C                    0     5.63135  -4.88931  -0.78514 
 H                    0     5.76907  -4.27767  -1.66991 
 C                    0     5.53351  -6.40788  -3.67133 
 O                    0     4.36699  -6.75685  -3.77646 
 N                    -1    6.00998  -5.27588  -4.27661 
 H                    0     6.99713  -5.07427  -4.21486 
 C                    -1    5.20537  -4.45815  -5.18197 
 H                    0     4.16199  -4.68858  -4.95376 
 C                    0     5.4725   -2.95091  -5.0571 
 H                    0     6.51782  -2.76723  -5.34993 
 C                    0     4.57938  -2.20515  -6.05532 
 H                    0     4.74534  -1.1247   -5.98654 
 H                    0     3.51868  -2.39267  -5.85399 
 H                    0     4.78052  -2.51937  -7.08627 
 C                    0     5.30785  -2.40546  -3.62837 
 H                    0     6.1205   -2.79766  -3.00493 
 H                    0     5.45909  -1.31968  -3.65201 
 C                    0     3.96555  -2.71601  -2.97042 
 H                    -1    3.91344  -2.24575  -1.98307 
 H                    0     3.81563  -3.79269  -2.84172 
 H                    0     3.12686  -2.32318  -3.5564 
 H                    0     5.38101  -4.77227  -6.22092 
 H                    0     1.16595  -6.95429  -4.46398 
 C                    -1    0.46416  -6.12074  -4.35444 
 H                    0    -0.4212   -6.48939  -3.8223 
 C                    0     1.12039  -4.9677   -3.58622 
 H                    0     2.01452  -4.66665  -4.1487 
 C                    0     0.1949   -3.75287  -3.49359 
 H                    -1   -0.16693  -3.44092  -4.47998 
 H                    0    -0.68035  -3.97976  -2.87553 
 H                    0     0.71156  -2.89858  -3.03876 
 C                    0     1.57499  -5.41905  -2.19552 
 H                    0     2.00214  -4.58107  -1.63087 
 H                    0     2.34348  -6.19488  -2.26564 
 H                    0     0.73045  -5.815    -1.6157 
 H                    -1    0.14916  -5.80185  -5.35542 
 H                    0     0.29298   1.20418   8.82139 
 C                    -1    0.1192    1.63266   7.82688 
 H                    0     0.9381    2.31587   7.60025 
 C                    0     0.09139   0.51158   6.77552 
 H                    0    -0.80857  -0.093     6.90395 
 H                    0     0.97262  -0.12538   6.91751 
 C                    0     0.14569   1.10257   5.35763 
 O                    0     1.15755   1.84549   5.14637 
 O                    0    -0.76732   0.84592   4.54901 
 C                    0    -1.24964   2.305     7.88492 
 O                    0    -2.26225   1.64538   8.104 
 N                    0    -1.32519   3.64508   7.67648 
 C                    0    -2.62737   4.30677   7.65629 
 H                    0    -3.1519    4.06252   6.72391 
 H                    0    -3.24272   3.95551   8.48858 
 C                    0    -2.27854   5.79481   7.72792 
 H                    -1   -3.03396   6.42071   7.24517 
 H                    0    -2.19083   6.11107   8.77491 
 C                    0    -0.91424   5.86834   7.03331 
 H                    0    -0.33802   6.759     7.29978 
 H                    0    -1.04718   5.86115   5.94712 
 C                    -1   -0.21861   4.57615   7.4757 
 H                    0     0.47101   4.20854   6.70988 
 H                    0     0.34258   4.72283   8.40986 
 H                    0    -4.10809  -7.8153    2.96688 
 C                    -1   -4.29007  -6.73618   3.00266 
 H                    0    -3.90403  -6.36611   3.95798 
 C                    0    -3.60282  -6.0316    1.82867 
 H                    0    -4.04241  -6.3848    0.88706 
 H                    0    -3.80207  -4.95333   1.8765 
 C                    -1   -2.11318  -6.27725   1.82706 
 C                    0    -1.58866  -7.4692    1.3166 
 H                    0    -2.2619   -8.19662   0.86614 
 C                    0    -0.231    -7.7455    1.36048 
 H                    0     0.17232  -8.66464   0.94832 
 C                    0     0.65029  -6.82742   1.94088 
 O                    0     1.9588   -7.14527   1.98342 
 H                    0     2.47953  -6.35863   2.2417 
 C                    0     0.14187  -5.63611   2.46446 
 H                    0     0.81703  -4.9258    2.93408 
 C                    0    -1.22274  -5.36934   2.39725 
 H                    0    -1.59941  -4.43621   2.81248 
 H                    0    -5.37727  -6.57975   2.98538 
 H                    0    -9.50915  -4.81975   4.09851 
 C                    -1   -9.45655  -5.31746   3.12072 
 H                    0    -8.74872  -6.14901   3.23109 
 C                    0    -10.8359  -5.82384   2.71341 
 H                    0    -10.75789  -6.34472   1.7514 
 H                    -1   -11.46866  -4.94556   2.54639 
 C                    0    -11.44125  -6.7502    3.76685 
 H                    0    -10.76123  -7.5769    3.99693 
 H                    0    -11.58347  -6.20559   4.70959 
 C                    0    -12.78083  -7.40051   3.43671 
 O                    0    -13.18075  -8.37519   4.04946 
 N                    0    -13.51406  -6.81973   2.44564 
 H                    0    -13.20126  -6.02059   1.9207 
 H                    0    -14.41009  -7.22554   2.22534 
 C                    0    -8.91869  -4.2847    2.10813 
 O                    0    -9.6677   -3.63368   1.40165 
 N                    0    -7.55117  -4.12838   2.03914 
 H                    0    -6.98519  -4.59662   2.73221 
 C                    -1   -6.94274  -3.0099    1.31468 
 H                    -1   -6.03235  -2.70343   1.8357 
 H                    0    -7.63351  -2.16361   1.31454 
 C                    0    -6.56446  -3.25685  -0.15482 
 O                    0    -6.16018  -2.31453  -0.82268 
 N                    0    -6.68926  -4.5239   -0.61237 
 H                    0    -7.03376  -5.2144    0.03812 
 C                    -1   -6.36566  -4.92883  -1.9765 
 H                    0    -6.3633   -4.01774  -2.57994 
 C                    0    -5.02959  -5.66461  -2.08458 
 H                    0    -5.08419  -6.58191  -1.48012 
 H                    0    -4.90369  -5.99094  -3.12718 
 C                    0    -3.79736  -4.8567   -1.65709 
 H                    0    -3.95929  -4.51661  -0.62547 
 C                    0    -2.55865  -5.7534   -1.67285 
 H                    0    -1.69454  -5.24886  -1.22868 
 H                    -1   -2.71693  -6.67748  -1.10768 
 H                    0    -2.29761  -6.02872  -2.70198 
 C                    0    -3.58155  -3.61914  -2.52984 
 H                    0    -3.46761  -3.89971  -3.58548 
 H                    0    -4.40641  -2.90691  -2.43418 
 H                    0    -2.66566  -3.10007  -2.23087 
 H                    0    -7.17666  -5.5672   -2.344 
 H                    0    -6.56375  -2.13176  -6.96979 
 C                    -1   -5.55051  -1.73251  -6.84748 
 H                    0    -5.53552  -0.72259  -7.27432 
 C                    0    -5.13598  -1.71252  -5.37185 
 H                    0    -5.14895  -2.74943  -5.00755 
 C                    0    -3.71195  -1.17606  -5.20441 
 H                    0    -2.99415  -1.75638  -5.79635 
 H                    0    -3.65188  -0.12951  -5.53391 
 H                    0    -3.39159  -1.21406  -4.15795 
 C                    0    -6.12509  -0.91124  -4.51989 
 H                    -1   -6.07889   0.15685  -4.77619 
 H                    0    -7.15557  -1.24652  -4.6838 
 H                    0    -5.90992  -1.02134  -3.45078 
 H                    0    -4.86729  -2.35144  -7.4403 
 H                    0     0.67103  -1.11547  -8.68327 
 C                    -1    1.11343  -0.8611   -7.71432 
 H                    0     0.75022   0.13374  -7.43266 
 C                    0     0.75356  -1.89418  -6.64923 
 H                    0     1.19941  -1.64048  -5.68162 
 H                    0     1.10666  -2.89465  -6.92263 
 H                    0    -0.33056  -1.95075  -6.50173 
 H                    0     2.19894  -0.7955   -7.84781 
 H                    0     11.59949   1.86095  -0.65419 
 C                    -1    11.16496   1.96584  -1.65463 
 H                    -1    11.96206   2.27568  -2.33805 
 C                    0     10.52806   0.65324  -2.11726 
 H                    0     11.29569  -0.1291   -2.16067 
 H                    0     10.13873   0.7675   -3.13632 
 C                    0     9.39699   0.19013  -1.19808 
 H                    0     8.56726   0.90711  -1.21723 
 H                    0     9.75423   0.12069  -0.16316 
 S                    0     8.79192  -1.44945  -1.718 
 C                    0     7.55138  -1.74958  -0.43043 
 H                    0     7.98619  -1.6125    0.56414 
 H                    0     6.68234  -1.0985   -0.54906 
 H                    -1    7.22701  -2.78885  -0.51451 
 H                    0     10.42409   2.77242  -1.61335 
 H                    0     6.85136   3.77011  -4.35365 
 C                    -1    6.1221    3.62051  -5.1565 
 H                    0     6.55928   3.99937  -6.08673 
 C                    0     5.74277   2.13929  -5.28809 
 H                    0     5.0439    2.01347  -6.12362 
 H                    0     6.63939   1.55842  -5.54111 
 C                    -1    5.12505   1.58836  -4.02298 
 C                    0     3.78948   1.1825   -3.9732 
 H                    0     3.17944   1.23699  -4.87344 
 C                    0     3.2278    0.71244  -2.78643 
 H                    0     2.18539   0.40533  -2.76774 
 C                    0     3.99614   0.64424  -1.62934 
 H                    0     3.57413   0.28725  -0.6951 
 C                    0     5.32882   1.05075  -1.66604 
 H                    0     5.91261   1.02028  -0.75231 
 C                    0     5.88637   1.50873  -2.85306 
 H                    0     6.93031   1.81619  -2.87403 
 H                    0     5.24015   4.22429  -4.91841 
 H                    0     0.27632   2.59152  -6.28503 
 C                    -1   -0.71636   2.70542  -5.82963 
 H                    0    -1.43373   2.14889  -6.44434 
 C                    0    -0.70782   2.19158  -4.38678 
 H                    0    -1.71698   2.33817  -3.97411 
 C                    0    -0.38964   0.69546  -4.3465 
 H                    0     0.61767   0.50894  -4.74175 
 H                    0    -1.09626   0.11524  -4.95102 
 H                    0    -0.42536   0.30275  -3.32355 
 C                    0     0.27286   2.981    -3.51654 
 H                    0     1.30274   2.86217  -3.87601 
 H                    0     0.24844   2.63323  -2.47713 
 H                    0     0.03789   4.05177  -3.51601 
 H                    0    -0.98538   3.76704  -5.87313 
 H                    0    -7.62472   3.72314  -7.52069 
 C                    -1   -7.42601   2.6663   -7.31884 
 H                    0    -7.76437   2.08276  -8.18135 
 C                    0    -5.94007   2.41739  -7.04928 
 H                    0    -5.34795   2.69232  -7.93123 
 H                    0    -5.77912   1.34407  -6.89367 
 C                    0    -5.38035   3.13967  -5.82247 
 H                    0    -5.97683   2.91811  -4.92946 
 H                    0    -4.354     2.80394  -5.62935 
 S                    0    -5.36224   4.94922  -6.06152 
 C                    0    -4.8114    5.44259  -4.40658 
 H                    0    -5.47003   5.01792  -3.64444 
 H                    0    -3.78174   5.12141  -4.2169 
 H                    0    -4.85528   6.5331   -4.35196 
 H                    0    -8.03034   2.37314  -6.45272 
 H                    0    -2.35385   7.44937  -4.54095 
 C                    -1   -1.42453   7.6285   -3.98889 
 H                    0    -1.38575   8.69608  -3.74841 
 C                    0    -1.35682   6.75777  -2.73327 
 H                    0    -1.55204   5.71109  -3.00777 
 H                    0    -2.16688   7.03774  -2.04604 
 C                    0    -0.02573   6.81676  -1.9683 
 H                    0     0.7621    6.44554  -2.64283 
 C                    0     0.349     8.23951  -1.5453 
 H                    0     0.47837   8.90955  -2.40215 
 H                    0    -0.42795   8.66603  -0.89673 
 H                    0     1.28718   8.235    -0.97889 
 C                    0    -0.07701   5.90322  -0.74476 
 H                    0    -0.33139   4.87512  -1.02461 
 H                    0    -0.82927   6.25149  -0.02561 
 H                    0     0.88095   5.87554  -0.21794 
 H                    0    -0.58883   7.407    -4.66382 
 H                    0     3.02338   6.06375  -1.55544 
 C                    -1    3.77998   5.88862  -0.78092 
 H                    0     3.41559   6.34302   0.14745 
 C                    0     4.03284   4.39012  -0.57965 
 H                    0     4.39266   3.96671  -1.52832 
 C                    0     5.11112   4.15152   0.47903 
 H                    0     5.26962   3.0799    0.64501 
 H                    0     6.06761   4.60188   0.18601 
 H                    0     4.81296   4.59732   1.4375 
 C                    0     2.73802   3.66895  -0.20817 
 H                    0     2.9177    2.60489  -0.02317 
 H                    0     2.0013    3.75231  -1.01523 
 H                    0     2.29188   4.10053   0.69787 
 H                    0     4.69601   6.41474  -1.07571 
 H                    0     7.75865   1.60138   1.44589 
 C                    -1    7.47949   1.5867    2.50505 
 H                    0     6.66969   2.30783   2.64368 
 C                    0     7.03956   0.19674   2.94017 
 H                    0     7.84915  -0.53794   2.84902 
 H                    0     6.73895   0.19004   3.99656 
 C                    0     5.85074  -0.31897   2.16739 
 O                    0     5.23824   0.31798   1.3307 
 O                    0     5.5211   -1.55708   2.51967 
 H                    0     4.6449   -1.77914   2.1157 
 H                    0     8.34121   1.91599   3.09368 
 H                    0     7.27218  -3.15011   8.65823 
 C                    -1    7.0366   -2.5432    7.77754 
 H                    0     7.95643  -2.42488   7.19204 
 C                    0     5.93617  -3.19374   6.93791 
 H                    0     6.25804  -4.19944   6.63453 
 H                    0     5.03221  -3.31797   7.546 
 C                    0     5.58491  -2.41114   5.6719 
 H                    0     6.47525  -2.27117   5.04969 
 H                    0     4.86694  -2.96769   5.06271 
 S                    0     4.8551   -0.76287   6.01208 
 C                    0     3.25644  -0.9152    5.16353 
 H                    0     2.64135  -1.69122   5.62814 
 H                    0     3.40501  -1.14722   4.10647 
 H                    0     2.73814   0.0459    5.24378 
 H                    0     6.72736  -1.55133   8.12479 
 H                    0     3.70573   2.13919   5.88664 
 C                    -1    4.09162   2.81061   5.11588 
 H                    0     5.14883   3.01278   5.3268 
 C                    0     3.90341   2.20416   3.73327 
 H                    0     4.23957   2.87119   2.9318 
 H                    0     2.84836   1.96521   3.57935 
 H                    0     4.47027   1.27425   3.64461 
 H                    0     3.53735   3.7508    5.21755 
 H                    0     2.50879   7.977     4.11839 
 C                    -1    1.80252   8.4041    3.39873 
 H                    0     2.23817   9.32367   2.98976 
 C                    0     1.48968   7.38975   2.29077 
 H                    0     0.82533   7.8504    1.54783 
 H                    0     2.41907   7.15169   1.75978 
 C                    0     0.86817   6.12906   2.81192 
 C                    0     1.52666   5.02123   3.28954 
 H                    0     2.59067   4.82216   3.32093 
 N                    0     0.64419   4.09626   3.77265 
 H                    0     0.87754   3.18266   4.22454 
 C                    0    -0.62348   4.58271   3.61261 
 C                    0    -1.8518    3.98648   3.92907 
 H                    0    -1.88392   2.98516   4.35262 
 C                    0    -2.99587   4.71667   3.65443 
 H                    0    -3.96765   4.28765   3.88473 
 C                    0    -2.92891   6.00049   3.0696 
 H                    0    -3.85007   6.53992   2.86446 
 C                    0    -1.71278   6.5766    2.74588 
 H                    0    -1.67319   7.56418   2.2902 
 C                    0    -0.52924   5.86656   3.01472 
 H                    0     0.89144   8.66836   3.9469 
 H                    0    -2.82124   12.21941  -3.12507 
 C                    -1   -3.6034    11.50438  -2.84918 
 H                    0    -3.86151   10.9347  -3.7481 
 C                    0    -3.13027   10.58849  -1.71686 
 H                    0    -2.7507    11.20643  -0.89211 
 H                    0    -2.27721   9.98801  -2.06295 
 C                    0    -4.20265   9.63988  -1.15757 
 H                    0    -5.03137   10.25925  -0.78185 
 C                    0    -4.76609   8.70378  -2.23147 
 H                    0    -3.95892   8.13402  -2.707 
 H                    0    -5.46845   7.98406  -1.79651 
 H                    0    -5.29595   9.25296  -3.01707 
 C                    0    -3.6451    8.83605   0.02217 
 H                    0    -2.8131    8.19521  -0.29372 
 H                    0    -3.27192   9.4965    0.81358 
 H                    0    -4.40969   8.18414   0.45864 
 H                    0    -4.49013   12.07533  -2.54808 
 C                    0     2.01641  -1.77374   1.38763 
 O                    0     3.05544  -2.35567   1.76485 
 C                    0     1.86514  -0.35019   1.48071 
 C                    0     0.67106   0.25632   1.24436 
 C                    0    -0.50125  -0.48323   0.6338 
 C                    0    -0.0574   -1.79673  -0.01696 
 C                    0     0.84745  -2.59124   0.913 
 C                    0     0.43407   1.65278   1.70274 
 C                    0    -0.44403   2.49273   0.77878 
 C                    0    -1.70546   1.73723   0.36854 
 C                    0    -1.28841   0.42801  -0.33672 
 C                    0    -2.59095   2.55801  -0.55857 
 C                    0    -3.82865   1.7977   -1.07458 
 C                    0    -3.36029   0.56884  -1.85323 
 C                    0    -2.45455  -0.32628  -0.99765 
 C                    0    -3.16861   3.88775  -0.05831 
 C                    0    -4.30534   4.19031  -1.0685 
 C                    0    -4.46439   2.91507  -1.92635 
 C                    0    -4.79862   1.37847   0.04327 
 O                    0    -5.82646   2.73061  -2.27734 
 H                    0     2.70046   0.21106   1.89044 
 H                    0    -1.17373  -0.71514   1.47848 
 H                    0     0.47712  -1.57374  -0.95118 
 H                    0    -0.92313  -2.41014  -0.2828 
 H                    0     0.28235  -2.88388   1.80883 
 H                    0     1.21004  -3.5173    0.45561 
 H                    0     1.38428   2.15097   1.90705 
 H                    0    -0.06774   1.53153   2.68503 
 H                    0     0.11706   2.76226  -0.12633 
 H                    0    -0.6968    3.4289    1.28537 
 H                    0    -2.2649    1.49139   1.28343 
 H                    0    -0.59358   0.72109  -1.14312 
 H                    0    -1.98013   2.78611  -1.45162 
 H                    0    -2.80497   0.89556  -2.74338 
 H                    0    -4.21213  -0.02628  -2.20831 
 H                    0    -3.05565  -0.83189  -0.22977 
 H                    0    -2.05365  -1.11692  -1.64081 
 H                    0    -2.42345   4.68323  -0.01744 
 H                    0    -3.55277   3.77733   0.96106 
 H                    0    -4.07196   5.05982  -1.69133 
 H                    0    -5.25687   4.3989   -0.56947 
 H                    0    -3.86592   3.01638  -2.84949 
 H                    0    -5.25097   2.24039   0.54101 
 H                    0    -5.61022   0.76878  -0.36708 
 H                    0    -4.29943   0.77993   0.80999 
 H                    0    -5.90153   1.86007  -2.68975 
 
 Stoichiometry    C123H225N6O13S3(1-)
 Framework group  C1[X(C123H225N6O13S3)]
 Deg. of freedom  1104
 Full point group                 C1      NOp   1
 Largest Abelian subgroup         C1      NOp   1
 Largest concise Abelian subgroup C1      NOp   1
                         Standard orientation:                         
 ---------------------------------------------------------------------
 Center     Atomic      Atomic             Coordinates (Angstroms)
 Number     Number       Type             X           Y           Z
 ---------------------------------------------------------------------
      1          1           0        7.283217   -7.651120   -3.596176
      2          6           0        6.552599   -7.248561   -2.880904
      3          1           0        5.985815   -8.087338   -2.471238
      4          6           0        7.292677   -6.513758   -1.749942
      5          1           0        8.051482   -7.192150   -1.343140
      6          1           0        7.839811   -5.650185   -2.150333
      7          6           0        6.360209   -6.068857   -0.651775
      8          6           0        6.144411   -6.847528    0.485936
      9          1           0        6.695465   -7.776756    0.613721
     10          6           0        5.234842   -6.459836    1.461563
     11          1           0        5.066320   -7.067631    2.344713
     12          6           0        4.517498   -5.275061    1.306370
     13          8           0        3.614301   -4.941660    2.274032
     14          1           0        3.280666   -4.030004    2.096639
     15          6           0        4.716726   -4.484717    0.175904
     16          1           0        4.160360   -3.563089    0.048983
     17          6           0        5.631348   -4.889306   -0.785136
     18          1           0        5.769072   -4.277673   -1.669908
     19          6           0        5.533506   -6.407884   -3.671331
     20          8           0        4.366986   -6.756848   -3.776463
     21          7           0        6.009983   -5.275884   -4.276610
     22          1           0        6.997128   -5.074273   -4.214856
     23          6           0        5.205365   -4.458146   -5.181966
     24          1           0        4.161988   -4.688578   -4.953755
     25          6           0        5.472498   -2.950909   -5.057102
     26          1           0        6.517816   -2.767231   -5.349929
     27          6           0        4.579383   -2.205146   -6.055321
     28          1           0        4.745341   -1.124701   -5.986542
     29          1           0        3.518682   -2.392667   -5.853992
     30          1           0        4.780522   -2.519371   -7.086272
     31          6           0        5.307852   -2.405456   -3.628370
     32          1           0        6.120497   -2.797658   -3.004928
     33          1           0        5.459093   -1.319684   -3.652008
     34          6           0        3.965545   -2.716010   -2.970420
     35          1           0        3.913439   -2.245750   -1.983065
     36          1           0        3.815632   -3.792689   -2.841717
     37          1           0        3.126856   -2.323182   -3.556396
     38          1           0        5.381012   -4.772270   -6.220918
     39          1           0        1.165945   -6.954293   -4.463976
     40          6           0        0.464162   -6.120744   -4.354440
     41          1           0       -0.421195   -6.489387   -3.822296
     42          6           0        1.120393   -4.967701   -3.586218
     43          1           0        2.014521   -4.666648   -4.148699
     44          6           0        0.194897   -3.752871   -3.493592
     45          1           0       -0.166930   -3.440920   -4.479982
     46          1           0       -0.680353   -3.979764   -2.875530
     47          1           0        0.711558   -2.898577   -3.038757
     48          6           0        1.574985   -5.419051   -2.195521
     49          1           0        2.002142   -4.581074   -1.630868
     50          1           0        2.343480   -6.194876   -2.265635
     51          1           0        0.730452   -5.815000   -1.615703
     52          1           0        0.149161   -5.801850   -5.355420
     53          1           0        0.292980    1.204178    8.821390
     54          6           0        0.119199    1.632655    7.826878
     55          1           0        0.938096    2.315865    7.600253
     56          6           0        0.091389    0.511581    6.775523
     57          1           0       -0.808567   -0.092998    6.903954
     58          1           0        0.972621   -0.125381    6.917514
     59          6           0        0.145689    1.102570    5.357632
     60          8           0        1.157548    1.845488    5.146375
     61          8           0       -0.767323    0.845916    4.549010
     62          6           0       -1.249636    2.304996    7.884921
     63          8           0       -2.262249    1.645384    8.103998
     64          7           0       -1.325186    3.645079    7.676479
     65          6           0       -2.627372    4.306765    7.656288
     66          1           0       -3.151897    4.062515    6.723910
     67          1           0       -3.242715    3.955514    8.488576
     68          6           0       -2.278544    5.794808    7.727923
     69          1           0       -3.033965    6.420707    7.245171
     70          1           0       -2.190832    6.111074    8.774910
     71          6           0       -0.914239    5.868335    7.033313
     72          1           0       -0.338016    6.759001    7.299782
     73          1           0       -1.047178    5.861152    5.947121
     74          6           0       -0.218607    4.576147    7.475698
     75          1           0        0.471009    4.208542    6.709881
     76          1           0        0.342580    4.722835    8.409861
     77          1           0       -4.108090   -7.815301    2.966883
     78          6           0       -4.290072   -6.736177    3.002658
     79          1           0       -3.904034   -6.366107    3.957976
     80          6           0       -3.602822   -6.031604    1.828672
     81          1           0       -4.042407   -6.384803    0.887064
     82          1           0       -3.802065   -4.953328    1.876498
     83          6           0       -2.113183   -6.277252    1.827061
     84          6           0       -1.588659   -7.469196    1.316595
     85          1           0       -2.261900   -8.196620    0.866137
     86          6           0       -0.230998   -7.745503    1.360482
     87          1           0        0.172323   -8.664644    0.948323
     88          6           0        0.650287   -6.827417    1.940884
     89          8           0        1.958803   -7.145267    1.983415
     90          1           0        2.479534   -6.358629    2.241696
     91          6           0        0.141869   -5.636107    2.464460
     92          1           0        0.817032   -4.925801    2.934083
     93          6           0       -1.222735   -5.369337    2.397253
     94          1           0       -1.599412   -4.436208    2.812477
     95          1           0       -5.377265   -6.579753    2.985380
     96          1           0       -9.509150   -4.819751    4.098515
     97          6           0       -9.456546   -5.317463    3.120722
     98          1           0       -8.748724   -6.149013    3.231089
     99          6           0      -10.835900   -5.823842    2.713409
    100          1           0      -10.757886   -6.344719    1.751399
    101          1           0      -11.468655   -4.945560    2.546392
    102          6           0      -11.441254   -6.750194    3.766853
    103          1           0      -10.761228   -7.576898    3.996931
    104          1           0      -11.583474   -6.205593    4.709593
    105          6           0      -12.780831   -7.400513    3.436711
    106          8           0      -13.180748   -8.375188    4.049459
    107          7           0      -13.514061   -6.819732    2.445642
    108          1           0      -13.201262   -6.020586    1.920701
    109          1           0      -14.410091   -7.225538    2.225345
    110          6           0       -8.918689   -4.284701    2.108125
    111          8           0       -9.667697   -3.633680    1.401648
    112          7           0       -7.551170   -4.128376    2.039145
    113          1           0       -6.985193   -4.596619    2.732205
    114          6           0       -6.942742   -3.009901    1.314683
    115          1           0       -6.032349   -2.703429    1.835695
    116          1           0       -7.633514   -2.163607    1.314544
    117          6           0       -6.564462   -3.256847   -0.154821
    118          8           0       -6.160176   -2.314532   -0.822679
    119          7           0       -6.689261   -4.523903   -0.612366
    120          1           0       -7.033757   -5.214402    0.038119
    121          6           0       -6.365662   -4.928834   -1.976502
    122          1           0       -6.363296   -4.017741   -2.579935
    123          6           0       -5.029588   -5.664609   -2.084581
    124          1           0       -5.084193   -6.581914   -1.480118
    125          1           0       -4.903688   -5.990939   -3.127177
    126          6           0       -3.797355   -4.856702   -1.657086
    127          1           0       -3.959288   -4.516606   -0.625473
    128          6           0       -2.558653   -5.753402   -1.672847
    129          1           0       -1.694538   -5.248860   -1.228682
    130          1           0       -2.716930   -6.677481   -1.107677
    131          1           0       -2.297609   -6.028717   -2.701981
    132          6           0       -3.581549   -3.619136   -2.529844
    133          1           0       -3.467614   -3.899712   -3.585476
    134          1           0       -4.406411   -2.906907   -2.434175
    135          1           0       -2.665655   -3.100067   -2.230868
    136          1           0       -7.176657   -5.567197   -2.344003
    137          1           0       -6.563750   -2.131758   -6.969794
    138          6           0       -5.550514   -1.732505   -6.847475
    139          1           0       -5.535525   -0.722586   -7.274317
    140          6           0       -5.135985   -1.712521   -5.371849
    141          1           0       -5.148953   -2.749427   -5.007548
    142          6           0       -3.711953   -1.176059   -5.204409
    143          1           0       -2.994145   -1.756382   -5.796347
    144          1           0       -3.651876   -0.129513   -5.533914
    145          1           0       -3.391591   -1.214061   -4.157951
    146          6           0       -6.125095   -0.911240   -4.519890
    147          1           0       -6.078886    0.156850   -4.776193
    148          1           0       -7.155569   -1.246519   -4.683796
    149          1           0       -5.909916   -1.021340   -3.450777
    150          1           0       -4.867294   -2.351439   -7.440302
    151          1           0        0.671032   -1.115466   -8.683273
    152          6           0        1.113432   -0.861095   -7.714315
    153          1           0        0.750219    0.133738   -7.432660
    154          6           0        0.753556   -1.894181   -6.649233
    155          1           0        1.199411   -1.640479   -5.681624
    156          1           0        1.106659   -2.894648   -6.922630
    157          1           0       -0.330557   -1.950754   -6.501733
    158          1           0        2.198940   -0.795500   -7.847808
    159          1           0       11.599492    1.860945   -0.654191
    160          6           0       11.164961    1.965835   -1.654627
    161          1           0       11.962063    2.275676   -2.338051
    162          6           0       10.528062    0.653239   -2.117264
    163          1           0       11.295685   -0.129099   -2.160668
    164          1           0       10.138727    0.767496   -3.136323
    165          6           0        9.396987    0.190127   -1.198083
    166          1           0        8.567261    0.907112   -1.217225
    167          1           0        9.754233    0.120685   -0.163162
    168         16           0        8.791919   -1.449451   -1.718000
    169          6           0        7.551380   -1.749577   -0.430432
    170          1           0        7.986186   -1.612503    0.564142
    171          1           0        6.682335   -1.098501   -0.549059
    172          1           0        7.227008   -2.788852   -0.514513
    173          1           0       10.424091    2.772418   -1.613348
    174          1           0        6.851358    3.770113   -4.353651
    175          6           0        6.122100    3.620513   -5.156499
    176          1           0        6.559277    3.999368   -6.086732
    177          6           0        5.742768    2.139290   -5.288086
    178          1           0        5.043905    2.013474   -6.123624
    179          1           0        6.639389    1.558415   -5.541114
    180          6           0        5.125047    1.588362   -4.022980
    181          6           0        3.789484    1.182500   -3.973204
    182          1           0        3.179444    1.236988   -4.873438
    183          6           0        3.227798    0.712440   -2.786426
    184          1           0        2.185389    0.405328   -2.767736
    185          6           0        3.996143    0.644241   -1.629343
    186          1           0        3.574131    0.287248   -0.695101
    187          6           0        5.328821    1.050748   -1.666038
    188          1           0        5.912612    1.020276   -0.752306
    189          6           0        5.886371    1.508729   -2.853061
    190          1           0        6.930308    1.816192   -2.874033
    191          1           0        5.240154    4.224291   -4.918413
    192          1           0        0.276322    2.591515   -6.285026
    193          6           0       -0.716364    2.705419   -5.829627
    194          1           0       -1.433727    2.148890   -6.444340
    195          6           0       -0.707824    2.191584   -4.386778
    196          1           0       -1.716984    2.338173   -3.974105
    197          6           0       -0.389636    0.695461   -4.346503
    198          1           0        0.617670    0.508938   -4.741754
    199          1           0       -1.096256    0.115239   -4.951021
    200          1           0       -0.425355    0.302754   -3.323550
    201          6           0        0.272857    2.981003   -3.516541
    202          1           0        1.302743    2.862172   -3.876005
    203          1           0        0.248444    2.633234   -2.477131
    204          1           0        0.037889    4.051774   -3.516005
    205          1           0       -0.985380    3.767042   -5.873133
    206          1           0       -7.624717    3.723142   -7.520692
    207          6           0       -7.426012    2.666300   -7.318841
    208          1           0       -7.764371    2.082760   -8.181349
    209          6           0       -5.940066    2.417389   -7.049279
    210          1           0       -5.347953    2.692324   -7.931225
    211          1           0       -5.779116    1.344071   -6.893668
    212          6           0       -5.380348    3.139667   -5.822467
    213          1           0       -5.976831    2.918109   -4.929464
    214          1           0       -4.353999    2.803938   -5.629348
    215         16           0       -5.362238    4.949216   -6.061524
    216          6           0       -4.811402    5.442592   -4.406576
    217          1           0       -5.470032    5.017924   -3.644443
    218          1           0       -3.781743    5.121415   -4.216903
    219          1           0       -4.855284    6.533098   -4.351956
    220          1           0       -8.030344    2.373135   -6.452717
    221          1           0       -2.353848    7.449368   -4.540948
    222          6           0       -1.424534    7.628504   -3.988885
    223          1           0       -1.385747    8.696076   -3.748414
    224          6           0       -1.356815    6.757768   -2.733273
    225          1           0       -1.552040    5.711092   -3.007766
    226          1           0       -2.166876    7.037740   -2.046043
    227          6           0       -0.025725    6.816759   -1.968299
    228          1           0        0.762096    6.445541   -2.642833
    229          6           0        0.348996    8.239514   -1.545304
    230          1           0        0.478368    8.909547   -2.402153
    231          1           0       -0.427951    8.666032   -0.896734
    232          1           0        1.287177    8.235001   -0.978886
    233          6           0       -0.077006    5.903216   -0.744761
    234          1           0       -0.331390    4.875116   -1.024610
    235          1           0       -0.829269    6.251492   -0.025614
    236          1           0        0.880954    5.875544   -0.217939
    237          1           0       -0.588831    7.406999   -4.663820
    238          1           0        3.023381    6.063746   -1.555439
    239          6           0        3.779979    5.888619   -0.780921
    240          1           0        3.415585    6.343015    0.147448
    241          6           0        4.032837    4.390122   -0.579652
    242          1           0        4.392655    3.966712   -1.528319
    243          6           0        5.111119    4.151520    0.479033
    244          1           0        5.269620    3.079895    0.645005
    245          1           0        6.067612    4.601877    0.186005
    246          1           0        4.812958    4.597319    1.437498
    247          6           0        2.738016    3.668952   -0.208172
    248          1           0        2.917695    2.604887   -0.023169
    249          1           0        2.001300    3.752313   -1.015233
    250          1           0        2.291878    4.100534    0.697870
    251          1           0        4.696014    6.414738   -1.075712
    252          1           0        7.758654    1.601383    1.445894
    253          6           0        7.479491    1.586698    2.505054
    254          1           0        6.669692    2.307832    2.643679
    255          6           0        7.039565    0.196737    2.940168
    256          1           0        7.849148   -0.537941    2.849017
    257          1           0        6.738945    0.190035    3.996557
    258          6           0        5.850737   -0.318973    2.167391
    259          8           0        5.238236    0.317978    1.330704
    260          8           0        5.521096   -1.557080    2.519674
    261          1           0        4.644897   -1.779136    2.115703
    262          1           0        8.341211    1.915989    3.093684
    263          1           0        7.272180   -3.150114    8.658234
    264          6           0        7.036602   -2.543201    7.777538
    265          1           0        7.956434   -2.424879    7.192039
    266          6           0        5.936170   -3.193736    6.937911
    267          1           0        6.258044   -4.199444    6.634533
    268          1           0        5.032211   -3.317973    7.545996
    269          6           0        5.584914   -2.411144    5.671896
    270          1           0        6.475249   -2.271174    5.049694
    271          1           0        4.866941   -2.967686    5.062714
    272         16           0        4.855096   -0.762866    6.012080
    273          6           0        3.256437   -0.915199    5.163531
    274          1           0        2.641350   -1.691219    5.628139
    275          1           0        3.405010   -1.147216    4.106475
    276          1           0        2.738141    0.045895    5.243779
    277          1           0        6.727356   -1.551325    8.124791
    278          1           0        3.705732    2.139187    5.886637
    279          6           0        4.091624    2.810609    5.115881
    280          1           0        5.148826    3.012784    5.326799
    281          6           0        3.903405    2.204160    3.733267
    282          1           0        4.239571    2.871186    2.931796
    283          1           0        2.848361    1.965205    3.579345
    284          1           0        4.470271    1.274253    3.644609
    285          1           0        3.537350    3.750798    5.217548
    286          1           0        2.508793    7.976995    4.118387
    287          6           0        1.802518    8.404098    3.398725
    288          1           0        2.238169    9.323671    2.989759
    289          6           0        1.489682    7.389745    2.290770
    290          1           0        0.825326    7.850401    1.547829
    291          1           0        2.419067    7.151686    1.759783
    292          6           0        0.868165    6.129058    2.811920
    293          6           0        1.526662    5.021230    3.289536
    294          1           0        2.590669    4.822158    3.320932
    295          7           0        0.644193    4.096257    3.772647
    296          1           0        0.877543    3.182658    4.224542
    297          6           0       -0.623476    4.582710    3.612613
    298          6           0       -1.851801    3.986476    3.929073
    299          1           0       -1.883917    2.985159    4.352623
    300          6           0       -2.995867    4.716668    3.654431
    301          1           0       -3.967651    4.287646    3.884730
    302          6           0       -2.928911    6.000492    3.069598
    303          1           0       -3.850068    6.539921    2.864463
    304          6           0       -1.712782    6.576602    2.745884
    305          1           0       -1.673191    7.564178    2.290204
    306          6           0       -0.529243    5.866556    3.014724
    307          1           0        0.891436    8.668355    3.946899
    308          1           0       -2.821238   12.219408   -3.125068
    309          6           0       -3.603395   11.504380   -2.849176
    310          1           0       -3.861504   10.934702   -3.748097
    311          6           0       -3.130265   10.588494   -1.716855
    312          1           0       -2.750700   11.206429   -0.892113
    313          1           0       -2.277213    9.988013   -2.062946
    314          6           0       -4.202646    9.639880   -1.157568
    315          1           0       -5.031366   10.259248   -0.781848
    316          6           0       -4.766084    8.703783   -2.231470
    317          1           0       -3.958919    8.134021   -2.706995
    318          1           0       -5.468447    7.984062   -1.796514
    319          1           0       -5.295949    9.252957   -3.017072
    320          6           0       -3.645094    8.836054    0.022167
    321          1           0       -2.813094    8.195213   -0.293715
    322          1           0       -3.271916    9.496501    0.813578
    323          1           0       -4.409687    8.184138    0.458642
    324          1           0       -4.490127   12.075327   -2.548083
    325          6           0        2.016409   -1.773741    1.387631
    326          8           0        3.055435   -2.355671    1.764846
    327          6           0        1.865140   -0.350192    1.480707
    328          6           0        0.671057    0.256315    1.244359
    329          6           0       -0.501250   -0.483228    0.633798
    330          6           0       -0.057400   -1.796729   -0.016958
    331          6           0        0.847447   -2.591242    0.913000
    332          6           0        0.434072    1.652778    1.702741
    333          6           0       -0.444026    2.492727    0.778783
    334          6           0       -1.705463    1.737228    0.368538
    335          6           0       -1.288410    0.428007   -0.336724
    336          6           0       -2.590947    2.558012   -0.558567
    337          6           0       -3.828649    1.797698   -1.074580
    338          6           0       -3.360291    0.568844   -1.853225
    339          6           0       -2.454549   -0.326279   -0.997654
    340          6           0       -3.168610    3.887751   -0.058314
    341          6           0       -4.305341    4.190312   -1.068499
    342          6           0       -4.464394    2.915070   -1.926352
    343          6           0       -4.798624    1.378468    0.043267
    344          8           0       -5.826457    2.730606   -2.277344
    345          1           0        2.700459    0.211061    1.890439
    346          1           0       -1.173732   -0.715142    1.478480
    347          1           0        0.477117   -1.573737   -0.951179
    348          1           0       -0.923130   -2.410145   -0.282799
    349          1           0        0.282345   -2.883877    1.808831
    350          1           0        1.210040   -3.517304    0.455605
    351          1           0        1.384284    2.150971    1.907046
    352          1           0       -0.067739    1.531526    2.685030
    353          1           0        0.117062    2.762257   -0.126331
    354          1           0       -0.696804    3.428898    1.285369
    355          1           0       -2.264903    1.491387    1.283432
    356          1           0       -0.593583    0.721092   -1.143115
    357          1           0       -1.980129    2.786108   -1.451621
    358          1           0       -2.804966    0.895556   -2.743377
    359          1           0       -4.212126   -0.026278   -2.208314
    360          1           0       -3.055645   -0.831893   -0.229770
    361          1           0       -2.053652   -1.116922   -1.640809
    362          1           0       -2.423445    4.683228   -0.017441
    363          1           0       -3.552767    3.777332    0.961058
    364          1           0       -4.071957    5.059822   -1.691333
    365          1           0       -5.256866    4.398904   -0.569466
    366          1           0       -3.865915    3.016379   -2.849491
    367          1           0       -5.250967    2.240389    0.541011
    368          1           0       -5.610221    0.768779   -0.367077
    369          1           0       -4.299426    0.779928    0.809990
    370          1           0       -5.901526    1.860071   -2.689749
 ---------------------------------------------------------------------
 Rotational constants (GHZ):           0.0067352           0.0059751           0.0051519
 Standard basis: 6-31G(d) (6D, 7F)
 There are  2637 symmetry adapted cartesian basis functions of A   symmetry.
 There are  2637 symmetry adapted basis functions of A   symmetry.
  2637 basis functions,  5032 primitive gaussians,  2637 cartesian basis functions
   579 alpha electrons      579 beta electrons
       nuclear repulsion energy     43529.9634990012 Hartrees.
 NAtoms=  370 NActive=  370 NUniq=  370 SFac= 1.00D+00 NAtFMM=   60 NAOKFM=T Big=T
 Integral buffers will be    131072 words long.
 Raffenetti 2 integral format.
 Two-electron integral symmetry is turned on.
 Nuclear repulsion after empirical dispersion term =    43529.4948929977 Hartrees.
 One-electron integrals computed using PRISM.
 NBasis=  2637 RedAO= T EigKep=  3.47D-04  NBF=  2637
 NBsUse=  2637 1.00D-06 EigRej= -1.00D+00 NBFU=  2637
 ExpMin= 1.17D-01 ExpMax= 2.19D+04 ExpMxC= 3.30D+03 IAcc=3 IRadAn=         5 AccDes= 0.00D+00
 Harris functional with IExCor= 4639 and IRadAn=       5 diagonalized for initial guess.
 HarFok:  IExCor= 4639 AccDes= 0.00D+00 IRadAn=         5 IDoV= 1 UseB2=F ITyADJ=14
 ICtDFT=  3500011 ScaDFX=  1.000000  1.000000  1.000000  1.000000
 FoFCou: FMM=F IPFlag=           0 FMFlag=      100000 FMFlg1=        2001
         NFxFlg=           0 DoJE=T BraDBF=F KetDBF=T FulRan=T
         wScrn=  0.000000 ICntrl=       500 IOpCl=  0 I1Cent=   200000004 NGrid=           0
         NMat0=    1 NMatS0=      1 NMatT0=    0 NMatD0=    1 NMtDS0=    0 NMtDT0=    0
 Petite list used in FoFCou.
 Requested convergence on RMS density matrix=1.00D-08 within 128 cycles.
 Requested convergence on MAX density matrix=1.00D-06.
 Requested convergence on             energy=1.00D-06.
 No special actions if energy rises.
 Integral accuracy reduced to 1.0D-05 until final iterations.
 Initial convergence to 1.0D-05 achieved.  Increase integral accuracy.
 SCF Done:  E(RwB97XD) =  -7322.28534544     A.U. after   15 cycles
            NFock= 15  Conv=0.25D-08     -V/T= 2.0085
 Hyperfine terms turned off by default for NAtoms > 100.

 **********************************************************************

            Population analysis using the SCF Density.

 **********************************************************************

 Orbital symmetries:
       Occupied  (A) (A) (A) (A) (A) (A) (A) (A) (A) (A) (A) (A)
                 (A) (A) (A) (A) (A) (A) (A) (A) (A) (A) (A) (A)
                 (A) (A) (A) (A) (A) (A) (A) (A) (A) (A) (A) (A)
                 (A) (A) (A) (A) (A) (A) (A) (A) (A) (A) (A) (A)
                 (A) (A) (A) (A) (A) (A) (A) (A) (A) (A) (A) (A)
                 (A) (A) (A) (A) (A) (A) (A) (A) (A) (A) (A) (A)
                 (A) (A) (A) (A) (A) (A) (A) (A) (A) (A) (A) (A)
                 (A) (A) (A) (A) (A) (A) (A) (A) (A) (A) (A) (A)
                 (A) (A) (A) (A) (A) (A) (A) (A) (A) (A) (A) (A)
                 (A) (A) (A) (A) (A) (A) (A) (A) (A) (A) (A) (A)
                 (A) (A) (A) (A) (A) (A) (A) (A) (A) (A) (A) (A)
                 (A) (A) (A) (A) (A) (A) (A) (A) (A) (A) (A) (A)
                 (A) (A) (A) (A) (A) (A) (A) (A) (A) (A) (A) (A)
                 (A) (A) (A) (A) (A) (A) (A) (A) (A) (A) (A) (A)
                 (A) (A) (A) (A) (A) (A) (A) (A) (A) (A) (A) (A)
                 (A) (A) (A) (A) (A) (A) (A) (A) (A) (A) (A) (A)
                 (A) (A) (A) (A) (A) (A) (A) (A) (A) (A) (A) (A)
                 (A) (A) (A) (A) (A) (A) (A) (A) (A) (A) (A) (A)
                 (A) (A) (A) (A) (A) (A) (A) (A) (A) (A) (A) (A)
                 (A) (A) (A) (A) (A) (A) (A) (A) (A) (A) (A) (A)
                 (A) (A) (A) (A) (A) (A) (A) (A) (A) (A) (A) (A)
                 (A) (A) (A) (A) (A) (A) (A) (A) (A) (A) (A) (A)
                 (A) (A) (A) (A) (A) (A) (A) (A) (A) (A) (A) (A)
                 (A) (A) (A) (A) (A) (A) (A) (A) (A) (A) (A) (A)
                 (A) (A) (A) (A) (A) (A) (A) (A) (A) (A) (A) (A)
                 (A) (A) (A) (A) (A) (A) (A) (A) (A) (A) (A) (A)
                 (A) (A) (A) (A) (A) (A) (A) (A) (A) (A) (A) (A)
                 (A) (A) (A) (A) (A) (A) (A) (A) (A) (A) (A) (A)
                 (A) (A) (A) (A) (A) (A) (A) (A) (A) (A) (A) (A)
                 (A) (A) (A) (A) (A) (A) (A) (A) (A) (A) (A) (A)
                 (A) (A) (A) (A) (A) (A) (A) (A) (A) (A) (A) (A)
                 (A) (A) (A) (A) (A) (A) (A) (A) (A) (A) (A) (A)
                 (A) (A) (A) (A) (A) (A) (A) (A) (A) (A) (A) (A)
                 (A) (A) (A) (A) (A) (A) (A) (A) (A) (A) (A) (A)
                 (A) (A) (A) (A) (A) (A) (A) (A) (A) (A) (A) (A)
                 (A) (A) (A) (A) (A) (A) (A) (A) (A) (A) (A) (A)
                 (A) (A) (A) (A) (A) (A) (A) (A) (A) (A) (A) (A)
                 (A) (A) (A) (A) (A) (A) (A) (A) (A) (A) (A) (A)
                 (A) (A) (A) (A) (A) (A) (A) (A) (A) (A) (A) (A)
                 (A) (A) (A) (A) (A) (A) (A) (A) (A) (A) (A) (A)
                 (A) (A) (A) (A) (A) (A) (A) (A) (A) (A) (A) (A)
                 (A) (A) (A) (A) (A) (A) (A) (A) (A) (A) (A) (A)
                 (A) (A) (A) (A) (A) (A) (A) (A) (A) (A) (A) (A)
                 (A) (A) (A) (A) (A) (A) (A) (A) (A) (A) (A) (A)
                 (A) (A) (A) (A) (A) (A) (A) (A) (A) (A) (A) (A)
                 (A) (A) (A) (A) (A) (A) (A) (A) (A) (A) (A) (A)
                 (A) (A) (A) (A) (A) (A) (A) (A) (A) (A) (A) (A)
                 (A) (A) (A) (A) (A) (A) (A) (A) (A) (A) (A) (A)
                 (A) (A) (A)
       Virtual   (A) (A) (A) (A) (A) (A) (A) (A) (A) (A) (A) (A)
                 (A) (A) (A) (A) (A) (A) (A) (A) (A) (A) (A) (A)
                 (A) (A) (A) (A) (A) (A) (A) (A) (A) (A) (A) (A)
                 (A) (A) (A) (A) (A) (A) (A) (A) (A) (A) (A) (A)
                 (A) (A) (A) (A) (A) (A) (A) (A) (A) (A) (A) (A)
                 (A) (A) (A) (A) (A) (A) (A) (A) (A) (A) (A) (A)
                 (A) (A) (A) (A) (A) (A) (A) (A) (A) (A) (A) (A)
                 (A) (A) (A) (A) (A) (A) (A) (A) (A) (A) (A) (A)
                 (A) (A) (A) (A) (A) (A) (A) (A) (A) (A) (A) (A)
                 (A) (A) (A) (A) (A) (A) (A) (A) (A) (A) (A) (A)
                 (A) (A) (A) (A) (A) (A) (A) (A) (A) (A) (A) (A)
                 (A) (A) (A) (A) (A) (A) (A) (A) (A) (A) (A) (A)
                 (A) (A) (A) (A) (A) (A) (A) (A) (A) (A) (A) (A)
                 (A) (A) (A) (A) (A) (A) (A) (A) (A) (A) (A) (A)
                 (A) (A) (A) (A) (A) (A) (A) (A) (A) (A) (A) (A)
                 (A) (A) (A) (A) (A) (A) (A) (A) (A) (A) (A) (A)
                 (A) (A) (A) (A) (A) (A) (A) (A) (A) (A) (A) (A)
                 (A) (A) (A) (A) (A) (A) (A) (A) (A) (A) (A) (A)
                 (A) (A) (A) (A) (A) (A) (A) (A) (A) (A) (A) (A)
                 (A) (A) (A) (A) (A) (A) (A) (A) (A) (A) (A) (A)
                 (A) (A) (A) (A) (A) (A) (A) (A) (A) (A) (A) (A)
                 (A) (A) (A) (A) (A) (A) (A) (A) (A) (A) (A) (A)
                 (A) (A) (A) (A) (A) (A) (A) (A) (A) (A) (A) (A)
                 (A) (A) (A) (A) (A) (A) (A) (A) (A) (A) (A) (A)
                 (A) (A) (A) (A) (A) (A) (A) (A) (A) (A) (A) (A)
                 (A) (A) (A) (A) (A) (A) (A) (A) (A) (A) (A) (A)
                 (A) (A) (A) (A) (A) (A) (A) (A) (A) (A) (A) (A)
                 (A) (A) (A) (A) (A) (A) (A) (A) (A) (A) (A) (A)
                 (A) (A) (A) (A) (A) (A) (A) (A) (A) (A) (A) (A)
                 (A) (A) (A) (A) (A) (A) (A) (A) (A) (A) (A) (A)
                 (A) (A) (A) (A) (A) (A) (A) (A) (A) (A) (A) (A)
                 (A) (A) (A) (A) (A) (A) (A) (A) (A) (A) (A) (A)
                 (A) (A) (A) (A) (A) (A) (A) (A) (A) (A) (A) (A)
                 (A) (A) (A) (A) (A) (A) (A) (A) (A) (A) (A) (A)
                 (A) (A) (A) (A) (A) (A) (A) (A) (A) (A) (A) (A)
                 (A) (A) (A) (A) (A) (A) (A) (A) (A) (A) (A) (A)
                 (A) (A) (A) (A) (A) (A) (A) (A) (A) (A) (A) (A)
                 (A) (A) (A) (A) (A) (A) (A) (A) (A) (A) (A) (A)
                 (A) (A) (A) (A) (A) (A) (A) (A) (A) (A) (A) (A)
                 (A) (A) (A) (A) (A) (A) (A) (A) (A) (A) (A) (A)
                 (A) (A) (A) (A) (A) (A) (A) (A) (A) (A) (A) (A)
                 (A) (A) (A) (A) (A) (A) (A) (A) (A) (A) (A) (A)
                 (A) (A) (A) (A) (A) (A) (A) (A) (A) (A) (A) (A)
                 (A) (A) (A) (A) (A) (A) (A) (A) (A) (A) (A) (A)
                 (A) (A) (A) (A) (A) (A) (A) (A) (A) (A) (A) (A)
                 (A) (A) (A) (A) (A) (A) (A) (A) (A) (A) (A) (A)
                 (A) (A) (A) (A) (A) (A) (A) (A) (A) (A) (A) (A)
                 (A) (A) (A) (A) (A) (A) (A) (A) (A) (A) (A) (A)
                 (A) (A) (A) (A) (A) (A) (A) (A) (A) (A) (A) (A)
                 (A) (A) (A) (A) (A) (A) (A) (A) (A) (A) (A) (A)
                 (A) (A) (A) (A) (A) (A) (A) (A) (A) (A) (A) (A)
                 (A) (A) (A) (A) (A) (A) (A) (A) (A) (A) (A) (A)
                 (A) (A) (A) (A) (A) (A) (A) (A) (A) (A) (A) (A)
                 (A) (A) (A) (A) (A) (A) (A) (A) (A) (A) (A) (A)
                 (A) (A) (A) (A) (A) (A) (A) (A) (A) (A) (A) (A)
                 (A) (A) (A) (A) (A) (A) (A) (A) (A) (A) (A) (A)
                 (A) (A) (A) (A) (A) (A) (A) (A) (A) (A) (A) (A)
                 (A) (A) (A) (A) (A) (A) (A) (A) (A) (A) (A) (A)
                 (A) (A) (A) (A) (A) (A) (A) (A) (A) (A) (A) (A)
                 (A) (A) (A) (A) (A) (A) (A) (A) (A) (A) (A) (A)
                 (A) (A) (A) (A) (A) (A) (A) (A) (A) (A) (A) (A)
                 (A) (A) (A) (A) (A) (A) (A) (A) (A) (A) (A) (A)
                 (A) (A) (A) (A) (A) (A) (A) (A) (A) (A) (A) (A)
                 (A) (A) (A) (A) (A) (A) (A) (A) (A) (A) (A) (A)
                 (A) (A) (A) (A) (A) (A) (A) (A) (A) (A) (A) (A)
                 (A) (A) (A) (A) (A) (A) (A) (A) (A) (A) (A) (A)
                 (A) (A) (A) (A) (A) (A) (A) (A) (A) (A) (A) (A)
                 (A) (A) (A) (A) (A) (A) (A) (A) (A) (A) (A) (A)
                 (A) (A) (A) (A) (A) (A) (A) (A) (A) (A) (A) (A)
                 (A) (A) (A) (A) (A) (A) (A) (A) (A) (A) (A) (A)
                 (A) (A) (A) (A) (A) (A) (A) (A) (A) (A) (A) (A)
                 (A) (A) (A) (A) (A) (A) (A) (A) (A) (A) (A) (A)
                 (A) (A) (A) (A) (A) (A) (A) (A) (A) (A) (A) (A)
                 (A) (A) (A) (A) (A) (A) (A) (A) (A) (A) (A) (A)
                 (A) (A) (A) (A) (A) (A) (A) (A) (A) (A) (A) (A)
                 (A) (A) (A) (A) (A) (A) (A) (A) (A) (A) (A) (A)
                 (A) (A) (A) (A) (A) (A) (A) (A) (A) (A) (A) (A)
                 (A) (A) (A) (A) (A) (A) (A) (A) (A) (A) (A) (A)
                 (A) (A) (A) (A) (A) (A) (A) (A) (A) (A) (A) (A)
                 (A) (A) (A) (A) (A) (A) (A) (A) (A) (A) (A) (A)
                 (A) (A) (A) (A) (A) (A) (A) (A) (A) (A) (A) (A)
                 (A) (A) (A) (A) (A) (A) (A) (A) (A) (A) (A) (A)
                 (A) (A) (A) (A) (A) (A) (A) (A) (A) (A) (A) (A)
                 (A) (A) (A) (A) (A) (A) (A) (A) (A) (A) (A) (A)
                 (A) (A) (A) (A) (A) (A) (A) (A) (A) (A) (A) (A)
                 (A) (A) (A) (A) (A) (A) (A) (A) (A) (A) (A) (A)
                 (A) (A) (A) (A) (A) (A) (A) (A) (A) (A) (A) (A)
                 (A) (A) (A) (A) (A) (A) (A) (A) (A) (A) (A) (A)
                 (A) (A) (A) (A) (A) (A) (A) (A) (A) (A) (A) (A)
                 (A) (A) (A) (A) (A) (A) (A) (A) (A) (A) (A) (A)
                 (A) (A) (A) (A) (A) (A) (A) (A) (A) (A) (A) (A)
                 (A) (A) (A) (A) (A) (A) (A) (A) (A) (A) (A) (A)
                 (A) (A) (A) (A) (A) (A) (A) (A) (A) (A) (A) (A)
                 (A) (A) (A) (A) (A) (A) (A) (A) (A) (A) (A) (A)
                 (A) (A) (A) (A) (A) (A) (A) (A) (A) (A) (A) (A)
                 (A) (A) (A) (A) (A) (A) (A) (A) (A) (A) (A) (A)
                 (A) (A) (A) (A) (A) (A) (A) (A) (A) (A) (A) (A)
                 (A) (A) (A) (A) (A) (A) (A) (A) (A) (A) (A) (A)
                 (A) (A) (A) (A) (A) (A) (A) (A) (A) (A) (A) (A)
                 (A) (A) (A) (A) (A) (A) (A) (A) (A) (A) (A) (A)
                 (A) (A) (A) (A) (A) (A) (A) (A) (A) (A) (A) (A)
                 (A) (A) (A) (A) (A) (A) (A) (A) (A) (A) (A) (A)
                 (A) (A) (A) (A) (A) (A) (A) (A) (A) (A) (A) (A)
                 (A) (A) (A) (A) (A) (A) (A) (A) (A) (A) (A) (A)
                 (A) (A) (A) (A) (A) (A) (A) (A) (A) (A) (A) (A)
                 (A) (A) (A) (A) (A) (A) (A) (A) (A) (A) (A) (A)
                 (A) (A) (A) (A) (A) (A) (A) (A) (A) (A) (A) (A)
                 (A) (A) (A) (A) (A) (A) (A) (A) (A) (A) (A) (A)
                 (A) (A) (A) (A) (A) (A) (A) (A) (A) (A) (A) (A)
                 (A) (A) (A) (A) (A) (A) (A) (A) (A) (A) (A) (A)
                 (A) (A) (A) (A) (A) (A) (A) (A) (A) (A) (A) (A)
                 (A) (A) (A) (A) (A) (A) (A) (A) (A) (A) (A) (A)
                 (A) (A) (A) (A) (A) (A) (A) (A) (A) (A) (A) (A)
                 (A) (A) (A) (A) (A) (A) (A) (A) (A) (A) (A) (A)
                 (A) (A) (A) (A) (A) (A) (A) (A) (A) (A) (A) (A)
                 (A) (A) (A) (A) (A) (A) (A) (A) (A) (A) (A) (A)
                 (A) (A) (A) (A) (A) (A) (A) (A) (A) (A) (A) (A)
                 (A) (A) (A) (A) (A) (A) (A) (A) (A) (A) (A) (A)
                 (A) (A) (A) (A) (A) (A) (A) (A) (A) (A) (A) (A)
                 (A) (A) (A) (A) (A) (A) (A) (A) (A) (A) (A) (A)
                 (A) (A) (A) (A) (A) (A) (A) (A) (A) (A) (A) (A)
                 (A) (A) (A) (A) (A) (A) (A) (A) (A) (A) (A) (A)
                 (A) (A) (A) (A) (A) (A) (A) (A) (A) (A) (A) (A)
                 (A) (A) (A) (A) (A) (A) (A) (A) (A) (A) (A) (A)
                 (A) (A) (A) (A) (A) (A) (A) (A) (A) (A) (A) (A)
                 (A) (A) (A) (A) (A) (A) (A) (A) (A) (A) (A) (A)
                 (A) (A) (A) (A) (A) (A) (A) (A) (A) (A) (A) (A)
                 (A) (A) (A) (A) (A) (A) (A) (A) (A) (A) (A) (A)
                 (A) (A) (A) (A) (A) (A) (A) (A) (A) (A) (A) (A)
                 (A) (A) (A) (A) (A) (A) (A) (A) (A) (A) (A) (A)
                 (A) (A) (A) (A) (A) (A) (A) (A) (A) (A) (A) (A)
                 (A) (A) (A) (A) (A) (A) (A) (A) (A) (A) (A) (A)
                 (A) (A) (A) (A) (A) (A) (A) (A) (A) (A) (A) (A)
                 (A) (A) (A) (A) (A) (A) (A) (A) (A) (A) (A) (A)
                 (A) (A) (A) (A) (A) (A) (A) (A) (A) (A) (A) (A)
                 (A) (A) (A) (A) (A) (A) (A) (A) (A) (A) (A) (A)
                 (A) (A) (A) (A) (A) (A) (A) (A) (A) (A) (A) (A)
                 (A) (A) (A) (A) (A) (A) (A) (A) (A) (A) (A) (A)
                 (A) (A) (A) (A) (A) (A) (A) (A) (A) (A) (A) (A)
                 (A) (A) (A) (A) (A) (A) (A) (A) (A) (A) (A) (A)
                 (A) (A) (A) (A) (A) (A) (A) (A) (A) (A) (A) (A)
                 (A) (A) (A) (A) (A) (A) (A) (A) (A) (A) (A) (A)
                 (A) (A) (A) (A) (A) (A) (A) (A) (A) (A) (A) (A)
                 (A) (A) (A) (A) (A) (A) (A) (A) (A) (A) (A) (A)
                 (A) (A) (A) (A) (A) (A) (A) (A) (A) (A) (A) (A)
                 (A) (A) (A) (A) (A) (A) (A) (A) (A) (A) (A) (A)
                 (A) (A) (A) (A) (A) (A) (A) (A) (A) (A) (A) (A)
                 (A) (A) (A) (A) (A) (A) (A) (A) (A) (A) (A) (A)
                 (A) (A) (A) (A) (A) (A) (A) (A) (A) (A) (A) (A)
                 (A) (A) (A) (A) (A) (A) (A) (A) (A) (A) (A) (A)
                 (A) (A) (A) (A) (A) (A) (A) (A) (A) (A) (A) (A)
                 (A) (A) (A) (A) (A) (A) (A) (A) (A) (A) (A) (A)
                 (A) (A) (A) (A) (A) (A) (A) (A) (A) (A) (A) (A)
                 (A) (A) (A) (A) (A) (A) (A) (A) (A) (A) (A) (A)
                 (A) (A) (A) (A) (A) (A) (A) (A) (A) (A) (A) (A)
                 (A) (A) (A) (A) (A) (A) (A) (A) (A) (A) (A) (A)
                 (A) (A) (A) (A) (A) (A) (A) (A) (A) (A) (A) (A)
                 (A) (A) (A) (A) (A) (A) (A) (A) (A) (A) (A) (A)
                 (A) (A) (A) (A) (A) (A) (A) (A) (A) (A) (A) (A)
                 (A) (A) (A) (A) (A) (A) (A) (A) (A) (A) (A) (A)
                 (A) (A) (A) (A) (A) (A) (A) (A) (A) (A) (A) (A)
                 (A) (A) (A) (A) (A) (A) (A) (A) (A) (A) (A) (A)
                 (A) (A) (A) (A) (A) (A) (A) (A) (A) (A) (A) (A)
                 (A) (A) (A) (A) (A) (A) (A) (A) (A) (A) (A) (A)
                 (A) (A) (A) (A) (A) (A) (A) (A) (A) (A) (A) (A)
                 (A) (A) (A) (A) (A) (A) (A) (A) (A) (A) (A) (A)
                 (A) (A) (A) (A) (A) (A) (A) (A) (A) (A) (A) (A)
                 (A) (A) (A) (A) (A) (A) (A) (A) (A) (A) (A) (A)
                 (A) (A) (A) (A) (A) (A) (A) (A) (A) (A) (A) (A)
                 (A) (A) (A) (A) (A) (A) (A) (A) (A) (A) (A) (A)
                 (A) (A) (A) (A) (A) (A) (A) (A) (A) (A) (A) (A)
                 (A) (A) (A) (A) (A) (A)
 The electronic state is 1-A.
 Alpha  occ. eigenvalues --  -88.97599 -88.97243 -88.95205 -19.23720 -19.23537
 Alpha  occ. eigenvalues --  -19.22354 -19.21933 -19.21178 -19.21012 -19.19301
 Alpha  occ. eigenvalues --  -19.19152 -19.19136 -19.17771 -19.12811 -19.10582
 Alpha  occ. eigenvalues --  -19.10234 -14.45757 -14.44022 -14.43751 -14.42305
 Alpha  occ. eigenvalues --  -14.38312 -14.37908 -10.37844 -10.36734 -10.36274
 Alpha  occ. eigenvalues --  -10.36026 -10.34545 -10.34199 -10.30699 -10.30048
 Alpha  occ. eigenvalues --  -10.29777 -10.29488 -10.29092 -10.28888 -10.27935
 Alpha  occ. eigenvalues --  -10.27682 -10.27546 -10.27502 -10.27456 -10.27418
 Alpha  occ. eigenvalues --  -10.27330 -10.26770 -10.25894 -10.25783 -10.25641
 Alpha  occ. eigenvalues --  -10.25630 -10.25570 -10.25556 -10.25235 -10.25183
 Alpha  occ. eigenvalues --  -10.25154 -10.25054 -10.25041 -10.25030 -10.24978
 Alpha  occ. eigenvalues --  -10.24930 -10.24912 -10.24825 -10.24759 -10.24659
 Alpha  occ. eigenvalues --  -10.24647 -10.24604 -10.24592 -10.24584 -10.24567
 Alpha  occ. eigenvalues --  -10.24555 -10.24530 -10.24522 -10.24454 -10.24187
 Alpha  occ. eigenvalues --  -10.24173 -10.24043 -10.24019 -10.23971 -10.23971
 Alpha  occ. eigenvalues --  -10.23930 -10.23923 -10.23857 -10.23845 -10.23825
 Alpha  occ. eigenvalues --  -10.23809 -10.23779 -10.23685 -10.23674 -10.23645
 Alpha  occ. eigenvalues --  -10.23624 -10.23561 -10.23524 -10.23457 -10.23444
 Alpha  occ. eigenvalues --  -10.23407 -10.23399 -10.23315 -10.23274 -10.23235
 Alpha  occ. eigenvalues --  -10.23218 -10.23209 -10.23166 -10.23156 -10.23040
 Alpha  occ. eigenvalues --  -10.23023 -10.22994 -10.22978 -10.22936 -10.22935
 Alpha  occ. eigenvalues --  -10.22833 -10.22827 -10.22771 -10.22759 -10.22716
 Alpha  occ. eigenvalues --  -10.22652 -10.22479 -10.22443 -10.22391 -10.22341
 Alpha  occ. eigenvalues --  -10.22334 -10.22273 -10.22249 -10.22210 -10.22189
 Alpha  occ. eigenvalues --  -10.22105 -10.21919 -10.21760 -10.21671 -10.21643
 Alpha  occ. eigenvalues --  -10.21540 -10.21474 -10.21372 -10.21214 -10.21193
 Alpha  occ. eigenvalues --  -10.21043 -10.20978 -10.20943 -10.20720 -10.20699
 Alpha  occ. eigenvalues --  -10.20633 -10.20582 -10.20581 -10.20532 -10.20340
 Alpha  occ. eigenvalues --  -10.20090 -10.19966 -10.18985 -10.18683 -10.18605
 Alpha  occ. eigenvalues --   -7.99499  -7.99166  -7.97036  -5.94550  -5.94212
 Alpha  occ. eigenvalues --   -5.94168  -5.93835  -5.93469  -5.93131  -5.92086
 Alpha  occ. eigenvalues --   -5.91694  -5.91034  -1.13509  -1.11332  -1.10340
 Alpha  occ. eigenvalues --   -1.09607  -1.09222  -1.09176  -1.08437  -1.07736
 Alpha  occ. eigenvalues --   -1.06158  -1.04063  -1.03285  -1.01715  -0.99753
 Alpha  occ. eigenvalues --   -0.98065  -0.97819  -0.96921  -0.96465  -0.94859
 Alpha  occ. eigenvalues --   -0.92530  -0.91030  -0.90084  -0.89871  -0.89869
 Alpha  occ. eigenvalues --   -0.88866  -0.88062  -0.86353  -0.86245  -0.85930
 Alpha  occ. eigenvalues --   -0.85696  -0.85643  -0.85344  -0.85036  -0.84875
 Alpha  occ. eigenvalues --   -0.84786  -0.84138  -0.83821  -0.83790  -0.83342
 Alpha  occ. eigenvalues --   -0.83235  -0.83078  -0.82850  -0.82631  -0.81824
 Alpha  occ. eigenvalues --   -0.81770  -0.81730  -0.81075  -0.80841  -0.80547
 Alpha  occ. eigenvalues --   -0.80325  -0.80303  -0.79310  -0.78941  -0.78820
 Alpha  occ. eigenvalues --   -0.78351  -0.78187  -0.77906  -0.77883  -0.77761
 Alpha  occ. eigenvalues --   -0.77460  -0.77125  -0.76896  -0.76817  -0.76481
 Alpha  occ. eigenvalues --   -0.76249  -0.76169  -0.75751  -0.75702  -0.74998
 Alpha  occ. eigenvalues --   -0.74203  -0.74000  -0.73826  -0.73367  -0.73219
 Alpha  occ. eigenvalues --   -0.73028  -0.72952  -0.72580  -0.72455  -0.72417
 Alpha  occ. eigenvalues --   -0.72271  -0.72001  -0.71356  -0.71321  -0.71301
 Alpha  occ. eigenvalues --   -0.71025  -0.70654  -0.70577  -0.70140  -0.70056
 Alpha  occ. eigenvalues --   -0.69943  -0.69817  -0.69015  -0.68693  -0.67989
 Alpha  occ. eigenvalues --   -0.67483  -0.67386  -0.67124  -0.66856  -0.66697
 Alpha  occ. eigenvalues --   -0.66242  -0.66178  -0.66001  -0.65870  -0.65637
 Alpha  occ. eigenvalues --   -0.65360  -0.65241  -0.64805  -0.64776  -0.64368
 Alpha  occ. eigenvalues --   -0.64334  -0.63700  -0.63254  -0.63081  -0.62782
 Alpha  occ. eigenvalues --   -0.62471  -0.62373  -0.62252  -0.61849  -0.61572
 Alpha  occ. eigenvalues --   -0.61542  -0.60977  -0.60921  -0.60903  -0.60832
 Alpha  occ. eigenvalues --   -0.60642  -0.60439  -0.60357  -0.60139  -0.59842
 Alpha  occ. eigenvalues --   -0.59679  -0.59224  -0.59056  -0.58864  -0.58668
 Alpha  occ. eigenvalues --   -0.58406  -0.58275  -0.57939  -0.57847  -0.57654
 Alpha  occ. eigenvalues --   -0.57445  -0.56954  -0.56166  -0.55830  -0.55679
 Alpha  occ. eigenvalues --   -0.55100  -0.54748  -0.54655  -0.54324  -0.53832
 Alpha  occ. eigenvalues --   -0.53799  -0.53434  -0.53163  -0.52682  -0.52226
 Alpha  occ. eigenvalues --   -0.52169  -0.51560  -0.51542  -0.51479  -0.51216
 Alpha  occ. eigenvalues --   -0.51102  -0.50854  -0.50812  -0.50730  -0.50664
 Alpha  occ. eigenvalues --   -0.50584  -0.50542  -0.50240  -0.50206  -0.50086
 Alpha  occ. eigenvalues --   -0.49934  -0.49800  -0.49782  -0.49621  -0.49475
 Alpha  occ. eigenvalues --   -0.49392  -0.49222  -0.49116  -0.48949  -0.48899
 Alpha  occ. eigenvalues --   -0.48795  -0.48629  -0.48557  -0.48431  -0.48358
 Alpha  occ. eigenvalues --   -0.48208  -0.48113  -0.48012  -0.47954  -0.47944
 Alpha  occ. eigenvalues --   -0.47733  -0.47651  -0.47565  -0.47545  -0.47404
 Alpha  occ. eigenvalues --   -0.47373  -0.47301  -0.47256  -0.47247  -0.47091
 Alpha  occ. eigenvalues --   -0.46989  -0.46894  -0.46795  -0.46673  -0.46495
 Alpha  occ. eigenvalues --   -0.46462  -0.46309  -0.46274  -0.46179  -0.46087
 Alpha  occ. eigenvalues --   -0.45992  -0.45966  -0.45938  -0.45684  -0.45603
 Alpha  occ. eigenvalues --   -0.45544  -0.45448  -0.45393  -0.45312  -0.45269
 Alpha  occ. eigenvalues --   -0.45124  -0.45027  -0.44984  -0.44928  -0.44777
 Alpha  occ. eigenvalues --   -0.44745  -0.44578  -0.44528  -0.44523  -0.44503
 Alpha  occ. eigenvalues --   -0.44373  -0.44240  -0.44212  -0.44183  -0.44101
 Alpha  occ. eigenvalues --   -0.44031  -0.43870  -0.43745  -0.43706  -0.43528
 Alpha  occ. eigenvalues --   -0.43507  -0.43405  -0.43307  -0.43289  -0.43231
 Alpha  occ. eigenvalues --   -0.43108  -0.43080  -0.42980  -0.42936  -0.42868
 Alpha  occ. eigenvalues --   -0.42842  -0.42771  -0.42648  -0.42539  -0.42423
 Alpha  occ. eigenvalues --   -0.42275  -0.42213  -0.42177  -0.42038  -0.41987
 Alpha  occ. eigenvalues --   -0.41944  -0.41854  -0.41770  -0.41655  -0.41625
 Alpha  occ. eigenvalues --   -0.41586  -0.41559  -0.41445  -0.41400  -0.41375
 Alpha  occ. eigenvalues --   -0.41225  -0.41199  -0.41185  -0.41089  -0.41058
 Alpha  occ. eigenvalues --   -0.40993  -0.40956  -0.40876  -0.40819  -0.40551
 Alpha  occ. eigenvalues --   -0.40518  -0.40361  -0.40358  -0.40234  -0.40173
 Alpha  occ. eigenvalues --   -0.40118  -0.40040  -0.39932  -0.39793  -0.39710
 Alpha  occ. eigenvalues --   -0.39696  -0.39617  -0.39600  -0.39570  -0.39524
 Alpha  occ. eigenvalues --   -0.39383  -0.39327  -0.39320  -0.39216  -0.39187
 Alpha  occ. eigenvalues --   -0.38995  -0.38915  -0.38875  -0.38833  -0.38804
 Alpha  occ. eigenvalues --   -0.38691  -0.38531  -0.38444  -0.38339  -0.38322
 Alpha  occ. eigenvalues --   -0.38168  -0.38110  -0.38009  -0.37882  -0.37770
 Alpha  occ. eigenvalues --   -0.37732  -0.37626  -0.37547  -0.37519  -0.37458
 Alpha  occ. eigenvalues --   -0.37371  -0.37317  -0.37265  -0.37176  -0.37101
 Alpha  occ. eigenvalues --   -0.36987  -0.36864  -0.36774  -0.36749  -0.36677
 Alpha  occ. eigenvalues --   -0.36607  -0.36555  -0.36453  -0.36427  -0.36338
 Alpha  occ. eigenvalues --   -0.36255  -0.36164  -0.35972  -0.35894  -0.35859
 Alpha  occ. eigenvalues --   -0.35768  -0.35750  -0.35736  -0.35693  -0.35529
 Alpha  occ. eigenvalues --   -0.35487  -0.35385  -0.35285  -0.35270  -0.35219
 Alpha  occ. eigenvalues --   -0.35197  -0.35136  -0.35022  -0.34952  -0.34906
 Alpha  occ. eigenvalues --   -0.34893  -0.34859  -0.34642  -0.34555  -0.34485
 Alpha  occ. eigenvalues --   -0.34378  -0.34317  -0.34261  -0.34165  -0.34127
 Alpha  occ. eigenvalues --   -0.34018  -0.33975  -0.33948  -0.33868  -0.33773
 Alpha  occ. eigenvalues --   -0.33608  -0.33502  -0.33445  -0.33372  -0.33305
 Alpha  occ. eigenvalues --   -0.33274  -0.33207  -0.33192  -0.32997  -0.32911
 Alpha  occ. eigenvalues --   -0.32891  -0.32743  -0.32587  -0.32539  -0.32531
 Alpha  occ. eigenvalues --   -0.32363  -0.32309  -0.32132  -0.31973  -0.31770
 Alpha  occ. eigenvalues --   -0.31675  -0.31303  -0.31206  -0.31068  -0.31062
 Alpha  occ. eigenvalues --   -0.30428  -0.29937  -0.29635  -0.29317  -0.28998
 Alpha  occ. eigenvalues --   -0.28911  -0.28336  -0.28296  -0.27811  -0.27587
 Alpha  occ. eigenvalues --   -0.27160  -0.26946  -0.26792  -0.26657  -0.26396
 Alpha  occ. eigenvalues --   -0.26237  -0.25413  -0.24146  -0.23800  -0.23339
 Alpha  occ. eigenvalues --   -0.23141  -0.22561  -0.22344  -0.21964  -0.21798
 Alpha  occ. eigenvalues --   -0.21082  -0.20325  -0.19926  -0.18009
 Alpha virt. eigenvalues --    0.06772   0.12170   0.12449   0.12524   0.12547
 Alpha virt. eigenvalues --    0.12891   0.13574   0.13698   0.14197   0.14602
 Alpha virt. eigenvalues --    0.14686   0.15051   0.15517   0.15658   0.15784
 Alpha virt. eigenvalues --    0.16010   0.16098   0.16469   0.17538   0.18084
 Alpha virt. eigenvalues --    0.18325   0.18452   0.18690   0.18825   0.18921
 Alpha virt. eigenvalues --    0.19195   0.19349   0.19454   0.19519   0.19657
 Alpha virt. eigenvalues --    0.19784   0.20022   0.20244   0.20677   0.20806
 Alpha virt. eigenvalues --    0.20950   0.21199   0.21336   0.21461   0.21575
 Alpha virt. eigenvalues --    0.21784   0.21854   0.22042   0.22159   0.22332
 Alpha virt. eigenvalues --    0.22393   0.22414   0.22666   0.22758   0.22937
 Alpha virt. eigenvalues --    0.22963   0.23119   0.23189   0.23386   0.23490
 Alpha virt. eigenvalues --    0.23566   0.23712   0.23734   0.23856   0.23898
 Alpha virt. eigenvalues --    0.24016   0.24087   0.24313   0.24375   0.24395
 Alpha virt. eigenvalues --    0.24595   0.24713   0.24837   0.24914   0.25005
 Alpha virt. eigenvalues --    0.25168   0.25203   0.25244   0.25441   0.25488
 Alpha virt. eigenvalues --    0.25638   0.25704   0.25847   0.25899   0.25952
 Alpha virt. eigenvalues --    0.26065   0.26162   0.26328   0.26352   0.26500
 Alpha virt. eigenvalues --    0.26602   0.26675   0.26774   0.26907   0.26969
 Alpha virt. eigenvalues --    0.27076   0.27125   0.27146   0.27303   0.27403
 Alpha virt. eigenvalues --    0.27483   0.27528   0.27713   0.27751   0.27859
 Alpha virt. eigenvalues --    0.27861   0.27911   0.27992   0.28068   0.28124
 Alpha virt. eigenvalues --    0.28231   0.28261   0.28290   0.28347   0.28391
[...]
  248 Atom       -0.290505      0.141385      0.149120
  249 Atom       -0.291337      0.140995      0.150342
  250 Atom       -0.280153      0.136531      0.143622
  251 Atom       -0.292051      0.143786      0.148266
  252 Atom       -0.292867      0.141066      0.151801
  253 Atom       -0.067414      0.015566      0.051848
  254 Atom       -0.290677      0.140578      0.150099
  255 Atom       -0.076649      0.008922      0.067727
  256 Atom       -0.287054      0.138424      0.148631
  257 Atom       -0.270885      0.131757      0.139128
  258 Atom       -0.412052      0.040437      0.371615
  259 Atom       -0.777184     -0.700902      1.478086
  260 Atom       -1.281489      0.371129      0.910360
  261 Atom       -0.321276      0.141728      0.179549
  262 Atom       -0.294548      0.143625      0.150923
  263 Atom       -0.294040      0.144193      0.149847
  264 Atom       -0.034047      0.002785      0.031262
  265 Atom       -0.290791      0.142032      0.148758
  266 Atom       -0.040572     -0.009490      0.050062
  267 Atom       -0.283713      0.138623      0.145090
  268 Atom       -0.285803      0.138489      0.147314
  269 Atom       -0.211748      0.083871      0.127877
  270 Atom       -0.287798      0.138856      0.148942
  271 Atom       -0.287996      0.137005      0.150992
  272 Atom       -2.278471     -0.483542      2.762014
  273 Atom       -0.256010      0.096760      0.159251
  274 Atom       -0.293941      0.141702      0.152239
  275 Atom       -0.292386      0.141137      0.151249
  276 Atom       -0.268407      0.127264      0.141144
  277 Atom       -0.288410      0.142336      0.146075
  278 Atom       -0.295590      0.140182      0.155408
  279 Atom       -0.040889     -0.000739      0.041628
  280 Atom       -0.292931      0.142829      0.150102
  281 Atom       -0.050269     -0.010834      0.061103
  282 Atom       -0.292781      0.144374      0.148407
  283 Atom       -0.285614      0.138859      0.146755
  284 Atom       -0.300422      0.149398      0.151024
  285 Atom       -0.292575      0.140943      0.151632
  286 Atom       -0.292468      0.142922      0.149547
  287 Atom       -0.035394      0.010007      0.025388
  288 Atom       -0.291885      0.143468      0.148417
  289 Atom       -0.038850     -0.000969      0.039819
  290 Atom       -0.284409      0.140751      0.143658
  291 Atom       -0.288916      0.142863      0.146052
  292 Atom       -0.066316      0.006207      0.060109
  293 Atom       -0.120609     -0.081525      0.202135
  294 Atom       -0.308334      0.142267      0.166067
  295 Atom       -0.429627     -0.063317      0.492944
  296 Atom       -0.234873      0.093355      0.141518
  297 Atom       -0.146818     -0.077636      0.224455
  298 Atom       -0.251688      0.086171      0.165518
  299 Atom       -0.284127      0.133201      0.150925
  300 Atom       -0.214941      0.080641      0.134300
  301 Atom       -0.304831      0.142688      0.162143
  302 Atom       -0.198036      0.068947      0.129089
  303 Atom       -0.305886      0.142166      0.163720
  304 Atom       -0.220528      0.074163      0.146365
  305 Atom       -0.303245      0.143012      0.160233
  306 Atom       -0.193043      0.083808      0.109235
  307 Atom       -0.291465      0.142674      0.148791
  308 Atom       -0.293566      0.144544      0.149022
  309 Atom       -0.024543      0.007780      0.016763
  310 Atom       -0.292194      0.144091      0.148103
  311 Atom       -0.034418     -0.001052      0.035470
  312 Atom       -0.283917      0.138025      0.145892
  313 Atom       -0.280985      0.136996      0.143989
  314 Atom       -0.020599     -0.005277      0.025876
  315 Atom       -0.278129      0.138856      0.139273
  316 Atom       -0.023264      0.009423      0.013841
  317 Atom       -0.288338      0.140194      0.148144
  318 Atom       -0.290763      0.142229      0.148534
  319 Atom       -0.292780      0.143927      0.148853
  320 Atom       -0.029236      0.011832      0.017404
  321 Atom       -0.288518      0.141040      0.147478
  322 Atom       -0.291071      0.142440      0.148631
  323 Atom       -0.291543      0.142587      0.148956
  324 Atom       -0.290766      0.142825      0.147941
  325 Atom       -0.566239      0.164694      0.401545
  326 Atom       -0.901877     -0.519553      1.421430
  327 Atom       -0.129171      0.012333      0.116838
  328 Atom       -0.571297      0.237837      0.333460
  329 Atom       -0.043393      0.018221      0.025172
  330 Atom       -0.050892      0.001767      0.049124
  331 Atom       -0.042761     -0.001373      0.044134
  332 Atom       -0.121318      0.010841      0.110477
  333 Atom       -0.047620     -0.023881      0.071501
  334 Atom       -0.039419      0.012163      0.027256
  335 Atom       -0.052455      0.014121      0.038334
  336 Atom       -0.021721      0.002874      0.018847
  337 Atom       -0.024580     -0.002062      0.026642
  338 Atom       -0.029352      0.003594      0.025758
  339 Atom       -0.027617     -0.001355      0.028972
  340 Atom       -0.082745      0.012261      0.070485
  341 Atom       -0.052732      0.004253      0.048480
  342 Atom       -0.323391      0.153541      0.169850
  343 Atom       -0.042634      0.020228      0.022406
  344 Atom       -1.603185     -0.153054      1.756239
  345 Atom       -0.292512      0.131467      0.161045
  346 Atom       -0.267805      0.132270      0.135536
  347 Atom       -0.280519      0.136516      0.144003
  348 Atom       -0.288294      0.141263      0.147031
  349 Atom       -0.281731      0.136439      0.145291
  350 Atom       -0.284340      0.137730      0.146610
  351 Atom       -0.289386      0.135990      0.153396
  352 Atom       -0.227720      0.109454      0.118266
  353 Atom       -0.282637      0.138371      0.144266
  354 Atom       -0.282258      0.138031      0.144227
  355 Atom       -0.273646      0.135433      0.138213
  356 Atom       -0.269745      0.134159      0.135587
  357 Atom       -0.265642      0.129537      0.136105
  358 Atom       -0.281249      0.138082      0.143167
  359 Atom       -0.282829      0.137341      0.145488
  360 Atom       -0.282280      0.138964      0.143317
  361 Atom       -0.287552      0.140896      0.146656
  362 Atom       -0.293573      0.143781      0.149792
  363 Atom       -0.285573      0.139810      0.145763
  364 Atom       -0.290292      0.143059      0.147233
  365 Atom       -0.290613      0.144732      0.145881
  366 Atom       -0.266215      0.126616      0.139599
  367 Atom       -0.294627      0.141432      0.153195
  368 Atom       -0.289886      0.138111      0.151775
  369 Atom       -0.294687      0.143231      0.151457
  370 Atom       -0.449351      0.197261      0.252089
 -----------------------------------------------------
 Unable to Open any file for archive entry.
 1\1\GINC-EXP-5-49\SP\RwB97XD\6-31G(d)\C123H225N6O13S3(1-)\HKLEM\16-Jul
 -2024\0\\# 6-31G(d) wb97xd prop=efg\\19nt_mm_min_distance_cutoff5_nowa
 t\\-1,1\H,0,7.283218,-7.651119,-3.596176\C,-1,6.552599,-7.248561,-2.88
 0904\H,0,5.985816,-8.087338,-2.471238\C,0,7.292677,-6.513757,-1.749942
 \H,0,8.051482,-7.192149,-1.34314\H,0,7.839811,-5.650184,-2.150333\C,0,
 6.360209,-6.068857,-0.651775\C,0,6.144411,-6.847528,0.485936\H,0,6.695
 466,-7.776756,0.613721\C,0,5.234842,-6.459836,1.461563\H,0,5.06632,-7.
 067631,2.344713\C,0,4.517498,-5.275061,1.30637\O,0,3.614301,-4.94166,2
 .274032\H,0,3.280666,-4.030004,2.096639\C,0,4.716726,-4.484717,0.17590
 4\H,0,4.16036,-3.563089,0.048983\C,0,5.631348,-4.889306,-0.785136\H,0,
 5.769072,-4.277673,-1.669908\C,0,5.533506,-6.407884,-3.671331\O,0,4.36
 6986,-6.756848,-3.776463\N,-1,6.009983,-5.275884,-4.27661\H,0,6.997128
 ,-5.074273,-4.214856\C,-1,5.205365,-4.458146,-5.181966\H,0,4.161988,-4
 .688578,-4.953755\C,0,5.472498,-2.950909,-5.057102\H,0,6.517816,-2.767
 231,-5.349929\C,0,4.579383,-2.205146,-6.055321\H,0,4.745341,-1.124701,
 -5.986542\H,0,3.518682,-2.392667,-5.853992\H,0,4.780522,-2.519371,-7.0
 86272\C,0,5.307852,-2.405456,-3.62837\H,0,6.120497,-2.797658,-3.004928
 \H,0,5.459093,-1.319684,-3.652008\C,0,3.965545,-2.71601,-2.97042\H,-1,
 3.913439,-2.24575,-1.983065\H,0,3.815632,-3.792689,-2.841717\H,0,3.126
 856,-2.323182,-3.556396\H,0,5.381012,-4.77227,-6.220918\H,0,1.165945,-
 6.954293,-4.463976\C,-1,0.464162,-6.120744,-4.35444\H,0,-0.421195,-6.4
 89387,-3.822296\C,0,1.120393,-4.967701,-3.586218\H,0,2.014521,-4.66664
 8,-4.148699\C,0,0.194897,-3.752871,-3.493592\H,-1,-0.16693,-3.44092,-4
 .479982\H,0,-0.680353,-3.979764,-2.87553\H,0,0.711558,-2.898577,-3.038
 757\C,0,1.574985,-5.419051,-2.195521\H,0,2.002142,-4.581074,-1.630868\
 H,0,2.34348,-6.194876,-2.265635\H,0,0.730452,-5.815,-1.615703\H,-1,0.1
 49161,-5.80185,-5.35542\H,0,0.29298,1.204178,8.82139\C,-1,0.119199,1.6
 32655,7.826878\H,0,0.938096,2.315865,7.600253\C,0,0.091389,0.511581,6.
 775523\H,0,-0.808567,-0.092998,6.903954\H,0,0.972621,-0.125381,6.91751
 4\C,0,0.145689,1.10257,5.357632\O,0,1.157548,1.845488,5.146375\O,0,-0.
 767323,0.845916,4.54901\C,0,-1.249636,2.304996,7.884921\O,0,-2.262249,
 1.645384,8.103998\N,0,-1.325186,3.645079,7.676479\C,0,-2.627372,4.3067
 65,7.656288\H,0,-3.151897,4.062515,6.72391\H,0,-3.242715,3.955514,8.48
 8576\C,0,-2.278544,5.794808,7.727923\H,-1,-3.033965,6.420707,7.245171\
 H,0,-2.190832,6.111074,8.77491\C,0,-0.914239,5.868335,7.033313\H,0,-0.
 338016,6.759001,7.299782\H,0,-1.047178,5.861152,5.947121\C,-1,-0.21860
 7,4.576147,7.475698\H,0,0.471009,4.208542,6.709881\H,0,0.34258,4.72283
 5,8.409861\H,0,-4.108089,-7.815301,2.966883\C,-1,-4.290072,-6.736177,3
 .002658\H,0,-3.904034,-6.366107,3.957976\C,0,-3.602822,-6.031604,1.828
 672\H,0,-4.042407,-6.384803,0.887064\H,0,-3.802065,-4.953328,1.876498\
 C,-1,-2.113183,-6.277252,1.827061\C,0,-1.588658,-7.469196,1.316595\H,0
 ,-2.261899,-8.19662,0.866137\C,0,-0.230997,-7.745503,1.360482\H,0,0.17
 2324,-8.664644,0.948323\C,0,0.650287,-6.827417,1.940884\O,0,1.958803,-
 7.145267,1.983415\H,0,2.479534,-6.358629,2.241696\C,0,0.141869,-5.6361
 07,2.46446\H,0,0.817032,-4.925801,2.934083\C,0,-1.222735,-5.369337,2.3
 97253\H,0,-1.599412,-4.436208,2.812477\H,0,-5.377265,-6.579753,2.98538
 \H,0,-9.50915,-4.819752,4.098515\C,-1,-9.456546,-5.317464,3.120722\H,0
 ,-8.748724,-6.149014,3.231089\C,0,-10.8359,-5.823843,2.713409\H,0,-10.
 757886,-6.34472,1.751399\H,-1,-11.468655,-4.945561,2.546392\C,0,-11.44
 1254,-6.750195,3.766853\H,0,-10.761227,-7.576899,3.996931\H,0,-11.5834
 74,-6.205594,4.709593\C,0,-12.780831,-7.400514,3.436711\O,0,-13.180747
 ,-8.375189,4.049459\N,0,-13.514061,-6.819733,2.445642\H,0,-13.201262,-
 6.020587,1.920701\H,0,-14.410091,-7.225539,2.225345\C,0,-8.918689,-4.2
 84702,2.108125\O,0,-9.667697,-3.633681,1.401648\N,0,-7.55117,-4.128376
 ,2.039145\H,0,-6.985193,-4.596619,2.732205\C,-1,-6.942742,-3.009901,1.
 314683\H,-1,-6.032349,-2.703429,1.835695\H,0,-7.633514,-2.163607,1.314
 544\C,0,-6.564462,-3.256847,-0.154821\O,0,-6.160176,-2.314532,-0.82267
 9\N,0,-6.689261,-4.523903,-0.612366\H,0,-7.033757,-5.214402,0.038119\C
 ,-1,-6.365662,-4.928834,-1.976502\H,0,-6.363296,-4.017741,-2.579935\C,
 0,-5.029588,-5.664609,-2.084581\H,0,-5.084193,-6.581914,-1.480118\H,0,
 -4.903688,-5.990939,-3.127177\C,0,-3.797355,-4.856702,-1.657086\H,0,-3
 .959288,-4.516606,-0.625473\C,0,-2.558653,-5.753402,-1.672847\H,0,-1.6
 94538,-5.24886,-1.228682\H,-1,-2.71693,-6.677481,-1.107677\H,0,-2.2976
 09,-6.028717,-2.701981\C,0,-3.581549,-3.619136,-2.529844\H,0,-3.467614
 ,-3.899712,-3.585476\H,0,-4.406411,-2.906907,-2.434175\H,0,-2.665655,-
 3.100067,-2.230868\H,0,-7.176657,-5.567197,-2.344003\H,0,-6.56375,-2.1
 31758,-6.969794\C,-1,-5.550514,-1.732505,-6.847475\H,0,-5.535525,-0.72
 2586,-7.274317\C,0,-5.135985,-1.712521,-5.371849\H,0,-5.148953,-2.7494
 27,-5.007548\C,0,-3.711953,-1.176059,-5.204409\H,0,-2.994145,-1.756382
 ,-5.796347\H,0,-3.651876,-0.129513,-5.533914\H,0,-3.391591,-1.214061,-
 4.157951\C,0,-6.125095,-0.91124,-4.51989\H,-1,-6.078886,0.15685,-4.776
 193\H,0,-7.155569,-1.246519,-4.683796\H,0,-5.909916,-1.02134,-3.450777
 \H,0,-4.867294,-2.351439,-7.440302\H,0,0.671032,-1.115466,-8.683273\C,
 -1,1.113432,-0.861095,-7.714315\H,0,0.750219,0.133738,-7.43266\C,0,0.7
 53556,-1.894181,-6.649233\H,0,1.199411,-1.640479,-5.681624\H,0,1.10665
 9,-2.894648,-6.92263\H,0,-0.330557,-1.950754,-6.501733\H,0,2.19894,-0.
 7955,-7.847808\H,0,11.599492,1.860946,-0.654191\C,-1,11.164961,1.96583
 6,-1.654627\H,-1,11.962063,2.275677,-2.338051\C,0,10.528062,0.65324,-2
 .117264\H,0,11.295685,-0.129098,-2.160668\H,0,10.138727,0.767497,-3.13
 6323\C,0,9.396987,0.190128,-1.198083\H,0,8.567261,0.907113,-1.217225\H
 ,0,9.754233,0.120686,-0.163162\S,0,8.791919,-1.44945,-1.718\C,0,7.5513
 8,-1.749576,-0.430432\H,0,7.986186,-1.612502,0.564142\H,0,6.682335,-1.
 098501,-0.549059\H,-1,7.227008,-2.788851,-0.514513\H,0,10.424091,2.772
 419,-1.613348\H,0,6.851358,3.770113,-4.353651\C,-1,6.1221,3.620513,-5.
 156499\H,0,6.559277,3.999368,-6.086732\C,0,5.742768,2.13929,-5.288086\
 H,0,5.043905,2.013474,-6.123624\H,0,6.639389,1.558415,-5.541114\C,-1,5
 .125047,1.588362,-4.02298\C,0,3.789484,1.1825,-3.973204\H,0,3.179444,1
 .236988,-4.873438\C,0,3.227798,0.71244,-2.786426\H,0,2.185389,0.405328
 ,-2.767736\C,0,3.996143,0.644241,-1.629343\H,0,3.574131,0.287248,-0.69
 5101\C,0,5.328821,1.050748,-1.666038\H,0,5.912612,1.020276,-0.752306\C
 ,0,5.886371,1.508729,-2.853061\H,0,6.930308,1.816192,-2.874033\H,0,5.2
 40154,4.224291,-4.918413\H,0,0.276322,2.591515,-6.285026\C,-1,-0.71636
 4,2.705419,-5.829627\H,0,-1.433727,2.14889,-6.44434\C,0,-0.707824,2.19
 1584,-4.386778\H,0,-1.716984,2.338173,-3.974105\C,0,-0.389636,0.695461
 ,-4.346503\H,0,0.61767,0.508938,-4.741754\H,0,-1.096256,0.115239,-4.95
 1021\H,0,-0.425355,0.302754,-3.32355\C,0,0.272857,2.981003,-3.516541\H
 ,0,1.302743,2.862172,-3.876005\H,0,0.248444,2.633234,-2.477131\H,0,0.0
 37889,4.051774,-3.516005\H,0,-0.98538,3.767042,-5.873133\H,0,-7.624717
 ,3.723142,-7.520692\C,-1,-7.426012,2.6663,-7.318841\H,0,-7.764371,2.08
 276,-8.181349\C,0,-5.940066,2.417389,-7.049279\H,0,-5.347953,2.692324,
 -7.931225\H,0,-5.779116,1.344071,-6.893668\C,0,-5.380348,3.139667,-5.8
 22467\H,0,-5.976831,2.918109,-4.929464\H,0,-4.353999,2.803938,-5.62934
 8\S,0,-5.362238,4.949216,-6.061524\C,0,-4.811402,5.442592,-4.406576\H,
 0,-5.470032,5.017924,-3.644443\H,0,-3.781743,5.121415,-4.216903\H,0,-4
 .855284,6.533098,-4.351956\H,0,-8.030344,2.373135,-6.452717\H,0,-2.353
 848,7.449368,-4.540948\C,-1,-1.424534,7.628504,-3.988885\H,0,-1.385748
 ,8.696076,-3.748414\C,0,-1.356815,6.757768,-2.733273\H,0,-1.55204,5.71
 1092,-3.007766\H,0,-2.166876,7.03774,-2.046043\C,0,-0.025725,6.816759,
 -1.968299\H,0,0.762096,6.445541,-2.642833\C,0,0.348995,8.239514,-1.545
 304\H,0,0.478367,8.909547,-2.402153\H,0,-0.427952,8.666032,-0.896734\H
 ,0,1.287176,8.235001,-0.978886\C,0,-0.077006,5.903216,-0.744761\H,0,-0
 .33139,4.875116,-1.02461\H,0,-0.829269,6.251492,-0.025614\H,0,0.880954
 ,5.875544,-0.217939\H,0,-0.588831,7.406999,-4.66382\H,0,3.023381,6.063
 746,-1.555439\C,-1,3.779979,5.888619,-0.780921\H,0,3.415585,6.343015,0
 .147448\C,0,4.032837,4.390122,-0.579652\H,0,4.392655,3.966712,-1.52831
 9\C,0,5.111119,4.15152,0.479033\H,0,5.26962,3.079895,0.645005\H,0,6.06
 7612,4.601877,0.186005\H,0,4.812958,4.597319,1.437498\C,0,2.738016,3.6
 68952,-0.208172\H,0,2.917695,2.604887,-0.023169\H,0,2.0013,3.752313,-1
 .015233\H,0,2.291878,4.100534,0.69787\H,0,4.696014,6.414738,-1.075712\
 H,0,7.758654,1.601384,1.445894\C,-1,7.479491,1.586699,2.505054\H,0,6.6
 69692,2.307832,2.643679\C,0,7.039565,0.196737,2.940168\H,0,7.849148,-0
 .53794,2.849017\H,0,6.738945,0.190035,3.996557\C,0,5.850737,-0.318973,
 2.167391\O,0,5.238236,0.317978,1.330704\O,0,5.521096,-1.55708,2.519674
 \H,0,4.644897,-1.779136,2.115703\H,0,8.341211,1.91599,3.093684\H,0,7.2
 7218,-3.150113,8.658234\C,-1,7.036602,-2.543201,7.777538\H,0,7.956434,
 -2.424878,7.192039\C,0,5.93617,-3.193736,6.937911\H,0,6.258044,-4.1994
 44,6.634533\H,0,5.032211,-3.317973,7.545996\C,0,5.584914,-2.411144,5.6
 71896\H,0,6.475249,-2.271174,5.049694\H,0,4.866941,-2.967686,5.062714\
 S,0,4.855096,-0.762866,6.01208\C,0,3.256437,-0.915199,5.163531\H,0,2.6
 4135,-1.691219,5.628139\H,0,3.40501,-1.147216,4.106475\H,0,2.738141,0.
 045895,5.243779\H,0,6.727356,-1.551325,8.124791\H,0,3.705732,2.139187,
 5.886637\C,-1,4.091624,2.810609,5.115881\H,0,5.148826,3.012784,5.32679
 9\C,0,3.903405,2.20416,3.733267\H,0,4.239571,2.871186,2.931796\H,0,2.8
 48361,1.965205,3.579345\H,0,4.470271,1.274253,3.644609\H,0,3.53735,3.7
 50798,5.217548\H,0,2.508793,7.976995,4.118387\C,-1,1.802517,8.404098,3
 .398725\H,0,2.238168,9.323671,2.989759\C,0,1.489682,7.389745,2.29077\H
 ,0,0.825326,7.850401,1.547829\H,0,2.419067,7.151686,1.759783\C,0,0.868
 165,6.129058,2.81192\C,0,1.526662,5.02123,3.289536\H,0,2.590669,4.8221
 58,3.320932\N,0,0.644193,4.096257,3.772647\H,0,0.877543,3.182658,4.224
 542\C,0,-0.623476,4.58271,3.612613\C,0,-1.851801,3.986476,3.929073\H,0
 ,-1.883917,2.985159,4.352623\C,0,-2.995867,4.716668,3.654431\H,0,-3.96
 7651,4.287646,3.88473\C,0,-2.928911,6.000492,3.069598\H,0,-3.850068,6.
 539921,2.864463\C,0,-1.712782,6.576602,2.745884\H,0,-1.673191,7.564178
 ,2.290204\C,0,-0.529243,5.866556,3.014724\H,0,0.891435,8.668355,3.9468
 99\H,0,-2.821239,12.219408,-3.125068\C,-1,-3.603396,11.50438,-2.849176
 \H,0,-3.861505,10.934702,-3.748097\C,0,-3.130266,10.588494,-1.716855\H
 ,0,-2.750701,11.206429,-0.892113\H,0,-2.277214,9.988013,-2.062946\C,0,
 -4.202647,9.63988,-1.157568\H,0,-5.031367,10.259248,-0.781848\C,0,-4.7
 66085,8.703783,-2.23147\H,0,-3.95892,8.134021,-2.706995\H,0,-5.468447,
 7.984062,-1.796514\H,0,-5.29595,9.252957,-3.017072\C,0,-3.645095,8.836
 054,0.022167\H,0,-2.813095,8.195213,-0.293715\H,0,-3.271917,9.496501,0
 .813578\H,0,-4.409688,8.184138,0.458642\H,0,-4.490128,12.075327,-2.548
 083\C,0,2.016409,-1.773741,1.387631\O,0,3.055435,-2.355671,1.764846\C,
 0,1.86514,-0.350192,1.480707\C,0,0.671057,0.256315,1.244359\C,0,-0.501
 25,-0.483228,0.633798\C,0,-0.0574,-1.796729,-0.016958\C,0,0.847447,-2.
 591242,0.913\C,0,0.434072,1.652778,1.702741\C,0,-0.444026,2.492727,0.7
 78783\C,0,-1.705463,1.737228,0.368538\C,0,-1.28841,0.428007,-0.336724\
 C,0,-2.590947,2.558012,-0.558567\C,0,-3.828649,1.797698,-1.07458\C,0,-
 3.360291,0.568844,-1.853225\C,0,-2.454549,-0.326279,-0.997654\C,0,-3.1
 6861,3.887751,-0.058314\C,0,-4.305341,4.190312,-1.068499\C,0,-4.464394
 ,2.91507,-1.926352\C,0,-4.798624,1.378468,0.043267\O,0,-5.826457,2.730
 606,-2.277344\H,0,2.700459,0.211061,1.890439\H,0,-1.173732,-0.715142,1
 .47848\H,0,0.477117,-1.573737,-0.951179\H,0,-0.92313,-2.410145,-0.2827
 99\H,0,0.282345,-2.883877,1.808831\H,0,1.21004,-3.517304,0.455605\H,0,
 1.384284,2.150971,1.907046\H,0,-0.067739,1.531526,2.68503\H,0,0.117062
 ,2.762257,-0.126331\H,0,-0.696804,3.428898,1.285369\H,0,-2.264903,1.49
 1387,1.283432\H,0,-0.593583,0.721092,-1.143115\H,0,-1.980129,2.786108,
 -1.451621\H,0,-2.804966,0.895556,-2.743377\H,0,-4.212126,-0.026278,-2.
 208314\H,0,-3.055645,-0.831893,-0.22977\H,0,-2.053652,-1.116922,-1.640
 809\H,0,-2.423445,4.683228,-0.017441\H,0,-3.552767,3.777332,0.961058\H
 ,0,-4.071957,5.059822,-1.691333\H,0,-5.256866,4.398904,-0.569466\H,0,-
 3.865915,3.016379,-2.849491\H,0,-5.250967,2.240389,0.541011\H,0,-5.610
 221,0.768779,-0.367077\H,0,-4.299426,0.779928,0.80999\H,0,-5.901526,1.
 860071,-2.689749\\Version=ES64L-G16RevC.01\State=1-A\HF=-7322.2853454\
 RMSD=2.473e-09\Dipole=0.9740996,-1.4522515,-5.3442659\Quadrupole=27.42
 214,-5.154753,-22.2673871,9.7577965,-0.2381169,10.5032751\PG=C01 [X(C1
 23H225N6O13S3)]\\@
 The archive entry for this job was punched.


 THERE'S SMALL CHOICE IN A BOWL OF ROTTEN APPLES.
                     SHAKESPEARE
 Job cpu time:       0 days  6 hours 15 minutes 43.4 seconds.
 Elapsed time:       0 days  0 hours 12 minutes 12.6 seconds.
 File lengths (MBytes):  RWF=   3730 Int=      0 D2E=      0 Chk=    400 Scr=      1
 Normal termination of Gaussian 16 at Tue Jul 16 07:30:22 2024.
