 Entering Gaussian System, Link 0=g16
 Initial command:
 /cm/shared/apps/spack/cpu/opt/spack/linux-centos8-zen/gcc-8.3.1/gaussian-16.C.01-po5bqktfeugvmjyga3v7eigbecnokxng/g16/l1.exe "/scratch/hklem/job_32846261/Gau-1121573.inp" -scrdir="/scratch/hklem/job_32846261/"
 Entering Link 1 = /cm/shared/apps/spack/cpu/opt/spack/linux-centos8-zen/gcc-8.3.1/gaussian-16.C.01-po5bqktfeugvmjyga3v7eigbecnokxng/g16/l1.exe PID=   1121574.
  
 Copyright (c) 1988-2019, Gaussian, Inc.  All Rights Reserved.
  
 This is part of the Gaussian(R) 16 program.  It is based on
 the Gaussian(R) 09 system (copyright 2009, Gaussian, Inc.),
 the Gaussian(R) 03 system (copyright 2003, Gaussian, Inc.),
 the Gaussian(R) 98 system (copyright 1998, Gaussian, Inc.),
 the Gaussian(R) 94 system (copyright 1995, Gaussian, Inc.),
 the Gaussian 92(TM) system (copyright 1992, Gaussian, Inc.),
 the Gaussian 90(TM) system (copyright 1990, Gaussian, Inc.),
 the Gaussian 88(TM) system (copyright 1988, Gaussian, Inc.),
 the Gaussian 86(TM) system (copyright 1986, Carnegie Mellon
 University), and the Gaussian 82(TM) system (copyright 1983,
 Carnegie Mellon University). Gaussian is a federally registered
 trademark of Gaussian, Inc.
  
 This software contains proprietary and confidential information,
 including trade secrets, belonging to Gaussian, Inc.
  
 This software is provided under written license and may be
 used, copied, transmitted, or stored only in accord with that
 written license.
  
 The following legend is applicable only to US Government
 contracts under FAR:
  
                    RESTRICTED RIGHTS LEGEND
  
 Use, reproduction and disclosure by the US Government is
 subject to restrictions as set forth in subparagraphs (a)
 and (c) of the Commercial Computer Software - Restricted
 Rights clause in FAR 52.227-19.
  
 Gaussian, Inc.
 340 Quinnipiac St., Bldg. 40, Wallingford CT 06492
  
  
 ---------------------------------------------------------------
 Warning -- This program may not be used in any manner that
 competes with the business of Gaussian, Inc. or will provide
 assistance to any competitor of Gaussian, Inc.  The licensee
 of this program is prohibited from giving any competitor of
 Gaussian, Inc. access to this program.  By using this program,
 the user acknowledges that Gaussian, Inc. is engaged in the
 business of creating and licensing software in the field of
 computational chemistry and represents and warrants to the
 licensee that it is not a competitor of Gaussian, Inc. and that
 it will not use this program in any manner prohibited above.
 ---------------------------------------------------------------
  

 Cite this work as:
 Gaussian 16, Revision C.01,
 M. J. Frisch, G. W. Trucks, H. B. Schlegel, G. E. Scuseria, 
 M. A. Robb, J. R. Cheeseman, G. Scalmani, V. Barone, 
 G. A. Petersson, H. Nakatsuji, X. Li, M. Caricato, A. V. Marenich, 
 J. Bloino, B. G. Janesko, R. Gomperts, B. Mennucci, H. P. Hratchian, 
 J. V. Ortiz, A. F. Izmaylov, J. L. Sonnenberg, D. Williams-Young, 
 F. Ding, F. Lipparini, F. Egidi, J. Goings, B. Peng, A. Petrone, 
 T. Henderson, D. Ranasinghe, V. G. Zakrzewski, J. Gao, N. Rega, 
 G. Zheng, W. Liang, M. Hada, M. Ehara, K. Toyota, R. Fukuda, 
 J. Hasegawa, M. Ishida, T. Nakajima, Y. Honda, O. Kitao, H. Nakai, 
 T. Vreven, K. Throssell, J. A. Montgomery, Jr., J. E. Peralta, 
 F. Ogliaro, M. J. Bearpark, J. J. Heyd, E. N. Brothers, K. N. Kudin, 
 V. N. Staroverov, T. A. Keith, R. Kobayashi, J. Normand, 
 K. Raghavachari, A. P. Rendell, J. C. Burant, S. S. Iyengar, 
 J. Tomasi, M. Cossi, J. M. Millam, M. Klene, C. Adamo, R. Cammi, 
 J. W. Ochterski, R. L. Martin, K. Morokuma, O. Farkas, 
 J. B. Foresman, and D. J. Fox, Gaussian, Inc., Wallingford CT, 2019.
 
 ******************************************
 Gaussian 16:  ES64L-G16RevC.01  3-Jul-2019
                 7-Aug-2024 
 ******************************************
 %nprocshared=12
 Will use up to   12 processors via shared memory.
 %mem=24GB
 ------------------------
 # 6-31G* wB97XD prop=efg
 ------------------------
 1/38=1,172=1/1;
 2/12=2,17=6,18=5,40=1/2;
 3/5=1,6=6,7=1,11=2,25=1,30=1,74=-58/1,2,3;
 4//1;
 5/5=2,38=5/2;
 6/7=2,8=2,9=2,10=2,14=1,28=1/1,2;
 99/5=1,9=1/99;
 ---------------------------------------------------
 19nt_mm_min_distance_cutoff5_from_cutoff6_nowat_efg
 ---------------------------------------------------
 Symbolic Z-matrix:
 Charge = -1 Multiplicity = 1
 H                    -8.562    -7.359    -3.047 
 C                    -8.127    -6.359    -2.919 
 H                    -8.353    -5.775    -3.815 
 C                    -8.738    -5.68     -1.68 
 H                    -9.823    -5.623    -1.818 
 H                    -8.574    -6.298    -0.788 
 C                    -8.165    -4.304    -1.456 
 C                    -8.703    -3.178    -2.083 
 H                    -9.595    -3.279    -2.697 
 C                    -8.128    -1.923    -1.927 
 H                    -8.555    -1.046    -2.403 
 C                    -6.984    -1.787    -1.145 
 O                    -6.412    -0.558    -1.026 
 H                    -5.793    -0.543    -0.242 
 C                    -6.43     -2.895    -0.507 
 H                    -5.547    -2.784     0.115 
 C                    -7.029    -4.137    -0.665 
 H                    -6.595    -4.998    -0.166 
 C                    -6.594    -6.479    -2.882 
 O                    -5.884    -5.957    -3.732 
 N                    -6.067    -7.204    -1.856 
 H                    -6.694    -7.662    -1.212 
 C                    -4.632    -7.435    -1.685 
 H                    -4.11     -6.494    -1.888 
 C                    -4.316    -7.947    -0.278 
 H                    -4.913    -8.859    -0.117 
 C                    -2.842    -8.352    -0.198 
 H                    -2.589    -8.698     0.809 
 H                    -2.191    -7.507    -0.434 
 H                    -2.612    -9.158    -0.904 
 C                    -4.701    -6.951     0.83 
 H                    -5.791    -6.817     0.836 
 H                    -4.467    -7.402     1.802 
 C                    -4.029    -5.583     0.747 
 H                    -4.33     -4.965     1.599 
 H                    -4.294    -5.05     -0.173 
 H                    -2.938    -5.661     0.788 
 H                    -4.284    -8.158    -2.435 
 H                    -3.414    -4.86     -5.235 
 C                    -2.51     -4.267    -5.06 
 H                    -2.691    -3.257    -5.448 
 C                    -2.18     -4.214    -3.562 
 H                    -2.022    -5.246    -3.216 
 C                    -0.897    -3.422    -3.307 
 H                    -0.038    -3.849    -3.838 
 H                    -1.017    -2.39     -3.651 
 H                    -0.652    -3.385    -2.239 
 C                    -3.342    -3.63     -2.754 
 H                    -3.092    -3.583    -1.686 
 H                    -4.25     -4.23     -2.87 
 H                    -3.574    -2.609    -3.089 
 H                    -1.684    -4.705    -5.634 
 H                    -4.991     7.303     4.483 
 C                    -4.207     6.543     4.368 
 H                    -4.261     5.882     5.236 
 C                    -4.448     5.745     3.087 
 H                    -4.397     6.419     2.224 
 H                    -5.457     5.315     3.091 
 C                    -3.432     4.608     2.865 
 O                    -2.474     4.547     3.691 
 O                    -3.62      3.839     1.896 
 C                    -2.88      7.291     4.303 
 O                    -2.549     7.902     3.289 
 N                    -2.114     7.341     5.427 
 C                    -0.874     8.107     5.425 
 H                    -0.108     7.6       4.823 
 H                    -1.043     9.093     4.984 
 C                    -0.481     8.148     6.902 
 H                     0.596     8.275     7.042 
 H                    -0.992     8.979     7.403 
 C                    -0.993     6.805     7.436 
 H                    -1.156     6.805     8.518 
 H                    -0.275     6.014     7.202 
 C                    -2.295     6.572     6.658 
 H                    -2.446     5.512     6.435 
 H                    -3.167     6.938     7.219 
 H                    -3.417     5.426    -5.706 
 C                    -3.006     4.453    -5.973 
 H                    -2.472     4.016    -5.118 
 C                    -4.098     3.491    -6.45 
 H                    -4.702     3.987    -7.219 
 H                    -3.599     2.644    -6.937 
 C                    -4.963     2.986    -5.321 
 C                    -6.181     3.585    -4.995 
 H                    -6.568     4.39     -5.617 
 C                    -6.918     3.175    -3.889 
 H                    -7.861     3.648    -3.635 
 C                    -6.44      2.136    -3.093 
 O                    -7.165     1.77     -2.006 
 H                    -6.86      0.906    -1.639 
 C                    -5.247     1.493    -3.427 
 H                    -4.903     0.654    -2.83 
 C                    -4.521     1.927    -4.526 
 H                    -3.585     1.428    -4.77 
 H                    -2.27      4.623    -6.766 
 H                     0.329     7.198    -7.455 
 C                     1.334     7.401    -7.065 
 H                     2.        7.634    -7.897 
 C                     1.255     8.537    -6.032 
 H                     2.236     9.009    -5.916 
 H                     1.012     8.097    -5.06 
 C                     0.196     9.593    -6.371 
 H                     0.488     10.188   -7.239 
 H                    -0.746     9.077    -6.593 
 C                    -0.036     10.554   -5.214 
 O                     0.238     11.74    -5.256 
 N                    -0.599     9.972    -4.107 
 H                    -0.694     8.969    -4.038 
 H                    -0.634     10.512   -3.256 
 C                     1.865     6.1      -6.4 
 O                     2.951     5.614    -6.697 
 N                     1.069     5.526    -5.432 
 H                     0.145     5.931    -5.293 
 C                     1.598     4.64     -4.379 
 H                     0.823     4.527    -3.617 
 H                     2.474     5.091    -3.905 
 C                     2.039     3.236    -4.814 
 O                     2.806     2.596    -4.107 
 N                     1.5       2.766    -5.965 
 H                     0.877     3.389    -6.461 
 C                     1.802     1.467    -6.557 
 H                     2.548     0.998    -5.91 
 C                     0.544     0.598    -6.664 
 H                    -0.123     1.042    -7.418 
 H                     0.847    -0.376    -7.064 
 C                    -0.229     0.419    -5.353 
 H                    -0.545     1.414    -5.005 
 C                    -1.489    -0.411    -5.609 
 H                    -2.086    -0.521    -4.696 
 H                    -2.125     0.047    -6.376 
 H                    -1.227    -1.419    -5.954 
 C                     0.635    -0.207    -4.258 
 H                     1.056    -1.164    -4.591 
 H                     1.459     0.451    -3.963 
 H                     0.038    -0.405    -3.362 
 H                     2.241     1.577    -7.549 
 H                     5.578    -2.632    -5.604 
 C                     5.211    -2.915    -4.613 
 H                     6.036    -2.864    -3.894 
 C                     4.089    -1.944    -4.181 
 H                     3.251    -2.075    -4.879 
 C                     3.597    -2.217    -2.756 
 H                     3.149    -3.21     -2.649 
 H                     4.427    -2.156    -2.041 
 H                     2.846    -1.474    -2.465 
 C                     4.597    -0.506    -4.31 
 H                     5.447    -0.335    -3.638 
 H                     4.927    -0.287    -5.332 
 H                     3.822     0.221    -4.045 
 H                     4.876    -3.949    -4.697 
 H                     2.049    -7.232    -1.882 
 C                     1.338    -7.189    -1.057 
 H                     1.877    -6.784    -0.199 
 C                     0.131    -6.32     -1.395 
 H                    -0.482    -6.142    -0.506 
 H                    -0.498    -6.788    -2.16 
 H                     0.462    -5.35     -1.773 
 H                     1.036    -8.211    -0.809 
 H                    -8.231    -6.885     7.699 
 C                    -7.3      -7.364     7.376 
 H                    -7.306    -8.395     7.744 
 C                    -7.164    -7.328     5.852 
 H                    -7.998    -7.876     5.397 
 H                    -6.246    -7.846     5.549 
 C                    -7.141    -5.904     5.297 
 H                    -6.266    -5.363     5.677 
 H                    -8.038    -5.357     5.614 
 S                    -7.083    -5.934     3.477 
 C                    -7.108    -4.155     3.136 
 H                    -7.992    -3.688     3.581 
 H                    -6.194    -3.674     3.491 
 H                    -7.17     -4.025     2.054 
 H                    -6.469    -6.838     7.859 
 H                    -1.934    -7.253     6.418 
 C                    -1.175    -7.516     5.673 
 H                    -0.894    -8.563     5.828 
 C                    -1.705    -7.295     4.248 
 H                    -0.937    -7.599     3.526 
 H                    -2.567    -7.955     4.081 
 C                    -2.116    -5.865     3.971 
 C                    -1.378    -5.046     3.113 
 H                    -0.486    -5.444     2.631 
 C                    -1.771    -3.732     2.858 
 H                    -1.191    -3.111     2.181 
 C                    -2.901    -3.21      3.476 
 H                    -3.218    -2.188     3.298 
 C                    -3.63     -4.007     4.356 
 H                    -4.483    -3.578     4.873 
 C                    -3.249    -5.324     4.588 
 H                    -3.837    -5.945     5.261 
 H                    -0.296    -6.891     5.859 
 H                     3.2      -4.544     2.664 
 C                     3.546    -4.446     1.631 
 H                     3.263    -5.343     1.071 
 C                     2.906    -3.208     0.968 
 H                     3.421    -3.039     0.013 
 C                     1.432    -3.472     0.669 
 H                     0.888    -3.696     1.595 
 H                     1.323    -4.321    -0.012 
 H                     0.961    -2.597     0.203 
 C                     3.062    -1.958     1.833 
 H                     2.534    -2.081     2.788 
 H                     2.643    -1.081     1.329 
 H                     4.109    -1.744     2.057 
 H                     4.632    -4.365     1.662 
 H                     8.708    -2.785    -1.017 
 C                     9.017    -2.09     -1.798 
 H                     9.171    -2.644    -2.735 
 C                     7.945    -1.01     -2.058 
 H                     7.061    -1.52     -2.444 
 H                     8.292    -0.368    -2.878 
 C                     7.539    -0.144    -0.854 
 H                     8.398     0.085    -0.214 
 H                     7.144     0.816    -1.202 
 S                     6.235    -0.901     0.191 
 C                     7.112    -1.151     1.756 
 H                     8.089    -1.601     1.564 
 H                     7.24     -0.209     2.297 
 H                     6.523    -1.852     2.354 
 H                     9.997    -1.698    -1.524 
 H                     6.289    -2.955     5.384 
 C                     5.669    -2.278     5.98 
 H                     6.296    -1.836     6.763 
 C                     5.023    -1.227     5.085 
 H                     4.537    -1.747     4.253 
 H                     5.803    -0.595     4.633 
 C                     4.       -0.318     5.779 
 H                     3.194    -0.956     6.174 
 C                     4.608     0.454     6.952 
 H                     4.966    -0.215     7.744 
 H                     5.458     1.062     6.614 
 H                     3.87      1.132     7.393 
 C                     3.385     0.648     4.766 
 H                     2.936     0.104     3.928 
 H                     4.159     1.308     4.353 
 H                     2.612     1.279     5.218 
 H                     4.903    -2.885     6.478 
 H                     0.457    -3.01      7.405 
 C                    -0.472    -2.464     7.612 
 H                    -0.208    -1.571     8.192 
 C                    -1.191    -2.084     6.316 
 H                    -1.415    -3.013     5.776 
 C                    -2.516    -1.383     6.619 
 H                    -3.069    -1.14      5.707 
 H                    -3.165    -2.015     7.238 
 H                    -2.338    -0.449     7.169 
 C                    -0.309    -1.218     5.411 
 H                    -0.812    -1.024     4.455 
 H                     0.646    -1.711     5.192 
 H                    -0.091    -0.248     5.876 
 H                    -1.104    -3.1       8.242 
 H                    -6.704    -2.942     6.102 
 C                    -6.887    -1.899     6.381 
 H                    -5.955    -1.492     6.782 
 C                    -7.347    -1.089     5.175 
 H                    -8.247    -1.512     4.716 
 H                    -7.59     -0.057     5.458 
 C                    -6.266    -0.99      4.129 
 O                    -5.078    -1.085     4.372 
 O                    -6.738    -0.783     2.908 
 H                    -5.961    -0.669     2.301 
 H                    -7.645    -1.887     7.17 
 H                    -12.175    3.103     3.721 
 C                    -11.231    2.576     3.901 
 H                    -11.45     1.687     4.505 
 C                    -10.556    2.186     2.584 
 H                    -11.229    1.534     2.009 
 H                    -10.381    3.072     1.965 
 C                    -9.229     1.447     2.764 
 H                    -9.35      0.611     3.463 
 H                    -8.907     1.019     1.811 
 S                    -7.844     2.477     3.38 
 C                    -6.857     2.62      1.859 
 H                    -7.4       3.189     1.101 
 H                    -6.622     1.622     1.476 
 H                    -5.911     3.125     2.086 
 H                    -10.583    3.235     4.49 
 H                    -5.904     2.942     6.48 
 C                    -5.118     2.181     6.526 
 H                    -5.587     1.232     6.813 
 C                    -4.403     2.054     5.183 
 H                    -3.652     1.256     5.209 
 H                    -3.903     2.985     4.905 
 H                    -5.109     1.809     4.385 
 H                    -4.424     2.465     7.327 
 H                    -0.803     2.67      10.019 
 C                     0.194     2.238     9.881 
 H                     0.409     1.581     10.731 
 C                     0.265     1.475     8.552 
 H                     1.251     1.001     8.454 
 H                    -0.466     0.657     8.569 
 C                    -0.003     2.347     7.363 
 C                    -1.186     2.45      6.675 
 H                    -2.109     1.907     6.826 
 N                    -1.092     3.389     5.684 
 H                    -1.788     3.658     4.976 
 C                     0.17      3.911     5.698 
 C                     0.735     4.874     4.854 
 H                     0.142     5.309     4.055 
 C                     2.052     5.228     5.093 
 H                     2.53      5.968     4.457 
 C                     2.79      4.636     6.14 
 H                     3.822     4.938     6.296 
 C                     2.224     3.68      6.966 
 H                     2.804     3.235     7.771 
 C                     0.891     3.292     6.748 
 H                     0.916     3.063     9.894 
 H                     8.556     0.38      9.634 
 C                     8.644     0.041     8.596 
 H                     7.629    -0.12      8.217 
 C                     9.408     1.063     7.752 
 H                     10.36     1.294     8.248 
 H                     8.842     2.005     7.716 
 C                     9.708     0.612     6.314 
 H                     10.257   -0.341     6.378 
 C                     8.43      0.368     5.508 
 H                     7.828     1.284     5.446 
 H                     8.656     0.051     4.483 
 H                     7.807    -0.412     5.953 
 C                     10.607    1.628     5.604 
 H                     10.084    2.583     5.463 
 H                     11.52     1.824     6.179 
 H                     10.909    1.268     4.613 
 H                     9.157    -0.928     8.6 
 C                    -3.721    -0.056     0.898 
 O                    -4.878    -0.514     1.049 
 C                    -2.91      0.343     2.001 
 C                    -1.727     0.989     1.806 
 C                    -1.1       1.117     0.435 
 C                    -1.698     0.123    -0.56 
 C                    -3.214     0.145    -0.503 
 C                    -1.071     1.701     2.938 
 C                     0.458     1.745     2.888 
 C                     0.964     2.101     1.489 
 C                     0.439     1.026     0.512 
 C                     2.481     2.2       1.408 
 C                     3.006     2.408    -0.026 
 C                     2.598     1.206    -0.877 
 C                     1.075     1.044    -0.889 
 C                     3.201     3.29      2.214 
 C                     4.597     3.386     1.537 
 C                     4.514     2.508     0.27 
 C                     2.518     3.714    -0.678 
 O                     5.306     3.055    -0.775 
 H                    -3.349     0.26      2.991 
 H                    -1.355     2.139     0.102 
 H                    -1.333    -0.888    -0.328 
 H                    -1.37      0.357    -1.576 
 H                    -3.588     1.127    -0.83 
 H                    -3.661    -0.613    -1.156 
 H                    -1.422     1.295     3.891 
 H                    -1.48      2.728     2.889 
 H                     0.869     0.768     3.176 
 H                     0.816     2.466     3.626 
 H                     0.531     3.074     1.212 
 H                     0.689     0.049     0.961 
 H                     2.886     1.23      1.743 
 H                     3.064     0.3      -0.464 
 H                     2.951     1.31     -1.911 
 H                     0.626     1.845    -1.493 
 H                     0.831     0.107    -1.4 
 H                     3.258     3.059     3.28 
 H                     2.657     4.238     2.135 
 H                     5.398     3.042     2.199 
 H                     4.841     4.412     1.245 
 H                     4.875     1.497     0.504 
 H                     2.895     4.599    -0.158 
 H                     2.872     3.76     -1.713 
 H                     1.426     3.782    -0.695 
 H                     5.045     2.609    -1.591 
 
 Stoichiometry    C123H225N6O13S3(1-)
 Framework group  C1[X(C123H225N6O13S3)]
 Deg. of freedom  1104
 Full point group                 C1      NOp   1
 Largest Abelian subgroup         C1      NOp   1
 Largest concise Abelian subgroup C1      NOp   1
                         Standard orientation:                         
 ---------------------------------------------------------------------
 Center     Atomic      Atomic             Coordinates (Angstroms)
 Number     Number       Type             X           Y           Z
 ---------------------------------------------------------------------
      1          1           0      -10.071002    3.507469   -4.025837
      2          6           0       -9.166723    3.577422   -3.406970
      3          1           0       -8.965228    4.635703   -3.221527
      4          6           0       -9.390414    2.842447   -2.073082
      5          1           0      -10.249365    3.297575   -1.568524
      6          1           0       -9.661870    1.795062   -2.256877
      7          6           0       -8.170889    2.902704   -1.189335
      8          6           0       -7.948767    3.975820   -0.323580
      9          1           0       -8.699579    4.757331   -0.232022
     10          6           0       -6.789419    4.059442    0.437277
     11          1           0       -6.623948    4.886365    1.120542
     12          6           0       -5.822516    3.064104    0.322572
     13          8           0       -4.677286    3.174010    1.049316
     14          1           0       -4.213212    2.290379    1.092583
     15          6           0       -6.022222    1.982018   -0.532314
     16          1           0       -5.273947    1.198964   -0.608505
     17          6           0       -7.194161    1.911163   -1.272496
     18          1           0       -7.346682    1.066371   -1.937132
     19          6           0       -7.963221    3.065174   -4.216317
     20          8           0       -7.022412    3.792998   -4.506551
     21          7           0       -8.002404    1.758615   -4.600241
     22          1           0       -8.823689    1.213380   -4.386142
     23          6           0       -6.951520    1.118685   -5.392680
     24          1           0       -5.983118    1.445017   -4.999132
     25          6           0       -7.076352   -0.405921   -5.352138
     26          1           0       -8.087875   -0.663595   -5.704982
     27          6           0       -6.082518   -1.028798   -6.335712
     28          1           0       -6.138287   -2.121336   -6.303706
     29          1           0       -5.057644   -0.739590   -6.091760
     30          1           0       -6.284756   -0.706372   -7.363386
     31          6           0       -6.927544   -0.988693   -3.935756
     32          1           0       -7.758754   -0.638588   -3.309171
     33          1           0       -7.054523   -2.076730   -3.990468
     34          6           0       -5.607527   -0.681381   -3.233610
     35          1           0       -5.578938   -1.174089   -2.256445
     36          1           0       -5.464814    0.393998   -3.078992
     37          1           0       -4.748018   -1.056918   -3.797758
     38          1           0       -7.006676    1.472810   -6.430893
     39          1           0       -4.254474    4.784382   -5.465192
     40          6           0       -3.189285    4.550095   -5.365330
     41          1           0       -2.752620    5.267867   -4.659970
     42          6           0       -2.996983    3.114830   -4.856658
     43          1           0       -3.461790    2.434876   -5.585576
     44          6           0       -1.513127    2.760876   -4.750520
     45          1           0       -0.996726    2.861615   -5.712472
     46          1           0       -1.016924    3.428078   -4.038913
     47          1           0       -1.368386    1.734558   -4.393114
     48          6           0       -3.698652    2.899305   -3.513017
     49          1           0       -3.544234    1.874658   -3.150267
     50          1           0       -4.775399    3.079129   -3.591754
     51          1           0       -3.302168    3.587181   -2.752677
     52          1           0       -2.703173    4.695858   -6.337978
     53          1           0        0.438812    0.221177    8.748014
     54          6           0        0.678115   -0.136868    7.738054
     55          1           0        0.203707   -1.113126    7.615092
     56          6           0        0.131894    0.844440    6.701463
     57          1           0        0.610625    1.821078    6.837996
     58          1           0       -0.943628    0.997554    6.852477
     59          6           0        0.363354    0.399208    5.244582
     60          8           0        1.063724   -0.643719    5.084747
     61          8           0       -0.145948    1.091700    4.335334
     62          6           0        2.197875   -0.227357    7.655595
     63          8           0        2.885402    0.785818    7.546691
     64          7           0        2.778142   -1.450363    7.797647
     65          6           0        4.230965   -1.567261    7.796944
     66          1           0        4.631210   -1.400331    6.787911
     67          1           0        4.668253   -0.812410    8.455895
     68          6           0        4.470487   -3.005379    8.257489
     69          1           0        5.424338   -3.402767    7.899845
     70          1           0        4.468460   -3.053450    9.353102
     71          6           0        3.263708   -3.759453    7.686520
     72          1           0        3.048278   -4.692486    8.215983
     73          1           0        3.439903   -4.000361    6.634437
     74          6           0        2.111743   -2.752424    7.803344
     75          1           0        1.417091   -2.836776    6.962824
     76          1           0        1.548617   -2.895569    8.736864
     77          1           0        1.462555    8.412143    2.292293
     78          6           0        1.285766    8.232892    1.232314
     79          1           0        1.424222    7.168798    0.996340
     80          6           0       -0.117052    8.680023    0.810873
     81          1           0       -0.287377    9.704739    1.161786
     82          1           0       -0.134866    8.713891   -0.285537
     83          6           0       -1.197793    7.749429    1.304720
     84          6           0       -1.901966    7.991242    2.485510
     85          1           0       -1.732271    8.916478    3.033067
     86          6           0       -2.822247    7.074180    2.982086
     87          1           0       -3.362444    7.262819    3.904093
     88          6           0       -3.058609    5.892345    2.282787
     89          8           0       -3.943204    5.002726    2.799720
     90          1           0       -4.194693    4.313696    2.139265
     91          6           0       -2.398912    5.651286    1.076576
     92          1           0       -2.621241    4.750494    0.512829
     93          6           0       -1.475017    6.572642    0.606730
     94          1           0       -0.955741    6.368872   -0.327862
     95          1           0        2.049401    8.792086    0.681307
     96          1           0        5.680977    9.468942    1.143554
     97          6           0        6.598549    8.889507    0.983401
     98          1           0        7.341782    9.523779    0.498249
     99          6           0        7.084297    8.330113    2.330603
    100          1           0        8.150902    8.089445    2.275520
    101          1           0        6.567435    7.382843    2.512166
    102          6           0        6.813919    9.270623    3.511229
    103          1           0        7.449418   10.157817    3.469517
    104          1           0        5.763221    9.582376    3.469426
    105          6           0        7.066762    8.588528    4.847945
    106          8           0        7.952776    8.916677    5.616537
    107          7           0        6.195790    7.566945    5.128870
    108          1           0        5.557504    7.219740    4.427561
    109          1           0        6.402156    6.974285    5.918295
    110          6           0        6.271088    7.729541    0.001549
    111          8           0        6.925990    7.534628   -1.016740
    112          7           0        5.221413    6.903428    0.341898
    113          1           0        4.667924    7.169595    1.154257
    114          6           0        5.092913    5.521747   -0.156188
    115          1           0        4.330701    5.019594    0.444572
    116          1           0        6.034241    4.980537   -0.027940
    117          6           0        4.715272    5.351917   -1.633844
    118          8           0        4.945914    4.291618   -2.199803
    119          7           0        4.093323    6.403340   -2.220283
    120          1           0        3.957198    7.225785   -1.648157
    121          6           0        3.669951    6.448397   -3.615918
    122          1           0        3.982108    5.501690   -4.064683
    123          6           0        2.153333    6.637152   -3.731751
    124          1           0        1.900862    7.650243   -3.384699
    125          1           0        1.896188    6.609144   -4.796446
    126          6           0        1.315653    5.616659   -2.953819
    127          1           0        1.577463    5.702040   -1.888385
    128          6           0       -0.170038    5.953073   -3.100738
    129          1           0       -0.794014    5.263841   -2.519626
    130          1           0       -0.388076    6.973369   -2.763090
    131          1           0       -0.484081    5.876479   -4.149186
    132          6           0        1.605821    4.181375   -3.393319
    133          1           0        1.451063    4.063999   -4.473250
    134          1           0        2.631638    3.881663   -3.154913
    135          1           0        0.934470    3.480161   -2.887340
    136          1           0        4.168619    7.254672   -4.154559
    137          1           0        4.468538    3.222697   -8.190337
    138          6           0        3.934102    2.342770   -7.820248
    139          1           0        4.593888    1.469896   -7.874644
    140          6           0        3.507358    2.576679   -6.353440
    141          1           0        2.791013    3.409386   -6.345924
    142          6           0        2.842548    1.342781   -5.734780
    143          1           0        1.913945    1.065910   -6.243937
    144          1           0        3.512307    0.475201   -5.785501
    145          1           0        2.608210    1.526632   -4.680258
    146          6           0        4.733330    2.994653   -5.538063
    147          1           0        5.483669    2.194484   -5.531236
    148          1           0        5.203977    3.893398   -5.952905
    149          1           0        4.472153    3.203985   -4.495304
    150          1           0        3.090786    2.193595   -8.494787
    151          1           0       -1.278765   -0.563411   -8.508156
    152          6           0       -1.906301   -1.092514   -7.791048
    153          1           0       -1.298578   -1.898791   -7.377163
    154          6           0       -2.402957   -0.168478   -6.683914
    155          1           0       -2.879273   -0.741761   -5.882512
    156          1           0       -3.127094    0.559881   -7.064714
    157          1           0       -1.564121    0.380369   -6.249788
    158          1           0       -2.740176   -1.548150   -8.333488
    159          1           0      -10.330007   -6.173003    0.668002
    160          6           0       -9.797979   -6.297560   -0.281715
    161          1           0      -10.400000   -6.949908   -0.922366
    162          6           0       -9.552337   -4.945233   -0.954945
    163          1           0      -10.513815   -4.463504   -1.170314
    164          1           0       -9.054134   -5.096295   -1.920259
    165          6           0       -8.705162   -4.006139   -0.096617
    166          1           0       -7.707965   -4.433923    0.062457
    167          1           0       -9.170942   -3.864780    0.886935
    168         16           0       -8.538826   -2.383800   -0.907181
    169          6           0       -7.551149   -1.514253    0.337861
    170          1           0       -8.059828   -1.517458    1.306781
    171          1           0       -6.552885   -1.949292    0.421488
    172          1           0       -7.450649   -0.475988    0.016345
    173          1           0       -8.853223   -6.810629   -0.070236
    174          1           0       -5.211315   -6.940412   -3.158048
    175          6           0       -4.671442   -6.566035   -4.034778
    176          1           0       -5.028292   -7.113084   -4.913750
    177          6           0       -4.883744   -5.054049   -4.205635
    178          1           0       -4.360763   -4.715851   -5.108761
    179          1           0       -5.951689   -4.859947   -4.374014
    180          6           0       -4.414107   -4.239910   -3.019393
    181          6           0       -3.285323   -3.420497   -3.096710
    182          1           0       -2.729130   -3.364617   -4.031546
    183          6           0       -2.866482   -2.667557   -1.999567
    184          1           0       -1.991685   -2.028186   -2.078973
    185          6           0       -3.561783   -2.739504   -0.798447
    186          1           0       -3.246931   -2.169037    0.068785
    187          6           0       -4.672566   -3.574589   -0.699235
    188          1           0       -5.181845   -3.663753    0.255555
    189          6           0       -5.101324   -4.304176   -1.802569
    190          1           0       -5.982466   -4.937620   -1.721012
    191          1           0       -3.610136   -6.793130   -3.893646
    192          1           0        0.825611   -4.175805   -5.082011
    193          6           0        1.243483   -3.309352   -5.602635
    194          1           0        0.554295   -2.999761   -6.394766
    195          6           0        1.445497   -2.139414   -4.616609
    196          1           0        2.037121   -1.370175   -5.130480
    197          6           0        0.098151   -1.526336   -4.241685
    198          1           0       -0.545795   -2.278072   -3.768594
    199          1           0       -0.411110   -1.142322   -5.130296
    200          1           0        0.225251   -0.696422   -3.534783
    201          6           0        2.201765   -2.578845   -3.363604
    202          1           0        1.624772   -3.330029   -2.807960
    203          1           0        2.375950   -1.728865   -2.695847
    204          1           0        3.172574   -3.016605   -3.604597
    205          1           0        2.187454   -3.624922   -6.045639
    206          1           0        6.642568   -1.880578   -7.888583
    207          6           0        7.341002   -1.045961   -7.824783
    208          1           0        7.232051   -0.414030   -8.717752
    209          6           0        7.067246   -0.165791   -6.586420
    210          1           0        6.080154    0.279663   -6.719733
    211          1           0        7.770822    0.676717   -6.598020
    212          6           0        7.119667   -0.869911   -5.220449
    213          1           0        7.911901   -1.625644   -5.186434
    214          1           0        7.348094   -0.142307   -4.434865
    215         16           0        5.541458   -1.676430   -4.746875
    216          6           0        6.015414   -3.424150   -4.705697
    217          1           0        6.591955   -3.671576   -5.600278
    218          1           0        6.602212   -3.657901   -3.812692
    219          1           0        5.094784   -4.014270   -4.716821
    220          1           0        8.350864   -1.454332   -7.875291
    221          1           0        4.066587   -7.034341   -4.193140
    222          6           0        3.881934   -7.184983   -3.124891
    223          1           0        4.588708   -7.937158   -2.755725
    224          6           0        3.992799   -5.861377   -2.377417
    225          1           0        3.363591   -5.129689   -2.894669
    226          1           0        5.023037   -5.479952   -2.449903
    227          6           0        3.594571   -5.912557   -0.896457
    228          1           0        2.543655   -6.236737   -0.839987
    229          6           0        4.439071   -6.909811   -0.100291
    230          1           0        4.307876   -7.938352   -0.457893
    231          1           0        5.505711   -6.659259   -0.177174
    232          1           0        4.168495   -6.885782    0.960379
    233          6           0        3.692932   -4.517451   -0.278757
    234          1           0        3.081619   -3.798449   -0.834738
    235          1           0        4.730775   -4.160909   -0.310451
    236          1           0        3.366513   -4.507930    0.766878
    237          1           0        2.873728   -7.604322   -3.020561
    238          1           0       -0.954675   -7.202648   -0.607293
    239          6           0       -1.439426   -6.952759    0.344851
    240          1           0       -0.769701   -7.276237    1.151309
    241          6           0       -1.730298   -5.453719    0.441018
    242          1           0       -2.389676   -5.189187   -0.395678
    243          6           0       -2.465220   -5.128531    1.742163
    244          1           0       -2.722443   -4.067701    1.813427
    245          1           0       -3.399079   -5.698926    1.821803
    246          1           0       -1.842004   -5.387319    2.608864
    247          6           0       -0.452523   -4.618577    0.311661
    248          1           0       -0.692063   -3.547538    0.302799
    249          1           0        0.083990   -4.848593   -0.616930
    250          1           0        0.230087   -4.800697    1.151616
    251          1           0       -2.362198   -7.539257    0.417872
    252          1           0       -6.765039   -3.939478    2.320803
    253          6           0       -6.361187   -3.814965    3.331040
    254          1           0       -5.392284   -4.319872    3.368059
    255          6           0       -6.206081   -2.338225    3.673556
    256          1           0       -7.152968   -1.794978    3.584677
    257          1           0       -5.858411   -2.203481    4.705608
    258          6           0       -5.176562   -1.671316    2.797314
    259          8           0       -4.260886   -2.263023    2.258020
    260          8           0       -5.363560   -0.365149    2.673088
    261          1           0       -4.610613   -0.003644    2.136844
    262          1           0       -7.042204   -4.307575    4.031596
    263          1           0       -7.789451    1.673071    8.613093
    264          6           0       -7.310405    1.074269    7.830011
    265          1           0       -8.028238    0.313687    7.499363
    266          6           0       -6.868093    1.951378    6.656446
    267          1           0       -7.744513    2.463076    6.233703
    268          1           0       -6.187332    2.737282    6.999524
    269          6           0       -6.188278    1.176339    5.526573
    270          1           0       -6.802504    0.317988    5.229760
    271          1           0       -6.086951    1.813591    4.644122
    272         16           0       -4.514950    0.540108    5.918699
    273          6           0       -3.503970    1.677979    4.923094
    274          1           0       -3.584129    2.697881    5.305910
    275          1           0       -3.832086    1.646687    3.879408
    276          1           0       -2.456401    1.357123    4.956569
    277          1           0       -6.451905    0.559268    8.275947
    278          1           0       -2.877099   -2.681473    6.645810
    279          6           0       -2.648610   -3.186222    5.701324
    280          1           0       -3.583658   -3.606382    5.311346
    281          6           0       -2.025820   -2.215254    4.701146
    282          1           0       -1.845352   -2.703324    3.736418
    283          1           0       -1.075654   -1.817771    5.066162
    284          1           0       -2.688189   -1.365453    4.515753
    285          1           0       -1.974871   -4.023151    5.923853
    286          1           0        0.944918   -7.440115    5.476961
    287          6           0        1.544010   -7.736607    4.609287
    288          1           0        1.296446   -8.772771    4.353455
    289          6           0        1.279681   -6.790771    3.430739
    290          1           0        1.843468   -7.133391    2.552541
    291          1           0        0.219536   -6.850195    3.154451
    292          6           0        1.627174   -5.365420    3.736606
    293          6           0        0.753021   -4.369628    4.093954
    294          1           0       -0.324447   -4.409572    4.177895
    295          7           0        1.423380   -3.206992    4.361412
    296          1           0        1.046714   -2.281661    4.606210
    297          6           0        2.758432   -3.420632    4.168233
    298          6           0        3.822153   -2.519283    4.290701
    299          1           0        3.629468   -1.489542    4.576676
    300          6           0        5.093353   -3.004811    4.035285
    301          1           0        5.946209   -2.336180    4.113703
    302          6           0        5.301273   -4.349764    3.662203
    303          1           0        6.313299   -4.694237    3.468027
    304          6           0        4.241924   -5.232344    3.538111
    305          1           0        4.417846   -6.266887    3.253116
    306          6           0        2.937096   -4.771807    3.783645
    307          1           0        2.598331   -7.699584    4.907807
    308          1           0        7.476856  -10.498679   -0.923210
    309          6           0        7.439418   -9.689375   -1.660594
    310          1           0        6.535941   -9.103956   -1.458602
    311          6           0        8.700938   -8.826968   -1.587532
    312          1           0        9.582140   -9.478435   -1.656485
    313          1           0        8.754364   -8.338305   -0.603982
    314          6           0        8.807205   -7.751273   -2.679701
    315          1           0        8.731514   -8.263822   -3.651951
    316          6           0        7.671157   -6.729218   -2.594529
    317          1           0        7.682256   -6.214731   -1.624743
    318          1           0        7.759470   -5.964578   -3.375373
    319          1           0        6.689972   -7.195555   -2.714359
    320          6           0       10.167551   -7.050967   -2.619810
    321          1           0       10.271632   -6.475543   -1.690569
    322          1           0       10.991186   -7.773645   -2.664225
    323          1           0       10.292671   -6.352383   -3.455998
    324          1           0        7.329443  -10.142195   -2.653068
    325          6           0       -2.308492    0.812807    0.955563
    326          8           0       -3.533230    0.866686    1.216958
    327          6           0       -1.496437   -0.295551    1.337192
    328          6           0       -0.142958   -0.258572    1.190369
    329          6           0        0.549784    0.842432    0.417678
    330          6           0       -0.422286    1.606521   -0.480606
    331          6           0       -1.672798    1.998247    0.284090
    332          6           0        0.711265   -1.251181    1.900112
    333          6           0        2.008525   -1.632456    1.183159
    334          6           0        2.728903   -0.400313    0.632837
    335          6           0        1.771332    0.301252   -0.355416
    336          6           0        4.048893   -0.732943   -0.048802
    337          6           0        4.705842    0.479380   -0.737232
    338          6           0        3.765877    0.993625   -1.826951
    339          6           0        2.412974    1.392612   -1.229974
    340          6           0        5.189288   -1.331114    0.786559
    341          6           0        6.451310   -1.090041   -0.088394
    342          6           0        5.990997   -0.191796   -1.256440
    343          6           0        5.070799    1.616747    0.233380
    344          8           0        7.028131    0.696806   -1.647894
    345          1           0       -1.980035   -1.091615    1.895873
    346          1           0        0.927581    1.535431    1.190608
    347          1           0       -0.695212    0.976748   -1.339714
    348          1           0        0.054547    2.505074   -0.880391
    349          1           0       -1.416335    2.707630    1.085421
    350          1           0       -2.414419    2.482536   -0.361080
    351          1           0        0.124947   -2.139568    2.151601
    352          1           0        0.942957   -0.769504    2.868986
    353          1           0        1.788428   -2.315614    0.351747
    354          1           0        2.649523   -2.179615    1.877700
    355          1           0        2.927712    0.277973    1.476253
    356          1           0        1.405665   -0.481367   -1.042748
    357          1           0        3.824204   -1.454764   -0.852319
    358          1           0        3.621418    0.203508   -2.577556
    359          1           0        4.192949    1.860836   -2.346697
    360          1           0        2.527659    2.318153   -0.648391
    361          1           0        1.730425    1.634148   -2.051200
    362          1           0        5.030004   -2.384873    1.025695
    363          1           0        5.267477   -0.807974    1.746295
    364          1           0        6.877095   -2.027278   -0.460518
    365          1           0        7.242507   -0.576610    0.466468
    366          1           0        5.714603   -0.822229   -2.112804
    367          1           0        5.834348    1.312585    0.954651
    368          1           0        5.466722    2.466529   -0.332104
    369          1           0        4.203156    1.967723    0.800291
    370          1           0        6.625411    1.372242   -2.208694
 ---------------------------------------------------------------------
 Rotational constants (GHZ):           0.0069028           0.0058729           0.0054185
 Standard basis: 6-31G(d) (6D, 7F)
 There are  2637 symmetry adapted cartesian basis functions of A   symmetry.
 There are  2637 symmetry adapted basis functions of A   symmetry.
  2637 basis functions,  5032 primitive gaussians,  2637 cartesian basis functions
   579 alpha electrons      579 beta electrons
       nuclear repulsion energy     43334.9929023662 Hartrees.
 NAtoms=  370 NActive=  370 NUniq=  370 SFac= 1.00D+00 NAtFMM=   60 NAOKFM=T Big=T
 Integral buffers will be    131072 words long.
 Raffenetti 2 integral format.
 Two-electron integral symmetry is turned on.
 Nuclear repulsion after empirical dispersion term =    43334.5489707159 Hartrees.
 One-electron integrals computed using PRISM.
 NBasis=  2637 RedAO= T EigKep=  3.54D-04  NBF=  2637
 NBsUse=  2637 1.00D-06 EigRej= -1.00D+00 NBFU=  2637
 ExpMin= 1.17D-01 ExpMax= 2.19D+04 ExpMxC= 3.30D+03 IAcc=3 IRadAn=         5 AccDes= 0.00D+00
 Harris functional with IExCor= 4639 and IRadAn=       5 diagonalized for initial guess.
 HarFok:  IExCor= 4639 AccDes= 0.00D+00 IRadAn=         5 IDoV= 1 UseB2=F ITyADJ=14
 ICtDFT=  3500011 ScaDFX=  1.000000  1.000000  1.000000  1.000000
 FoFCou: FMM=F IPFlag=           0 FMFlag=      100000 FMFlg1=        2001
         NFxFlg=           0 DoJE=T BraDBF=F KetDBF=T FulRan=T
         wScrn=  0.000000 ICntrl=       500 IOpCl=  0 I1Cent=   200000004 NGrid=           0
         NMat0=    1 NMatS0=      1 NMatT0=    0 NMatD0=    1 NMtDS0=    0 NMtDT0=    0
 Petite list used in FoFCou.
 Requested convergence on RMS density matrix=1.00D-08 within 128 cycles.
 Requested convergence on MAX density matrix=1.00D-06.
 Requested convergence on             energy=1.00D-06.
 No special actions if energy rises.
 Integral accuracy reduced to 1.0D-05 until final iterations.
 Initial convergence to 1.0D-05 achieved.  Increase integral accuracy.
 SCF Done:  E(RwB97XD) =  -7322.23771107     A.U. after   15 cycles
            NFock= 15  Conv=0.38D-08     -V/T= 2.0085
 Hyperfine terms turned off by default for NAtoms > 100.

 **********************************************************************

            Population analysis using the SCF Density.

 **********************************************************************

 Orbital symmetries:
       Occupied  (A) (A) (A) (A) (A) (A) (A) (A) (A) (A) (A) (A)
                 (A) (A) (A) (A) (A) (A) (A) (A) (A) (A) (A) (A)
                 (A) (A) (A) (A) (A) (A) (A) (A) (A) (A) (A) (A)
                 (A) (A) (A) (A) (A) (A) (A) (A) (A) (A) (A) (A)
                 (A) (A) (A) (A) (A) (A) (A) (A) (A) (A) (A) (A)
                 (A) (A) (A) (A) (A) (A) (A) (A) (A) (A) (A) (A)
                 (A) (A) (A) (A) (A) (A) (A) (A) (A) (A) (A) (A)
                 (A) (A) (A) (A) (A) (A) (A) (A) (A) (A) (A) (A)
                 (A) (A) (A) (A) (A) (A) (A) (A) (A) (A) (A) (A)
                 (A) (A) (A) (A) (A) (A) (A) (A) (A) (A) (A) (A)
                 (A) (A) (A) (A) (A) (A) (A) (A) (A) (A) (A) (A)
                 (A) (A) (A) (A) (A) (A) (A) (A) (A) (A) (A) (A)
                 (A) (A) (A) (A) (A) (A) (A) (A) (A) (A) (A) (A)
                 (A) (A) (A) (A) (A) (A) (A) (A) (A) (A) (A) (A)
                 (A) (A) (A) (A) (A) (A) (A) (A) (A) (A) (A) (A)
                 (A) (A) (A) (A) (A) (A) (A) (A) (A) (A) (A) (A)
                 (A) (A) (A) (A) (A) (A) (A) (A) (A) (A) (A) (A)
                 (A) (A) (A) (A) (A) (A) (A) (A) (A) (A) (A) (A)
                 (A) (A) (A) (A) (A) (A) (A) (A) (A) (A) (A) (A)
                 (A) (A) (A) (A) (A) (A) (A) (A) (A) (A) (A) (A)
                 (A) (A) (A) (A) (A) (A) (A) (A) (A) (A) (A) (A)
                 (A) (A) (A) (A) (A) (A) (A) (A) (A) (A) (A) (A)
                 (A) (A) (A) (A) (A) (A) (A) (A) (A) (A) (A) (A)
                 (A) (A) (A) (A) (A) (A) (A) (A) (A) (A) (A) (A)
                 (A) (A) (A) (A) (A) (A) (A) (A) (A) (A) (A) (A)
                 (A) (A) (A) (A) (A) (A) (A) (A) (A) (A) (A) (A)
                 (A) (A) (A) (A) (A) (A) (A) (A) (A) (A) (A) (A)
                 (A) (A) (A) (A) (A) (A) (A) (A) (A) (A) (A) (A)
                 (A) (A) (A) (A) (A) (A) (A) (A) (A) (A) (A) (A)
                 (A) (A) (A) (A) (A) (A) (A) (A) (A) (A) (A) (A)
                 (A) (A) (A) (A) (A) (A) (A) (A) (A) (A) (A) (A)
                 (A) (A) (A) (A) (A) (A) (A) (A) (A) (A) (A) (A)
                 (A) (A) (A) (A) (A) (A) (A) (A) (A) (A) (A) (A)
                 (A) (A) (A) (A) (A) (A) (A) (A) (A) (A) (A) (A)
                 (A) (A) (A) (A) (A) (A) (A) (A) (A) (A) (A) (A)
                 (A) (A) (A) (A) (A) (A) (A) (A) (A) (A) (A) (A)
                 (A) (A) (A) (A) (A) (A) (A) (A) (A) (A) (A) (A)
                 (A) (A) (A) (A) (A) (A) (A) (A) (A) (A) (A) (A)
                 (A) (A) (A) (A) (A) (A) (A) (A) (A) (A) (A) (A)
                 (A) (A) (A) (A) (A) (A) (A) (A) (A) (A) (A) (A)
                 (A) (A) (A) (A) (A) (A) (A) (A) (A) (A) (A) (A)
                 (A) (A) (A) (A) (A) (A) (A) (A) (A) (A) (A) (A)
                 (A) (A) (A) (A) (A) (A) (A) (A) (A) (A) (A) (A)
                 (A) (A) (A) (A) (A) (A) (A) (A) (A) (A) (A) (A)
                 (A) (A) (A) (A) (A) (A) (A) (A) (A) (A) (A) (A)
                 (A) (A) (A) (A) (A) (A) (A) (A) (A) (A) (A) (A)
                 (A) (A) (A) (A) (A) (A) (A) (A) (A) (A) (A) (A)
                 (A) (A) (A) (A) (A) (A) (A) (A) (A) (A) (A) (A)
                 (A) (A) (A)
       Virtual   (A) (A) (A) (A) (A) (A) (A) (A) (A) (A) (A) (A)
                 (A) (A) (A) (A) (A) (A) (A) (A) (A) (A) (A) (A)
                 (A) (A) (A) (A) (A) (A) (A) (A) (A) (A) (A) (A)
                 (A) (A) (A) (A) (A) (A) (A) (A) (A) (A) (A) (A)
                 (A) (A) (A) (A) (A) (A) (A) (A) (A) (A) (A) (A)
                 (A) (A) (A) (A) (A) (A) (A) (A) (A) (A) (A) (A)
                 (A) (A) (A) (A) (A) (A) (A) (A) (A) (A) (A) (A)
                 (A) (A) (A) (A) (A) (A) (A) (A) (A) (A) (A) (A)
                 (A) (A) (A) (A) (A) (A) (A) (A) (A) (A) (A) (A)
                 (A) (A) (A) (A) (A) (A) (A) (A) (A) (A) (A) (A)
                 (A) (A) (A) (A) (A) (A) (A) (A) (A) (A) (A) (A)
                 (A) (A) (A) (A) (A) (A) (A) (A) (A) (A) (A) (A)
                 (A) (A) (A) (A) (A) (A) (A) (A) (A) (A) (A) (A)
                 (A) (A) (A) (A) (A) (A) (A) (A) (A) (A) (A) (A)
                 (A) (A) (A) (A) (A) (A) (A) (A) (A) (A) (A) (A)
                 (A) (A) (A) (A) (A) (A) (A) (A) (A) (A) (A) (A)
                 (A) (A) (A) (A) (A) (A) (A) (A) (A) (A) (A) (A)
                 (A) (A) (A) (A) (A) (A) (A) (A) (A) (A) (A) (A)
                 (A) (A) (A) (A) (A) (A) (A) (A) (A) (A) (A) (A)
                 (A) (A) (A) (A) (A) (A) (A) (A) (A) (A) (A) (A)
                 (A) (A) (A) (A) (A) (A) (A) (A) (A) (A) (A) (A)
                 (A) (A) (A) (A) (A) (A) (A) (A) (A) (A) (A) (A)
                 (A) (A) (A) (A) (A) (A) (A) (A) (A) (A) (A) (A)
                 (A) (A) (A) (A) (A) (A) (A) (A) (A) (A) (A) (A)
                 (A) (A) (A) (A) (A) (A) (A) (A) (A) (A) (A) (A)
                 (A) (A) (A) (A) (A) (A) (A) (A) (A) (A) (A) (A)
                 (A) (A) (A) (A) (A) (A) (A) (A) (A) (A) (A) (A)
                 (A) (A) (A) (A) (A) (A) (A) (A) (A) (A) (A) (A)
                 (A) (A) (A) (A) (A) (A) (A) (A) (A) (A) (A) (A)
                 (A) (A) (A) (A) (A) (A) (A) (A) (A) (A) (A) (A)
                 (A) (A) (A) (A) (A) (A) (A) (A) (A) (A) (A) (A)
                 (A) (A) (A) (A) (A) (A) (A) (A) (A) (A) (A) (A)
                 (A) (A) (A) (A) (A) (A) (A) (A) (A) (A) (A) (A)
                 (A) (A) (A) (A) (A) (A) (A) (A) (A) (A) (A) (A)
                 (A) (A) (A) (A) (A) (A) (A) (A) (A) (A) (A) (A)
                 (A) (A) (A) (A) (A) (A) (A) (A) (A) (A) (A) (A)
                 (A) (A) (A) (A) (A) (A) (A) (A) (A) (A) (A) (A)
                 (A) (A) (A) (A) (A) (A) (A) (A) (A) (A) (A) (A)
                 (A) (A) (A) (A) (A) (A) (A) (A) (A) (A) (A) (A)
                 (A) (A) (A) (A) (A) (A) (A) (A) (A) (A) (A) (A)
                 (A) (A) (A) (A) (A) (A) (A) (A) (A) (A) (A) (A)
                 (A) (A) (A) (A) (A) (A) (A) (A) (A) (A) (A) (A)
                 (A) (A) (A) (A) (A) (A) (A) (A) (A) (A) (A) (A)
                 (A) (A) (A) (A) (A) (A) (A) (A) (A) (A) (A) (A)
                 (A) (A) (A) (A) (A) (A) (A) (A) (A) (A) (A) (A)
                 (A) (A) (A) (A) (A) (A) (A) (A) (A) (A) (A) (A)
                 (A) (A) (A) (A) (A) (A) (A) (A) (A) (A) (A) (A)
                 (A) (A) (A) (A) (A) (A) (A) (A) (A) (A) (A) (A)
                 (A) (A) (A) (A) (A) (A) (A) (A) (A) (A) (A) (A)
                 (A) (A) (A) (A) (A) (A) (A) (A) (A) (A) (A) (A)
                 (A) (A) (A) (A) (A) (A) (A) (A) (A) (A) (A) (A)
                 (A) (A) (A) (A) (A) (A) (A) (A) (A) (A) (A) (A)
                 (A) (A) (A) (A) (A) (A) (A) (A) (A) (A) (A) (A)
                 (A) (A) (A) (A) (A) (A) (A) (A) (A) (A) (A) (A)
                 (A) (A) (A) (A) (A) (A) (A) (A) (A) (A) (A) (A)
                 (A) (A) (A) (A) (A) (A) (A) (A) (A) (A) (A) (A)
                 (A) (A) (A) (A) (A) (A) (A) (A) (A) (A) (A) (A)
                 (A) (A) (A) (A) (A) (A) (A) (A) (A) (A) (A) (A)
                 (A) (A) (A) (A) (A) (A) (A) (A) (A) (A) (A) (A)
                 (A) (A) (A) (A) (A) (A) (A) (A) (A) (A) (A) (A)
                 (A) (A) (A) (A) (A) (A) (A) (A) (A) (A) (A) (A)
                 (A) (A) (A) (A) (A) (A) (A) (A) (A) (A) (A) (A)
                 (A) (A) (A) (A) (A) (A) (A) (A) (A) (A) (A) (A)
                 (A) (A) (A) (A) (A) (A) (A) (A) (A) (A) (A) (A)
                 (A) (A) (A) (A) (A) (A) (A) (A) (A) (A) (A) (A)
                 (A) (A) (A) (A) (A) (A) (A) (A) (A) (A) (A) (A)
                 (A) (A) (A) (A) (A) (A) (A) (A) (A) (A) (A) (A)
                 (A) (A) (A) (A) (A) (A) (A) (A) (A) (A) (A) (A)
                 (A) (A) (A) (A) (A) (A) (A) (A) (A) (A) (A) (A)
                 (A) (A) (A) (A) (A) (A) (A) (A) (A) (A) (A) (A)
                 (A) (A) (A) (A) (A) (A) (A) (A) (A) (A) (A) (A)
                 (A) (A) (A) (A) (A) (A) (A) (A) (A) (A) (A) (A)
                 (A) (A) (A) (A) (A) (A) (A) (A) (A) (A) (A) (A)
                 (A) (A) (A) (A) (A) (A) (A) (A) (A) (A) (A) (A)
                 (A) (A) (A) (A) (A) (A) (A) (A) (A) (A) (A) (A)
                 (A) (A) (A) (A) (A) (A) (A) (A) (A) (A) (A) (A)
                 (A) (A) (A) (A) (A) (A) (A) (A) (A) (A) (A) (A)
                 (A) (A) (A) (A) (A) (A) (A) (A) (A) (A) (A) (A)
                 (A) (A) (A) (A) (A) (A) (A) (A) (A) (A) (A) (A)
                 (A) (A) (A) (A) (A) (A) (A) (A) (A) (A) (A) (A)
                 (A) (A) (A) (A) (A) (A) (A) (A) (A) (A) (A) (A)
                 (A) (A) (A) (A) (A) (A) (A) (A) (A) (A) (A) (A)
                 (A) (A) (A) (A) (A) (A) (A) (A) (A) (A) (A) (A)
                 (A) (A) (A) (A) (A) (A) (A) (A) (A) (A) (A) (A)
                 (A) (A) (A) (A) (A) (A) (A) (A) (A) (A) (A) (A)
                 (A) (A) (A) (A) (A) (A) (A) (A) (A) (A) (A) (A)
                 (A) (A) (A) (A) (A) (A) (A) (A) (A) (A) (A) (A)
                 (A) (A) (A) (A) (A) (A) (A) (A) (A) (A) (A) (A)
                 (A) (A) (A) (A) (A) (A) (A) (A) (A) (A) (A) (A)
                 (A) (A) (A) (A) (A) (A) (A) (A) (A) (A) (A) (A)
                 (A) (A) (A) (A) (A) (A) (A) (A) (A) (A) (A) (A)
                 (A) (A) (A) (A) (A) (A) (A) (A) (A) (A) (A) (A)
                 (A) (A) (A) (A) (A) (A) (A) (A) (A) (A) (A) (A)
                 (A) (A) (A) (A) (A) (A) (A) (A) (A) (A) (A) (A)
                 (A) (A) (A) (A) (A) (A) (A) (A) (A) (A) (A) (A)
                 (A) (A) (A) (A) (A) (A) (A) (A) (A) (A) (A) (A)
                 (A) (A) (A) (A) (A) (A) (A) (A) (A) (A) (A) (A)
                 (A) (A) (A) (A) (A) (A) (A) (A) (A) (A) (A) (A)
                 (A) (A) (A) (A) (A) (A) (A) (A) (A) (A) (A) (A)
                 (A) (A) (A) (A) (A) (A) (A) (A) (A) (A) (A) (A)
                 (A) (A) (A) (A) (A) (A) (A) (A) (A) (A) (A) (A)
                 (A) (A) (A) (A) (A) (A) (A) (A) (A) (A) (A) (A)
                 (A) (A) (A) (A) (A) (A) (A) (A) (A) (A) (A) (A)
                 (A) (A) (A) (A) (A) (A) (A) (A) (A) (A) (A) (A)
                 (A) (A) (A) (A) (A) (A) (A) (A) (A) (A) (A) (A)
                 (A) (A) (A) (A) (A) (A) (A) (A) (A) (A) (A) (A)
                 (A) (A) (A) (A) (A) (A) (A) (A) (A) (A) (A) (A)
                 (A) (A) (A) (A) (A) (A) (A) (A) (A) (A) (A) (A)
                 (A) (A) (A) (A) (A) (A) (A) (A) (A) (A) (A) (A)
                 (A) (A) (A) (A) (A) (A) (A) (A) (A) (A) (A) (A)
                 (A) (A) (A) (A) (A) (A) (A) (A) (A) (A) (A) (A)
                 (A) (A) (A) (A) (A) (A) (A) (A) (A) (A) (A) (A)
                 (A) (A) (A) (A) (A) (A) (A) (A) (A) (A) (A) (A)
                 (A) (A) (A) (A) (A) (A) (A) (A) (A) (A) (A) (A)
                 (A) (A) (A) (A) (A) (A) (A) (A) (A) (A) (A) (A)
                 (A) (A) (A) (A) (A) (A) (A) (A) (A) (A) (A) (A)
                 (A) (A) (A) (A) (A) (A) (A) (A) (A) (A) (A) (A)
                 (A) (A) (A) (A) (A) (A) (A) (A) (A) (A) (A) (A)
                 (A) (A) (A) (A) (A) (A) (A) (A) (A) (A) (A) (A)
                 (A) (A) (A) (A) (A) (A) (A) (A) (A) (A) (A) (A)
                 (A) (A) (A) (A) (A) (A) (A) (A) (A) (A) (A) (A)
                 (A) (A) (A) (A) (A) (A) (A) (A) (A) (A) (A) (A)
                 (A) (A) (A) (A) (A) (A) (A) (A) (A) (A) (A) (A)
                 (A) (A) (A) (A) (A) (A) (A) (A) (A) (A) (A) (A)
                 (A) (A) (A) (A) (A) (A) (A) (A) (A) (A) (A) (A)
                 (A) (A) (A) (A) (A) (A) (A) (A) (A) (A) (A) (A)
                 (A) (A) (A) (A) (A) (A) (A) (A) (A) (A) (A) (A)
                 (A) (A) (A) (A) (A) (A) (A) (A) (A) (A) (A) (A)
                 (A) (A) (A) (A) (A) (A) (A) (A) (A) (A) (A) (A)
                 (A) (A) (A) (A) (A) (A) (A) (A) (A) (A) (A) (A)
                 (A) (A) (A) (A) (A) (A) (A) (A) (A) (A) (A) (A)
                 (A) (A) (A) (A) (A) (A) (A) (A) (A) (A) (A) (A)
                 (A) (A) (A) (A) (A) (A) (A) (A) (A) (A) (A) (A)
                 (A) (A) (A) (A) (A) (A) (A) (A) (A) (A) (A) (A)
                 (A) (A) (A) (A) (A) (A) (A) (A) (A) (A) (A) (A)
                 (A) (A) (A) (A) (A) (A) (A) (A) (A) (A) (A) (A)
                 (A) (A) (A) (A) (A) (A) (A) (A) (A) (A) (A) (A)
                 (A) (A) (A) (A) (A) (A) (A) (A) (A) (A) (A) (A)
                 (A) (A) (A) (A) (A) (A) (A) (A) (A) (A) (A) (A)
                 (A) (A) (A) (A) (A) (A) (A) (A) (A) (A) (A) (A)
                 (A) (A) (A) (A) (A) (A) (A) (A) (A) (A) (A) (A)
                 (A) (A) (A) (A) (A) (A) (A) (A) (A) (A) (A) (A)
                 (A) (A) (A) (A) (A) (A) (A) (A) (A) (A) (A) (A)
                 (A) (A) (A) (A) (A) (A) (A) (A) (A) (A) (A) (A)
                 (A) (A) (A) (A) (A) (A) (A) (A) (A) (A) (A) (A)
                 (A) (A) (A) (A) (A) (A) (A) (A) (A) (A) (A) (A)
                 (A) (A) (A) (A) (A) (A) (A) (A) (A) (A) (A) (A)
                 (A) (A) (A) (A) (A) (A) (A) (A) (A) (A) (A) (A)
                 (A) (A) (A) (A) (A) (A) (A) (A) (A) (A) (A) (A)
                 (A) (A) (A) (A) (A) (A) (A) (A) (A) (A) (A) (A)
                 (A) (A) (A) (A) (A) (A) (A) (A) (A) (A) (A) (A)
                 (A) (A) (A) (A) (A) (A) (A) (A) (A) (A) (A) (A)
                 (A) (A) (A) (A) (A) (A) (A) (A) (A) (A) (A) (A)
                 (A) (A) (A) (A) (A) (A) (A) (A) (A) (A) (A) (A)
                 (A) (A) (A) (A) (A) (A) (A) (A) (A) (A) (A) (A)
                 (A) (A) (A) (A) (A) (A) (A) (A) (A) (A) (A) (A)
                 (A) (A) (A) (A) (A) (A) (A) (A) (A) (A) (A) (A)
                 (A) (A) (A) (A) (A) (A) (A) (A) (A) (A) (A) (A)
                 (A) (A) (A) (A) (A) (A) (A) (A) (A) (A) (A) (A)
                 (A) (A) (A) (A) (A) (A) (A) (A) (A) (A) (A) (A)
                 (A) (A) (A) (A) (A) (A) (A) (A) (A) (A) (A) (A)
                 (A) (A) (A) (A) (A) (A) (A) (A) (A) (A) (A) (A)
                 (A) (A) (A) (A) (A) (A) (A) (A) (A) (A) (A) (A)
                 (A) (A) (A) (A) (A) (A) (A) (A) (A) (A) (A) (A)
                 (A) (A) (A) (A) (A) (A) (A) (A) (A) (A) (A) (A)
                 (A) (A) (A) (A) (A) (A) (A) (A) (A) (A) (A) (A)
                 (A) (A) (A) (A) (A) (A) (A) (A) (A) (A) (A) (A)
                 (A) (A) (A) (A) (A) (A) (A) (A) (A) (A) (A) (A)
                 (A) (A) (A) (A) (A) (A) (A) (A) (A) (A) (A) (A)
                 (A) (A) (A) (A) (A) (A) (A) (A) (A) (A) (A) (A)
                 (A) (A) (A) (A) (A) (A) (A) (A) (A) (A) (A) (A)
                 (A) (A) (A) (A) (A) (A)
 The electronic state is 1-A.
 Alpha  occ. eigenvalues --  -88.98155 -88.97694 -88.94512 -19.23076 -19.22917
 Alpha  occ. eigenvalues --  -19.22000 -19.20520 -19.19890 -19.19353 -19.19271
 Alpha  occ. eigenvalues --  -19.19269 -19.18584 -19.17552 -19.11962 -19.09576
 Alpha  occ. eigenvalues --  -19.08226 -14.45522 -14.43326 -14.43249 -14.42204
 Alpha  occ. eigenvalues --  -14.38599 -14.37341 -10.37299 -10.36247 -10.36047
 Alpha  occ. eigenvalues --  -10.35830 -10.34279 -10.33771 -10.31012 -10.29933
 Alpha  occ. eigenvalues --  -10.28763 -10.28558 -10.28431 -10.28236 -10.28205
 Alpha  occ. eigenvalues --  -10.27599 -10.27462 -10.27375 -10.27349 -10.27174
 Alpha  occ. eigenvalues --  -10.27153 -10.26194 -10.25925 -10.25805 -10.25798
 Alpha  occ. eigenvalues --  -10.25658 -10.25596 -10.25579 -10.25441 -10.25340
 Alpha  occ. eigenvalues --  -10.25221 -10.25103 -10.24928 -10.24926 -10.24866
 Alpha  occ. eigenvalues --  -10.24743 -10.24598 -10.24576 -10.24521 -10.24492
 Alpha  occ. eigenvalues --  -10.24484 -10.24451 -10.24423 -10.24422 -10.24343
 Alpha  occ. eigenvalues --  -10.24316 -10.24174 -10.24124 -10.24083 -10.24062
 Alpha  occ. eigenvalues --  -10.24028 -10.24003 -10.23982 -10.23972 -10.23944
 Alpha  occ. eigenvalues --  -10.23837 -10.23809 -10.23792 -10.23726 -10.23680
 Alpha  occ. eigenvalues --  -10.23660 -10.23621 -10.23563 -10.23556 -10.23554
 Alpha  occ. eigenvalues --  -10.23534 -10.23523 -10.23519 -10.23498 -10.23481
 Alpha  occ. eigenvalues --  -10.23422 -10.23365 -10.23363 -10.23319 -10.23194
 Alpha  occ. eigenvalues --  -10.23178 -10.23115 -10.22973 -10.22969 -10.22848
 Alpha  occ. eigenvalues --  -10.22844 -10.22703 -10.22595 -10.22568 -10.22503
 Alpha  occ. eigenvalues --  -10.22477 -10.22398 -10.22385 -10.22339 -10.22333
 Alpha  occ. eigenvalues --  -10.22282 -10.22198 -10.22186 -10.22071 -10.22066
 Alpha  occ. eigenvalues --  -10.21933 -10.21918 -10.21884 -10.21838 -10.21821
 Alpha  occ. eigenvalues --  -10.21794 -10.21716 -10.21715 -10.21675 -10.21595
 Alpha  occ. eigenvalues --  -10.21496 -10.21406 -10.21384 -10.21383 -10.21181
 Alpha  occ. eigenvalues --  -10.21137 -10.21128 -10.20989 -10.20946 -10.20881
 Alpha  occ. eigenvalues --  -10.20806 -10.20721 -10.20616 -10.20498 -10.20241
 Alpha  occ. eigenvalues --  -10.20070 -10.19980 -10.19587 -10.18518 -10.17799
 Alpha  occ. eigenvalues --   -7.99968  -7.99573  -7.96346  -5.95030  -5.94632
 Alpha  occ. eigenvalues --   -5.94624  -5.94243  -5.93943  -5.93544  -5.91394
 Alpha  occ. eigenvalues --   -5.91008  -5.90343  -1.13092  -1.10221  -1.10196
 Alpha  occ. eigenvalues --   -1.09238  -1.09122  -1.08478  -1.07485  -1.06214
 Alpha  occ. eigenvalues --   -1.04527  -1.03550  -1.02344  -1.00128  -0.99182
 Alpha  occ. eigenvalues --   -0.98694  -0.97438  -0.96508  -0.96290  -0.94064
 Alpha  occ. eigenvalues --   -0.90910  -0.90583  -0.89973  -0.89690  -0.88778
 Alpha  occ. eigenvalues --   -0.88200  -0.87853  -0.86544  -0.86506  -0.86384
 Alpha  occ. eigenvalues --   -0.86153  -0.86051  -0.85553  -0.84794  -0.84516
 Alpha  occ. eigenvalues --   -0.84428  -0.83831  -0.83641  -0.83602  -0.83307
 Alpha  occ. eigenvalues --   -0.82949  -0.82490  -0.82401  -0.82312  -0.82091
 Alpha  occ. eigenvalues --   -0.82025  -0.81487  -0.81224  -0.81171  -0.80560
 Alpha  occ. eigenvalues --   -0.80245  -0.79767  -0.79099  -0.78836  -0.78565
 Alpha  occ. eigenvalues --   -0.78046  -0.77810  -0.77700  -0.77689  -0.77345
 Alpha  occ. eigenvalues --   -0.77213  -0.76906  -0.76894  -0.76742  -0.76616
 Alpha  occ. eigenvalues --   -0.76207  -0.76071  -0.75269  -0.75231  -0.74503
 Alpha  occ. eigenvalues --   -0.74451  -0.74429  -0.73970  -0.73682  -0.73362
 Alpha  occ. eigenvalues --   -0.73293  -0.72953  -0.72598  -0.72473  -0.72337
 Alpha  occ. eigenvalues --   -0.72137  -0.71899  -0.71492  -0.71223  -0.70990
 Alpha  occ. eigenvalues --   -0.70744  -0.70532  -0.70336  -0.69990  -0.69676
 Alpha  occ. eigenvalues --   -0.69470  -0.69389  -0.69003  -0.68578  -0.67787
 Alpha  occ. eigenvalues --   -0.67510  -0.67327  -0.67040  -0.66840  -0.66760
 Alpha  occ. eigenvalues --   -0.66302  -0.66078  -0.65891  -0.65781  -0.65590
 Alpha  occ. eigenvalues --   -0.65165  -0.64735  -0.64618  -0.64249  -0.63772
 Alpha  occ. eigenvalues --   -0.63590  -0.63501  -0.62954  -0.62882  -0.62788
 Alpha  occ. eigenvalues --   -0.62559  -0.62288  -0.61984  -0.61943  -0.61857
 Alpha  occ. eigenvalues --   -0.61543  -0.60905  -0.60855  -0.60717  -0.60639
 Alpha  occ. eigenvalues --   -0.60337  -0.60104  -0.59794  -0.59653  -0.59543
 Alpha  occ. eigenvalues --   -0.59394  -0.59352  -0.59348  -0.58622  -0.58592
 Alpha  occ. eigenvalues --   -0.58358  -0.58171  -0.57462  -0.57360  -0.57234
 Alpha  occ. eigenvalues --   -0.56944  -0.56264  -0.56121  -0.55637  -0.55366
 Alpha  occ. eigenvalues --   -0.54776  -0.54471  -0.54177  -0.54055  -0.53850
 Alpha  occ. eigenvalues --   -0.53719  -0.52640  -0.52164  -0.52085  -0.51964
 Alpha  occ. eigenvalues --   -0.51871  -0.51664  -0.51533  -0.51340  -0.51023
 Alpha  occ. eigenvalues --   -0.50981  -0.50783  -0.50602  -0.50517  -0.50458
 Alpha  occ. eigenvalues --   -0.50320  -0.50260  -0.50145  -0.49877  -0.49797
 Alpha  occ. eigenvalues --   -0.49701  -0.49576  -0.49503  -0.49416  -0.49378
 Alpha  occ. eigenvalues --   -0.49292  -0.49042  -0.49017  -0.48867  -0.48786
 Alpha  occ. eigenvalues --   -0.48734  -0.48589  -0.48557  -0.48483  -0.48368
 Alpha  occ. eigenvalues --   -0.48018  -0.47964  -0.47851  -0.47791  -0.47702
 Alpha  occ. eigenvalues --   -0.47575  -0.47557  -0.47520  -0.47451  -0.47397
 Alpha  occ. eigenvalues --   -0.47341  -0.47143  -0.47096  -0.47037  -0.46983
 Alpha  occ. eigenvalues --   -0.46901  -0.46872  -0.46499  -0.46386  -0.46210
 Alpha  occ. eigenvalues --   -0.46087  -0.46040  -0.45949  -0.45910  -0.45801
 Alpha  occ. eigenvalues --   -0.45765  -0.45669  -0.45662  -0.45637  -0.45621
 Alpha  occ. eigenvalues --   -0.45576  -0.45547  -0.45386  -0.45321  -0.45228
 Alpha  occ. eigenvalues --   -0.45083  -0.45062  -0.45018  -0.44973  -0.44905
 Alpha  occ. eigenvalues --   -0.44797  -0.44722  -0.44642  -0.44483  -0.44384
 Alpha  occ. eigenvalues --   -0.44210  -0.44168  -0.44077  -0.43995  -0.43873
 Alpha  occ. eigenvalues --   -0.43828  -0.43754  -0.43724  -0.43684  -0.43471
 Alpha  occ. eigenvalues --   -0.43392  -0.43355  -0.43333  -0.43281  -0.43205
 Alpha  occ. eigenvalues --   -0.43043  -0.42958  -0.42882  -0.42864  -0.42803
 Alpha  occ. eigenvalues --   -0.42715  -0.42651  -0.42499  -0.42346  -0.42221
 Alpha  occ. eigenvalues --   -0.42190  -0.42163  -0.42127  -0.41966  -0.41885
 Alpha  occ. eigenvalues --   -0.41740  -0.41716  -0.41661  -0.41638  -0.41566
 Alpha  occ. eigenvalues --   -0.41525  -0.41496  -0.41401  -0.41359  -0.41264
 Alpha  occ. eigenvalues --   -0.41189  -0.41086  -0.40965  -0.40955  -0.40867
 Alpha  occ. eigenvalues --   -0.40863  -0.40772  -0.40699  -0.40614  -0.40466
 Alpha  occ. eigenvalues --   -0.40423  -0.40190  -0.39939  -0.39896  -0.39796
 Alpha  occ. eigenvalues --   -0.39745  -0.39657  -0.39638  -0.39631  -0.39506
 Alpha  occ. eigenvalues --   -0.39478  -0.39435  -0.39342  -0.39312  -0.39259
 Alpha  occ. eigenvalues --   -0.39228  -0.39105  -0.39056  -0.38983  -0.38977
 Alpha  occ. eigenvalues --   -0.38953  -0.38893  -0.38868  -0.38730  -0.38723
 Alpha  occ. eigenvalues --   -0.38616  -0.38595  -0.38290  -0.38223  -0.38143
 Alpha  occ. eigenvalues --   -0.38082  -0.38052  -0.37993  -0.37913  -0.37861
 Alpha  occ. eigenvalues --   -0.37664  -0.37619  -0.37601  -0.37528  -0.37483
 Alpha  occ. eigenvalues --   -0.37344  -0.37166  -0.37071  -0.36981  -0.36718
 Alpha  occ. eigenvalues --   -0.36638  -0.36605  -0.36567  -0.36532  -0.36458
 Alpha  occ. eigenvalues --   -0.36406  -0.36378  -0.36313  -0.36180  -0.35949
 Alpha  occ. eigenvalues --   -0.35927  -0.35868  -0.35773  -0.35708  -0.35617
 Alpha  occ. eigenvalues --   -0.35603  -0.35562  -0.35490  -0.35450  -0.35436
 Alpha  occ. eigenvalues --   -0.35373  -0.35323  -0.35267  -0.35207  -0.35120
 Alpha  occ. eigenvalues --   -0.35035  -0.34957  -0.34889  -0.34816  -0.34811
 Alpha  occ. eigenvalues --   -0.34774  -0.34746  -0.34712  -0.34532  -0.34527
 Alpha  occ. eigenvalues --   -0.34391  -0.34363  -0.34210  -0.34082  -0.34009
 Alpha  occ. eigenvalues --   -0.33959  -0.33864  -0.33758  -0.33671  -0.33548
 Alpha  occ. eigenvalues --   -0.33519  -0.33358  -0.33289  -0.33208  -0.33065
 Alpha  occ. eigenvalues --   -0.33040  -0.33008  -0.32903  -0.32876  -0.32759
 Alpha  occ. eigenvalues --   -0.32725  -0.32539  -0.32525  -0.32315  -0.32279
 Alpha  occ. eigenvalues --   -0.32139  -0.31962  -0.31927  -0.31578  -0.31356
 Alpha  occ. eigenvalues --   -0.30949  -0.30882  -0.30571  -0.30516  -0.30290
 Alpha  occ. eigenvalues --   -0.29781  -0.29303  -0.29111  -0.28780  -0.28624
 Alpha  occ. eigenvalues --   -0.28331  -0.28164  -0.27808  -0.27642  -0.27184
 Alpha  occ. eigenvalues --   -0.26877  -0.26669  -0.26617  -0.26296  -0.26106
 Alpha  occ. eigenvalues --   -0.25908  -0.25347  -0.24158  -0.24009  -0.23146
 Alpha  occ. eigenvalues --   -0.22145  -0.21373  -0.21280  -0.21119  -0.20730
 Alpha  occ. eigenvalues --   -0.20679  -0.19990  -0.18621  -0.18423
 Alpha virt. eigenvalues --    0.07206   0.11766   0.12484   0.12791   0.12998
 Alpha virt. eigenvalues --    0.13649   0.13683   0.13743   0.13803   0.14991
 Alpha virt. eigenvalues --    0.15191   0.15237   0.15798   0.15863   0.15903
 Alpha virt. eigenvalues --    0.16290   0.16328   0.17293   0.17678   0.17962
 Alpha virt. eigenvalues --    0.18178   0.18546   0.18838   0.19011   0.19172
 Alpha virt. eigenvalues --    0.19327   0.19485   0.19825   0.19912   0.20156
 Alpha virt. eigenvalues --    0.20363   0.20722   0.20785   0.20954   0.21027
 Alpha virt. eigenvalues --    0.21189   0.21374   0.21419   0.21504   0.21667
 Alpha virt. eigenvalues --    0.21700   0.22003   0.22164   0.22356   0.22583
 Alpha virt. eigenvalues --    0.22660   0.22803   0.22934   0.23074   0.23250
 Alpha virt. eigenvalues --    0.23279   0.23433   0.23498   0.23587   0.23683
 Alpha virt. eigenvalues --    0.23806   0.23872   0.23953   0.24026   0.24198
 Alpha virt. eigenvalues --    0.24315   0.24385   0.24537   0.24543   0.24660
 Alpha virt. eigenvalues --    0.24754   0.24936   0.25025   0.25119   0.25242
 Alpha virt. eigenvalues --    0.25296   0.25357   0.25479   0.25502   0.25549
 Alpha virt. eigenvalues --    0.25643   0.25695   0.25828   0.25859   0.26089
 Alpha virt. eigenvalues --    0.26167   0.26240   0.26302   0.26399   0.26512
 Alpha virt. eigenvalues --    0.26697   0.26708   0.26747   0.26922   0.26970
 Alpha virt. eigenvalues --    0.27013   0.27066   0.27217   0.27284   0.27331
 Alpha virt. eigenvalues --    0.27424   0.27537   0.27560   0.27639   0.27695
 Alpha virt. eigenvalues --    0.27791   0.27853   0.27946   0.28069   0.28116
 Alpha virt. eigenvalues --    0.28276   0.28374   0.28418   0.28494   0.28556
 Alpha virt. eigenvalues --    0.28642   0.28723   0.28736   0.28801   0.28842
 Alpha virt. eigenvalues --    0.28949   0.29031   0.29082   0.29121   0.29189
 Alpha virt. eigenvalues --    0.29280   0.29362   0.29385   0.29439   0.29487
 Alpha virt. eigenvalues --    0.29586   0.29723   0.29756   0.29765   0.29805
 Alpha virt. eigenvalues --    0.29894   0.29972   0.30016   0.30071   0.30111
 Alpha virt. eigenvalues --    0.30189   0.30329   0.30361   0.30376   0.30534
 Alpha virt. eigenvalues --    0.30554   0.30636   0.30755   0.30767   0.30794
 Alpha virt. eigenvalues --    0.30814   0.30973   0.31006   0.31055   0.31086
 Alpha virt. eigenvalues --    0.31188   0.31259   0.31322   0.31347   0.31443
 Alpha virt. eigenvalues --    0.31454   0.31556   0.31601   0.31685   0.31737
 Alpha virt. eigenvalues --    0.31745   0.31833   0.31940   0.31989   0.32050
 Alpha virt. eigenvalues --    0.32148   0.32245   0.32285   0.32344   0.32439
 Alpha virt. eigenvalues --    0.32470   0.32528   0.32567   0.32619   0.32642
 Alpha virt. eigenvalues --    0.32700   0.32803   0.32813   0.32928   0.32954
 Alpha virt. eigenvalues --    0.33035   0.33065   0.33191   0.33240   0.33272
 Alpha virt. eigenvalues --    0.33316   0.33421   0.33470   0.33571   0.33580
 Alpha virt. eigenvalues --    0.33663   0.33732   0.33753   0.33917   0.33955
 Alpha virt. eigenvalues --    0.34029   0.34106   0.34146   0.34281   0.34359
 Alpha virt. eigenvalues --    0.34445   0.34471   0.34589   0.34667   0.34761
 Alpha virt. eigenvalues --    0.34776   0.34820   0.34958   0.35046   0.35189
 Alpha virt. eigenvalues --    0.35206   0.35277   0.35326   0.35433   0.35462
 Alpha virt. eigenvalues --    0.35540   0.35649   0.35680   0.35768   0.35952
 Alpha virt. eigenvalues --    0.35978   0.36027   0.36136   0.36169   0.36310
 Alpha virt. eigenvalues --    0.36344   0.36471   0.36498   0.36656   0.36691
 Alpha virt. eigenvalues --    0.36758   0.36914   0.36920   0.36966   0.37060
 Alpha virt. eigenvalues --    0.37113   0.37182   0.37269   0.37360   0.37406
 Alpha virt. eigenvalues --    0.37502   0.37605   0.37621   0.37741   0.37829
 Alpha virt. eigenvalues --    0.37910   0.37949   0.38018   0.38046   0.38108
 Alpha virt. eigenvalues --    0.38114   0.38243   0.38378   0.38383   0.38502
 Alpha virt. eigenvalues --    0.38546   0.38558   0.38682   0.38796   0.38806
 Alpha virt. eigenvalues --    0.38925   0.38959   0.39043   0.39111   0.39309
 Alpha virt. eigenvalues --    0.39320   0.39467   0.39567   0.39641   0.39793
[...]
  185 Atom       -0.298286      0.135119      0.163166
  186 Atom       -0.295668      0.142938      0.152730
  187 Atom       -0.284112      0.129254      0.154858
  188 Atom       -0.300758      0.144987      0.155771
  189 Atom       -0.240788      0.083172      0.157617
  190 Atom       -0.301627      0.139510      0.162116
  191 Atom       -0.292322      0.142702      0.149620
  192 Atom       -0.295040      0.145253      0.149787
  193 Atom       -0.020015      0.003084      0.016931
  194 Atom       -0.294125      0.143928      0.150197
  195 Atom       -0.037172     -0.016666      0.053838
  196 Atom       -0.278485      0.138549      0.139936
  197 Atom       -0.015773      0.003297      0.012476
  198 Atom       -0.288481      0.141374      0.147108
  199 Atom       -0.293699      0.144386      0.149313
  200 Atom       -0.288624      0.141615      0.147009
  201 Atom       -0.026477      0.007164      0.019312
  202 Atom       -0.286271      0.139910      0.146362
  203 Atom       -0.290738      0.141919      0.148819
  204 Atom       -0.300300      0.147302      0.152998
  205 Atom       -0.303607      0.150141      0.153466
  206 Atom       -0.300854      0.148903      0.151952
  207 Atom       -0.043846      0.013707      0.030138
  208 Atom       -0.285178      0.139147      0.146031
  209 Atom       -0.066775     -0.003841      0.070616
  210 Atom       -0.292261      0.139737      0.152524
  211 Atom       -0.283970      0.136800      0.147170
  212 Atom       -0.223303      0.075535      0.147768
  213 Atom       -0.287813      0.137529      0.150284
  214 Atom       -0.281362      0.137032      0.144330
  215 Atom       -2.313587     -0.554573      2.868160
  216 Atom       -0.206200      0.096450      0.109750
  217 Atom       -0.294307      0.142486      0.151821
  218 Atom       -0.290433      0.141670      0.148763
  219 Atom       -0.291524      0.138697      0.152828
  220 Atom       -0.301879      0.148805      0.153074
  221 Atom       -0.295029      0.145006      0.150023
  222 Atom       -0.010254      0.001734      0.008520
  223 Atom       -0.291111      0.143873      0.147238
  224 Atom       -0.036975      0.001815      0.035160
  225 Atom       -0.286730      0.140108      0.146623
  226 Atom       -0.279174      0.136486      0.142688
  227 Atom       -0.030542     -0.001181      0.031724
  228 Atom       -0.276075      0.136855      0.139220
  229 Atom       -0.018382      0.001370      0.017012
  230 Atom       -0.291008      0.143547      0.147461
  231 Atom       -0.288244      0.140926      0.147318
  232 Atom       -0.291534      0.142949      0.148585
  233 Atom       -0.043475      0.004792      0.038683
  234 Atom       -0.291075      0.141705      0.149370
  235 Atom       -0.288539      0.139667      0.148872
  236 Atom       -0.284203      0.137913      0.146290
  237 Atom       -0.289872      0.142735      0.147137
  238 Atom       -0.291032      0.143241      0.147791
  239 Atom       -0.003428     -0.001035      0.004464
  240 Atom       -0.289275      0.142193      0.147082
  241 Atom       -0.041572     -0.019436      0.061008
  242 Atom       -0.277504      0.138287      0.139217
  243 Atom       -0.037493     -0.016626      0.054119
  244 Atom       -0.283843      0.139668      0.144175
  245 Atom       -0.292456      0.142731      0.149725
  246 Atom       -0.289587      0.141715      0.147871
  247 Atom       -0.027428      0.001110      0.026318
  248 Atom       -0.288372      0.141074      0.147297
  249 Atom       -0.292622      0.143011      0.149611
  250 Atom       -0.281968      0.137910      0.144057
  251 Atom       -0.293403      0.144349      0.149054
  252 Atom       -0.293128      0.141650      0.151479
  253 Atom       -0.066581      0.010507      0.056074
  254 Atom       -0.290767      0.140394      0.150373
  255 Atom       -0.063076      0.012149      0.050927
  256 Atom       -0.287826      0.140663      0.147162
  257 Atom       -0.280887      0.137778      0.143109
  258 Atom       -0.409629      0.047844      0.361785
  259 Atom       -0.784043     -0.691481      1.475523
  260 Atom       -1.244409      0.398508      0.845901
  261 Atom       -0.308934      0.135569      0.173365
  262 Atom       -0.294823      0.143895      0.150928
  263 Atom       -0.292805      0.143698      0.149106
  264 Atom       -0.033444      0.001403      0.032041
  265 Atom       -0.290991      0.142192      0.148798
  266 Atom       -0.038932     -0.011024      0.049957
  267 Atom       -0.282852      0.137969      0.144882
  268 Atom       -0.288399      0.139818      0.148582
  269 Atom       -0.200339      0.074699      0.125640
  270 Atom       -0.287696      0.139219      0.148477
  271 Atom       -0.288283      0.137164      0.151119
  272 Atom       -2.275063     -0.494242      2.769305
  273 Atom       -0.265005      0.099205      0.165799
  274 Atom       -0.295124      0.141845      0.153278
  275 Atom       -0.292111      0.140163      0.151948
  276 Atom       -0.266743      0.127460      0.139283
  277 Atom       -0.288085      0.142779      0.145306
  278 Atom       -0.293141      0.144503      0.148638
  279 Atom       -0.016084     -0.002019      0.018103
  280 Atom       -0.292854      0.144842      0.148012
  281 Atom       -0.075369      0.014657      0.060712
  282 Atom       -0.291510      0.140230      0.151280
  283 Atom       -0.284242      0.141099      0.143143
  284 Atom       -0.292400      0.143249      0.149151
  285 Atom       -0.290742      0.142732      0.148010
  286 Atom       -0.292033      0.142898      0.149135
  287 Atom       -0.035543      0.011213      0.024330
  288 Atom       -0.293547      0.144283      0.149264
  289 Atom       -0.037989     -0.002099      0.040088
  290 Atom       -0.284934      0.141112      0.143823
  291 Atom       -0.285365      0.140413      0.144952
  292 Atom       -0.070576      0.006636      0.063940
  293 Atom       -0.123059     -0.088863      0.211922
  294 Atom       -0.309185      0.142315      0.166870
  295 Atom       -0.421133     -0.114272      0.535404
  296 Atom       -0.286209      0.120462      0.165747
  297 Atom       -0.149165     -0.077608      0.226773
  298 Atom       -0.229805      0.082436      0.147369
  299 Atom       -0.295947      0.141262      0.154686
  300 Atom       -0.220826      0.086122      0.134704
  301 Atom       -0.305200      0.142410      0.162790
  302 Atom       -0.196684      0.070793      0.125891
  303 Atom       -0.306328      0.142132      0.164196
  304 Atom       -0.223198      0.076059      0.147139
  305 Atom       -0.304893      0.143804      0.161089
  306 Atom       -0.189845      0.081329      0.108516
  307 Atom       -0.289990      0.141589      0.148400
  308 Atom       -0.292517      0.143593      0.148924
  309 Atom       -0.031824      0.009326      0.022498
  310 Atom       -0.289932      0.142544      0.147388
  311 Atom       -0.025915     -0.005829      0.031744
  312 Atom       -0.284451      0.138323      0.146127
  313 Atom       -0.281457      0.137700      0.143757
  314 Atom       -0.020060     -0.004698      0.024757
  315 Atom       -0.276340      0.137650      0.138690
  316 Atom       -0.030819      0.002914      0.027905
  317 Atom       -0.287466      0.140254      0.147213
  318 Atom       -0.291393      0.142526      0.148867
  319 Atom       -0.293761      0.143972      0.149788
  320 Atom       -0.018378      0.008003      0.010375
  321 Atom       -0.287425      0.140592      0.146833
  322 Atom       -0.290596      0.142324      0.148273
  323 Atom       -0.290313      0.142389      0.147924
  324 Atom       -0.291226      0.142627      0.148599
  325 Atom       -0.566955      0.156241      0.410714
  326 Atom       -0.924990     -0.425446      1.350436
  327 Atom       -0.123391      0.010339      0.113052
  328 Atom       -0.576702      0.242865      0.333836
  329 Atom       -0.048699      0.020435      0.028264
  330 Atom       -0.044249      0.002393      0.041857
  331 Atom       -0.049227      0.007997      0.041231
  332 Atom       -0.112819      0.007752      0.105067
  333 Atom       -0.051016     -0.022333      0.073349
  334 Atom       -0.034517      0.013274      0.021243
  335 Atom       -0.048704      0.015867      0.032837
  336 Atom       -0.020617      0.009823      0.010795
  337 Atom       -0.039244      0.011762      0.027482
  338 Atom       -0.037471     -0.003354      0.040826
  339 Atom       -0.023234      0.002075      0.021159
  340 Atom       -0.069267      0.009068      0.060198
  341 Atom       -0.039381     -0.002987      0.042368
  342 Atom       -0.331987      0.127800      0.204187
  343 Atom       -0.033449      0.008152      0.025298
  344 Atom       -1.617176     -0.155092      1.772268
  345 Atom       -0.291956      0.132661      0.159295
  346 Atom       -0.265926      0.129773      0.136153
  347 Atom       -0.279969      0.136671      0.143298
  348 Atom       -0.290241      0.142249      0.147992
  349 Atom       -0.273851      0.133205      0.140646
  350 Atom       -0.281929      0.135445      0.146484
  351 Atom       -0.288202      0.136305      0.151896
  352 Atom       -0.239147      0.117709      0.121438
  353 Atom       -0.282554      0.138339      0.144216
  354 Atom       -0.285484      0.140252      0.145232
  355 Atom       -0.273891      0.135293      0.138598
  356 Atom       -0.268913      0.133349      0.135564
  357 Atom       -0.268972      0.131610      0.137362
  358 Atom       -0.278759      0.137212      0.141546
  359 Atom       -0.277492      0.133504      0.143988
  360 Atom       -0.283469      0.139808      0.143661
  361 Atom       -0.288163      0.142034      0.146129
  362 Atom       -0.290477      0.142790      0.147687
  363 Atom       -0.287828      0.141568      0.146259
  364 Atom       -0.293025      0.145235      0.147790
  365 Atom       -0.291540      0.144459      0.147081
  366 Atom       -0.262685      0.125209      0.137476
  367 Atom       -0.294817      0.141876      0.152941
  368 Atom       -0.286618      0.136979      0.149638
  369 Atom       -0.294036      0.143678      0.150358
  370 Atom       -0.449459      0.196490      0.252969
 -----------------------------------------------------
 Unable to Open any file for archive entry.
 1\1\GINC-EXP-1-24\SP\RwB97XD\6-31G(d)\C123H225N6O13S3(1-)\HKLEM\07-Aug
 -2024\0\\# 6-31G* wB97XD prop=efg\\19nt_mm_min_distance_cutoff5_from_c
 utoff6_nowat_efg\\-1,1\H,0,-8.562,-7.359,-3.047\C,0,-8.127,-6.359,-2.9
 19\H,0,-8.353,-5.775,-3.815\C,0,-8.738,-5.68,-1.68\H,0,-9.823,-5.623,-
 1.818\H,0,-8.574,-6.298,-0.788\C,0,-8.165,-4.304,-1.456\C,0,-8.703,-3.
 178,-2.083\H,0,-9.595,-3.279,-2.697\C,0,-8.128,-1.923,-1.927\H,0,-8.55
 5,-1.046,-2.403\C,0,-6.984,-1.787,-1.145\O,0,-6.412,-0.558,-1.026\H,0,
 -5.793,-0.543,-0.242\C,0,-6.43,-2.895,-0.507\H,0,-5.547,-2.784,0.115\C
 ,0,-7.029,-4.137,-0.665\H,0,-6.595,-4.998,-0.166\C,0,-6.594,-6.479,-2.
 882\O,0,-5.884,-5.957,-3.732\N,0,-6.067,-7.204,-1.856\H,0,-6.694,-7.66
 2,-1.212\C,0,-4.632,-7.435,-1.685\H,0,-4.11,-6.494,-1.888\C,0,-4.316,-
 7.947,-0.278\H,0,-4.913,-8.859,-0.117\C,0,-2.842,-8.352,-0.198\H,0,-2.
 589,-8.698,0.809\H,0,-2.191,-7.507,-0.434\H,0,-2.612,-9.158,-0.904\C,0
 ,-4.701,-6.951,0.83\H,0,-5.791,-6.817,0.836\H,0,-4.467,-7.402,1.802\C,
 0,-4.029,-5.583,0.747\H,0,-4.33,-4.965,1.599\H,0,-4.294,-5.05,-0.173\H
 ,0,-2.938,-5.661,0.788\H,0,-4.284,-8.158,-2.435\H,0,-3.414,-4.86,-5.23
 5\C,0,-2.51,-4.267,-5.06\H,0,-2.691,-3.257,-5.448\C,0,-2.18,-4.214,-3.
 562\H,0,-2.022,-5.246,-3.216\C,0,-0.897,-3.422,-3.307\H,0,-0.038,-3.84
 9,-3.838\H,0,-1.017,-2.39,-3.651\H,0,-0.652,-3.385,-2.239\C,0,-3.342,-
 3.63,-2.754\H,0,-3.092,-3.583,-1.686\H,0,-4.25,-4.23,-2.87\H,0,-3.574,
 -2.609,-3.089\H,0,-1.684,-4.705,-5.634\H,0,-4.991,7.303,4.483\C,0,-4.2
 07,6.543,4.368\H,0,-4.261,5.882,5.236\C,0,-4.448,5.745,3.087\H,0,-4.39
 7,6.419,2.224\H,0,-5.457,5.315,3.091\C,0,-3.432,4.608,2.865\O,0,-2.474
 ,4.547,3.691\O,0,-3.62,3.839,1.896\C,0,-2.88,7.291,4.303\O,0,-2.549,7.
 902,3.289\N,0,-2.114,7.341,5.427\C,0,-0.874,8.107,5.425\H,0,-0.108,7.6
 ,4.823\H,0,-1.043,9.093,4.984\C,0,-0.481,8.148,6.902\H,0,0.596,8.275,7
 .042\H,0,-0.992,8.979,7.403\C,0,-0.993,6.805,7.436\H,0,-1.156,6.805,8.
 518\H,0,-0.275,6.014,7.202\C,0,-2.295,6.572,6.658\H,0,-2.446,5.512,6.4
 35\H,0,-3.167,6.938,7.219\H,0,-3.417,5.426,-5.706\C,0,-3.006,4.453,-5.
 973\H,0,-2.472,4.016,-5.118\C,0,-4.098,3.491,-6.45\H,0,-4.702,3.987,-7
 .219\H,0,-3.599,2.644,-6.937\C,0,-4.963,2.986,-5.321\C,0,-6.181,3.585,
 -4.995\H,0,-6.568,4.39,-5.617\C,0,-6.918,3.175,-3.889\H,0,-7.861,3.648
 ,-3.635\C,0,-6.44,2.136,-3.093\O,0,-7.165,1.77,-2.006\H,0,-6.86,0.906,
 -1.639\C,0,-5.247,1.493,-3.427\H,0,-4.903,0.654,-2.83\C,0,-4.521,1.927
 ,-4.526\H,0,-3.585,1.428,-4.77\H,0,-2.27,4.623,-6.766\H,0,0.329,7.198,
 -7.455\C,0,1.334,7.401,-7.065\H,0,2.,7.634,-7.897\C,0,1.255,8.537,-6.0
 32\H,0,2.236,9.009,-5.916\H,0,1.012,8.097,-5.06\C,0,0.196,9.593,-6.371
 \H,0,0.488,10.188,-7.239\H,0,-0.746,9.077,-6.593\C,0,-0.036,10.554,-5.
 214\O,0,0.238,11.74,-5.256\N,0,-0.599,9.972,-4.107\H,0,-0.694,8.969,-4
 .038\H,0,-0.634,10.512,-3.256\C,0,1.865,6.1,-6.4\O,0,2.951,5.614,-6.69
 7\N,0,1.069,5.526,-5.432\H,0,0.145,5.931,-5.293\C,0,1.598,4.64,-4.379\
 H,0,0.823,4.527,-3.617\H,0,2.474,5.091,-3.905\C,0,2.039,3.236,-4.814\O
 ,0,2.806,2.596,-4.107\N,0,1.5,2.766,-5.965\H,0,0.877,3.389,-6.461\C,0,
 1.802,1.467,-6.557\H,0,2.548,0.998,-5.91\C,0,0.544,0.598,-6.664\H,0,-0
 .123,1.042,-7.418\H,0,0.847,-0.376,-7.064\C,0,-0.229,0.419,-5.353\H,0,
 -0.545,1.414,-5.005\C,0,-1.489,-0.411,-5.609\H,0,-2.086,-0.521,-4.696\
 H,0,-2.125,0.047,-6.376\H,0,-1.227,-1.419,-5.954\C,0,0.635,-0.207,-4.2
 58\H,0,1.056,-1.164,-4.591\H,0,1.459,0.451,-3.963\H,0,0.038,-0.405,-3.
 362\H,0,2.241,1.577,-7.549\H,0,5.578,-2.632,-5.604\C,0,5.211,-2.915,-4
 .613\H,0,6.036,-2.864,-3.894\C,0,4.089,-1.944,-4.181\H,0,3.251,-2.075,
 -4.879\C,0,3.597,-2.217,-2.756\H,0,3.149,-3.21,-2.649\H,0,4.427,-2.156
 ,-2.041\H,0,2.846,-1.474,-2.465\C,0,4.597,-0.506,-4.31\H,0,5.447,-0.33
 5,-3.638\H,0,4.927,-0.287,-5.332\H,0,3.822,0.221,-4.045\H,0,4.876,-3.9
 49,-4.697\H,0,2.049,-7.232,-1.882\C,0,1.338,-7.189,-1.057\H,0,1.877,-6
 .784,-0.199\C,0,0.131,-6.32,-1.395\H,0,-0.482,-6.142,-0.506\H,0,-0.498
 ,-6.788,-2.16\H,0,0.462,-5.35,-1.773\H,0,1.036,-8.211,-0.809\H,0,-8.23
 1,-6.885,7.699\C,0,-7.3,-7.364,7.376\H,0,-7.306,-8.395,7.744\C,0,-7.16
 4,-7.328,5.852\H,0,-7.998,-7.876,5.397\H,0,-6.246,-7.846,5.549\C,0,-7.
 141,-5.904,5.297\H,0,-6.266,-5.363,5.677\H,0,-8.038,-5.357,5.614\S,0,-
 7.083,-5.934,3.477\C,0,-7.108,-4.155,3.136\H,0,-7.992,-3.688,3.581\H,0
 ,-6.194,-3.674,3.491\H,0,-7.17,-4.025,2.054\H,0,-6.469,-6.838,7.859\H,
 0,-1.934,-7.253,6.418\C,0,-1.175,-7.516,5.673\H,0,-0.894,-8.563,5.828\
 C,0,-1.705,-7.295,4.248\H,0,-0.937,-7.599,3.526\H,0,-2.567,-7.955,4.08
 1\C,0,-2.116,-5.865,3.971\C,0,-1.378,-5.046,3.113\H,0,-0.486,-5.444,2.
 631\C,0,-1.771,-3.732,2.858\H,0,-1.191,-3.111,2.181\C,0,-2.901,-3.21,3
 .476\H,0,-3.218,-2.188,3.298\C,0,-3.63,-4.007,4.356\H,0,-4.483,-3.578,
 4.873\C,0,-3.249,-5.324,4.588\H,0,-3.837,-5.945,5.261\H,0,-0.296,-6.89
 1,5.859\H,0,3.2,-4.544,2.664\C,0,3.546,-4.446,1.631\H,0,3.263,-5.343,1
 .071\C,0,2.906,-3.208,0.968\H,0,3.421,-3.039,0.013\C,0,1.432,-3.472,0.
 669\H,0,0.888,-3.696,1.595\H,0,1.323,-4.321,-0.012\H,0,0.961,-2.597,0.
 203\C,0,3.062,-1.958,1.833\H,0,2.534,-2.081,2.788\H,0,2.643,-1.081,1.3
 29\H,0,4.109,-1.744,2.057\H,0,4.632,-4.365,1.662\H,0,8.708,-2.785,-1.0
 17\C,0,9.017,-2.09,-1.798\H,0,9.171,-2.644,-2.735\C,0,7.945,-1.01,-2.0
 58\H,0,7.061,-1.52,-2.444\H,0,8.292,-0.368,-2.878\C,0,7.539,-0.144,-0.
 854\H,0,8.398,0.085,-0.214\H,0,7.144,0.816,-1.202\S,0,6.235,-0.901,0.1
 91\C,0,7.112,-1.151,1.756\H,0,8.089,-1.601,1.564\H,0,7.24,-0.209,2.297
 \H,0,6.523,-1.852,2.354\H,0,9.997,-1.698,-1.524\H,0,6.289,-2.955,5.384
 \C,0,5.669,-2.278,5.98\H,0,6.296,-1.836,6.763\C,0,5.023,-1.227,5.085\H
 ,0,4.537,-1.747,4.253\H,0,5.803,-0.595,4.633\C,0,4.,-0.318,5.779\H,0,3
 .194,-0.956,6.174\C,0,4.608,0.454,6.952\H,0,4.966,-0.215,7.744\H,0,5.4
 58,1.062,6.614\H,0,3.87,1.132,7.393\C,0,3.385,0.648,4.766\H,0,2.936,0.
 104,3.928\H,0,4.159,1.308,4.353\H,0,2.612,1.279,5.218\H,0,4.903,-2.885
 ,6.478\H,0,0.457,-3.01,7.405\C,0,-0.472,-2.464,7.612\H,0,-0.208,-1.571
 ,8.192\C,0,-1.191,-2.084,6.316\H,0,-1.415,-3.013,5.776\C,0,-2.516,-1.3
 83,6.619\H,0,-3.069,-1.14,5.707\H,0,-3.165,-2.015,7.238\H,0,-2.338,-0.
 449,7.169\C,0,-0.309,-1.218,5.411\H,0,-0.812,-1.024,4.455\H,0,0.646,-1
 .711,5.192\H,0,-0.091,-0.248,5.876\H,0,-1.104,-3.1,8.242\H,0,-6.704,-2
 .942,6.102\C,0,-6.887,-1.899,6.381\H,0,-5.955,-1.492,6.782\C,0,-7.347,
 -1.089,5.175\H,0,-8.247,-1.512,4.716\H,0,-7.59,-0.057,5.458\C,0,-6.266
 ,-0.99,4.129\O,0,-5.078,-1.085,4.372\O,0,-6.738,-0.783,2.908\H,0,-5.96
 1,-0.669,2.301\H,0,-7.645,-1.887,7.17\H,0,-12.175,3.103,3.721\C,0,-11.
 231,2.576,3.901\H,0,-11.45,1.687,4.505\C,0,-10.556,2.186,2.584\H,0,-11
 .229,1.534,2.009\H,0,-10.381,3.072,1.965\C,0,-9.229,1.447,2.764\H,0,-9
 .35,0.611,3.463\H,0,-8.907,1.019,1.811\S,0,-7.844,2.477,3.38\C,0,-6.85
 7,2.62,1.859\H,0,-7.4,3.189,1.101\H,0,-6.622,1.622,1.476\H,0,-5.911,3.
 125,2.086\H,0,-10.583,3.235,4.49\H,0,-5.904,2.942,6.48\C,0,-5.118,2.18
 1,6.526\H,0,-5.587,1.232,6.813\C,0,-4.403,2.054,5.183\H,0,-3.652,1.256
 ,5.209\H,0,-3.903,2.985,4.905\H,0,-5.109,1.809,4.385\H,0,-4.424,2.465,
 7.327\H,0,-0.803,2.67,10.019\C,0,0.194,2.238,9.881\H,0,0.409,1.581,10.
 731\C,0,0.265,1.475,8.552\H,0,1.251,1.001,8.454\H,0,-0.466,0.657,8.569
 \C,0,-0.003,2.347,7.363\C,0,-1.186,2.45,6.675\H,0,-2.109,1.907,6.826\N
 ,0,-1.092,3.389,5.684\H,0,-1.788,3.658,4.976\C,0,0.17,3.911,5.698\C,0,
 0.735,4.874,4.854\H,0,0.142,5.309,4.055\C,0,2.052,5.228,5.093\H,0,2.53
 ,5.968,4.457\C,0,2.79,4.636,6.14\H,0,3.822,4.938,6.296\C,0,2.224,3.68,
 6.966\H,0,2.804,3.235,7.771\C,0,0.891,3.292,6.748\H,0,0.916,3.063,9.89
 4\H,0,8.556,0.38,9.634\C,0,8.644,0.041,8.596\H,0,7.629,-0.12,8.217\C,0
 ,9.408,1.063,7.752\H,0,10.36,1.294,8.248\H,0,8.842,2.005,7.716\C,0,9.7
 08,0.612,6.314\H,0,10.257,-0.341,6.378\C,0,8.43,0.368,5.508\H,0,7.828,
 1.284,5.446\H,0,8.656,0.051,4.483\H,0,7.807,-0.412,5.953\C,0,10.607,1.
 628,5.604\H,0,10.084,2.583,5.463\H,0,11.52,1.824,6.179\H,0,10.909,1.26
 8,4.613\H,0,9.157,-0.928,8.6\C,0,-3.721,-0.056,0.898\O,0,-4.878,-0.514
 ,1.049\C,0,-2.91,0.343,2.001\C,0,-1.727,0.989,1.806\C,0,-1.1,1.117,0.4
 35\C,0,-1.698,0.123,-0.56\C,0,-3.214,0.145,-0.503\C,0,-1.071,1.701,2.9
 38\C,0,0.458,1.745,2.888\C,0,0.964,2.101,1.489\C,0,0.439,1.026,0.512\C
 ,0,2.481,2.2,1.408\C,0,3.006,2.408,-0.026\C,0,2.598,1.206,-0.877\C,0,1
 .075,1.044,-0.889\C,0,3.201,3.29,2.214\C,0,4.597,3.386,1.537\C,0,4.514
 ,2.508,0.27\C,0,2.518,3.714,-0.678\O,0,5.306,3.055,-0.775\H,0,-3.349,0
 .26,2.991\H,0,-1.355,2.139,0.102\H,0,-1.333,-0.888,-0.328\H,0,-1.37,0.
 357,-1.576\H,0,-3.588,1.127,-0.83\H,0,-3.661,-0.613,-1.156\H,0,-1.422,
 1.295,3.891\H,0,-1.48,2.728,2.889\H,0,0.869,0.768,3.176\H,0,0.816,2.46
 6,3.626\H,0,0.531,3.074,1.212\H,0,0.689,0.049,0.961\H,0,2.886,1.23,1.7
 43\H,0,3.064,0.3,-0.464\H,0,2.951,1.31,-1.911\H,0,0.626,1.845,-1.493\H
 ,0,0.831,0.107,-1.4\H,0,3.258,3.059,3.28\H,0,2.657,4.238,2.135\H,0,5.3
 98,3.042,2.199\H,0,4.841,4.412,1.245\H,0,4.875,1.497,0.504\H,0,2.895,4
 .599,-0.158\H,0,2.872,3.76,-1.713\H,0,1.426,3.782,-0.695\H,0,5.045,2.6
 09,-1.591\\Version=ES64L-G16RevC.01\State=1-A\HF=-7322.2377111\RMSD=3.
 840e-09\Dipole=1.718353,-6.6303332,-1.3384429\Quadrupole=11.7497074,-3
 8.4003163,26.6506089,1.6722172,2.7664033,-18.438025\PG=C01 [X(C123H225
 N6O13S3)]\\@
 The archive entry for this job was punched.


 TIMES HAVE CHANGED. IN THE BIBLE WHEN AN ASS
 SPOKE IT WAS CONSIDERED A MIRACLE.
 Job cpu time:       0 days  4 hours 37 minutes 22.2 seconds.
 Elapsed time:       0 days  0 hours 24 minutes 46.2 seconds.
 File lengths (MBytes):  RWF=   3730 Int=      0 D2E=      0 Chk=    400 Scr=      1
 Normal termination of Gaussian 16 at Wed Aug  7 14:11:06 2024.
