 Entering Gaussian System, Link 0=g16
 Initial command:
 /cm/shared/apps/spack/cpu/opt/spack/linux-centos8-zen/gcc-8.3.1/gaussian-16.C.01-po5bqktfeugvmjyga3v7eigbecnokxng/g16/l1.exe "/scratch/hklem/job_32857449/Gau-139809.inp" -scrdir="/scratch/hklem/job_32857449/"
 Entering Link 1 = /cm/shared/apps/spack/cpu/opt/spack/linux-centos8-zen/gcc-8.3.1/gaussian-16.C.01-po5bqktfeugvmjyga3v7eigbecnokxng/g16/l1.exe PID=    139812.
  
 Copyright (c) 1988-2019, Gaussian, Inc.  All Rights Reserved.
  
 This is part of the Gaussian(R) 16 program.  It is based on
 the Gaussian(R) 09 system (copyright 2009, Gaussian, Inc.),
 the Gaussian(R) 03 system (copyright 2003, Gaussian, Inc.),
 the Gaussian(R) 98 system (copyright 1998, Gaussian, Inc.),
 the Gaussian(R) 94 system (copyright 1995, Gaussian, Inc.),
 the Gaussian 92(TM) system (copyright 1992, Gaussian, Inc.),
 the Gaussian 90(TM) system (copyright 1990, Gaussian, Inc.),
 the Gaussian 88(TM) system (copyright 1988, Gaussian, Inc.),
 the Gaussian 86(TM) system (copyright 1986, Carnegie Mellon
 University), and the Gaussian 82(TM) system (copyright 1983,
 Carnegie Mellon University). Gaussian is a federally registered
 trademark of Gaussian, Inc.
  
 This software contains proprietary and confidential information,
 including trade secrets, belonging to Gaussian, Inc.
  
 This software is provided under written license and may be
 used, copied, transmitted, or stored only in accord with that
 written license.
  
 The following legend is applicable only to US Government
 contracts under FAR:
  
                    RESTRICTED RIGHTS LEGEND
  
 Use, reproduction and disclosure by the US Government is
 subject to restrictions as set forth in subparagraphs (a)
 and (c) of the Commercial Computer Software - Restricted
 Rights clause in FAR 52.227-19.
  
 Gaussian, Inc.
 340 Quinnipiac St., Bldg. 40, Wallingford CT 06492
  
  
 ---------------------------------------------------------------
 Warning -- This program may not be used in any manner that
 competes with the business of Gaussian, Inc. or will provide
 assistance to any competitor of Gaussian, Inc.  The licensee
 of this program is prohibited from giving any competitor of
 Gaussian, Inc. access to this program.  By using this program,
 the user acknowledges that Gaussian, Inc. is engaged in the
 business of creating and licensing software in the field of
 computational chemistry and represents and warrants to the
 licensee that it is not a competitor of Gaussian, Inc. and that
 it will not use this program in any manner prohibited above.
 ---------------------------------------------------------------
  

 Cite this work as:
 Gaussian 16, Revision C.01,
 M. J. Frisch, G. W. Trucks, H. B. Schlegel, G. E. Scuseria, 
 M. A. Robb, J. R. Cheeseman, G. Scalmani, V. Barone, 
 G. A. Petersson, H. Nakatsuji, X. Li, M. Caricato, A. V. Marenich, 
 J. Bloino, B. G. Janesko, R. Gomperts, B. Mennucci, H. P. Hratchian, 
 J. V. Ortiz, A. F. Izmaylov, J. L. Sonnenberg, D. Williams-Young, 
 F. Ding, F. Lipparini, F. Egidi, J. Goings, B. Peng, A. Petrone, 
 T. Henderson, D. Ranasinghe, V. G. Zakrzewski, J. Gao, N. Rega, 
 G. Zheng, W. Liang, M. Hada, M. Ehara, K. Toyota, R. Fukuda, 
 J. Hasegawa, M. Ishida, T. Nakajima, Y. Honda, O. Kitao, H. Nakai, 
 T. Vreven, K. Throssell, J. A. Montgomery, Jr., J. E. Peralta, 
 F. Ogliaro, M. J. Bearpark, J. J. Heyd, E. N. Brothers, K. N. Kudin, 
 V. N. Staroverov, T. A. Keith, R. Kobayashi, J. Normand, 
 K. Raghavachari, A. P. Rendell, J. C. Burant, S. S. Iyengar, 
 J. Tomasi, M. Cossi, J. M. Millam, M. Klene, C. Adamo, R. Cammi, 
 J. W. Ochterski, R. L. Martin, K. Morokuma, O. Farkas, 
 J. B. Foresman, and D. J. Fox, Gaussian, Inc., Wallingford CT, 2019.
 
 ******************************************
 Gaussian 16:  ES64L-G16RevC.01  3-Jul-2019
                 8-Aug-2024 
 ******************************************
 %nprocshared=24
 Will use up to   24 processors via shared memory.
 %mem=48GB
 --------------------------
 # wb97xd 6-31G(d) prop=efg
 --------------------------
 1/38=1,172=1/1;
 2/12=2,17=6,18=5,40=1/2;
 3/5=1,6=6,7=1,11=2,25=1,30=1,74=-58/1,2,3;
 4//1;
 5/5=2,38=5/2;
 6/7=2,8=2,9=2,10=2,14=1,28=1/1,2;
 99/5=1,9=1/99;
 ------------------------------------------------
 19nt_mm_min_distance_cutoff5_nowat_ligand_conf_1
 ------------------------------------------------
 Symbolic Z-matrix:
 Charge =  0 Multiplicity = 1
 C                     2.0211   -1.7691    1.3923 
 O                     3.0601   -2.351     1.7695 
 C                     1.8698   -0.3455    1.4854 
 C                     0.6757    0.261     1.249 
 C                    -0.4966   -0.4786    0.6384 
 C                    -0.0528   -1.7921   -0.0123 
 C                     0.8521   -2.5866    0.9176 
 C                     0.4387    1.6574    1.7074 
 C                    -0.4394    2.4974    0.7834 
 C                    -1.7008    1.7419    0.3732 
 C                    -1.2838    0.4327   -0.3321 
 C                    -2.5863    2.5627   -0.5539 
 C                    -3.824     1.8023   -1.0699 
 C                    -3.3556    0.5735   -1.8486 
 C                    -2.4499   -0.3216   -0.993 
 C                    -3.164     3.8924   -0.0537 
 C                    -4.3007    4.195    -1.0639 
 C                    -4.4597    2.9197   -1.9217 
 C                    -4.794     1.3831    0.0479 
 O                    -5.8218    2.7353   -2.2727 
 H                     2.7051    0.2157    1.8951 
 H                    -1.1691   -0.7105    1.4831 
 H                     0.4818   -1.5691   -0.9465 
 H                    -0.9185   -2.4055   -0.2782 
 H                     0.287    -2.8792    1.8135 
 H                     1.2147   -3.5127    0.4603 
 H                     1.3889    2.1556    1.9117 
 H                    -0.0631    1.5362    2.6897 
 H                     0.1217    2.7669   -0.1217 
 H                    -0.6922    3.4335    1.29 
 H                    -2.2603    1.496     1.2881 
 H                    -0.5889    0.7257   -1.1385 
 H                    -1.9755    2.7908   -1.447 
 H                    -2.8003    0.9002   -2.7387 
 H                    -4.2075   -0.0216   -2.2037 
 H                    -3.051    -0.8272   -0.2251 
 H                    -2.049    -1.1123   -1.6362 
 H                    -2.4188    4.6879   -0.0128 
 H                    -3.5481    3.782     0.9657 
 H                    -4.0673    5.0645   -1.6867 
 H                    -5.2522    4.4036   -0.5648 
 H                    -3.8613    3.021    -2.8448 
 H                    -5.2463    2.245     0.5457 
 H                    -5.6056    0.7734   -0.3624 
 H                    -4.2948    0.7846    0.8146 
 H                    -5.8969    1.8647   -2.6851 
 
                          Input orientation:                          
 ---------------------------------------------------------------------
 Center     Atomic      Atomic             Coordinates (Angstroms)
 Number     Number       Type             X           Y           Z
 ---------------------------------------------------------------------
      1          6           0        2.021100   -1.769100    1.392300
      2          8           0        3.060100   -2.351000    1.769500
      3          6           0        1.869800   -0.345500    1.485400
      4          6           0        0.675700    0.261000    1.249000
      5          6           0       -0.496600   -0.478600    0.638400
      6          6           0       -0.052800   -1.792100   -0.012300
      7          6           0        0.852100   -2.586600    0.917600
      8          6           0        0.438700    1.657400    1.707400
      9          6           0       -0.439400    2.497400    0.783400
     10          6           0       -1.700800    1.741900    0.373200
     11          6           0       -1.283800    0.432700   -0.332100
     12          6           0       -2.586300    2.562700   -0.553900
     13          6           0       -3.824000    1.802300   -1.069900
     14          6           0       -3.355600    0.573500   -1.848600
     15          6           0       -2.449900   -0.321600   -0.993000
     16          6           0       -3.164000    3.892400   -0.053700
     17          6           0       -4.300700    4.195000   -1.063900
     18          6           0       -4.459700    2.919700   -1.921700
     19          6           0       -4.794000    1.383100    0.047900
     20          8           0       -5.821800    2.735300   -2.272700
     21          1           0        2.705100    0.215700    1.895100
     22          1           0       -1.169100   -0.710500    1.483100
     23          1           0        0.481800   -1.569100   -0.946500
     24          1           0       -0.918500   -2.405500   -0.278200
     25          1           0        0.287000   -2.879200    1.813500
     26          1           0        1.214700   -3.512700    0.460300
     27          1           0        1.388900    2.155600    1.911700
     28          1           0       -0.063100    1.536200    2.689700
     29          1           0        0.121700    2.766900   -0.121700
     30          1           0       -0.692200    3.433500    1.290000
     31          1           0       -2.260300    1.496000    1.288100
     32          1           0       -0.588900    0.725700   -1.138500
     33          1           0       -1.975500    2.790800   -1.447000
     34          1           0       -2.800300    0.900200   -2.738700
     35          1           0       -4.207500   -0.021600   -2.203700
     36          1           0       -3.051000   -0.827200   -0.225100
     37          1           0       -2.049000   -1.112300   -1.636200
     38          1           0       -2.418800    4.687900   -0.012800
     39          1           0       -3.548100    3.782000    0.965700
     40          1           0       -4.067300    5.064500   -1.686700
     41          1           0       -5.252200    4.403600   -0.564800
     42          1           0       -3.861300    3.021000   -2.844800
     43          1           0       -5.246300    2.245000    0.545700
     44          1           0       -5.605600    0.773400   -0.362400
     45          1           0       -4.294800    0.784600    0.814600
     46          1           0       -5.896900    1.864700   -2.685100
 ---------------------------------------------------------------------
                    Distance matrix (angstroms):
                    1          2          3          4          5
     1  C    0.000000
     2  O    1.249163   0.000000
     3  C    1.434642   2.349374   0.000000
     4  C    2.439660   3.574749   1.360001   0.000000
     5  C    2.927895   4.175570   2.516937   1.514638   0.000000
     6  C    2.504893   3.630059   2.834104   2.517302   1.531552
     7  C    1.503399   2.378341   2.525993   2.872241   2.518056
     8  C    3.787371   4.789871   2.471627   1.488702   2.565159
     9  C    4.962645   6.060188   3.729248   2.541991   2.980079
    10  C    5.217109   6.431769   4.282921   2.933913   2.539892
    11  C    4.329416   5.570922   3.722109   2.523687   1.546616
    12  C    6.616670   7.837376   5.698526   4.380515   3.877877
    13  C    7.278909   8.526601   6.600149   5.291522   4.380911
    14  C    6.700754   7.924932   6.266173   5.093541   3.932679
    15  C    5.270176   6.489220   4.980246   3.890419   2.549803
    16  C    7.812091   9.002418   6.757793   5.443105   5.167172
    17  C    9.031532  10.249861   8.074041   6.752068   6.261912
    18  C    8.658418   9.897102   7.895089   6.595025   5.814526
    19  C    7.628195   8.865342   7.032830   5.711337   4.720409
    20  O    9.758736  11.004453   9.098096   7.793718   6.867417
    21  H    2.158725   2.594176   1.086520   2.130249   3.508879
    22  H    3.362477   4.545261   3.060742   2.098071   1.104333
    23  H    2.807032   3.825657   3.055794   2.864801   2.158325
    24  H    3.440468   4.474964   3.889537   3.461797   2.175109
    25  H    2.101627   2.823299   3.005419   3.214126   2.785277
    26  H    2.135192   2.543433   3.392807   3.892734   3.487984
    27  H    4.009080   4.808594   2.582343   2.130102   3.480720
    28  H    4.117298   5.070648   2.954190   2.060965   2.907778
    29  H    5.145407   6.197075   3.914800   2.909514   3.390180
    30  H    5.868518   6.911593   4.569777   3.455081   3.970815
    31  H    5.385362   6.583146   4.526342   3.185412   2.726131
    32  H    4.409204   5.589074   3.752003   2.741408   2.148542
    33  H    6.695306   7.882972   5.763825   4.549414   4.150303
    34  H    6.887396   8.077033   6.419083   5.328499   4.314270
    35  H    7.401380   8.604094   7.116737   5.987207   4.696505
    36  H    5.406418   6.606507   5.231837   4.152763   2.718844
    37  H    5.115556   6.263870   5.068467   4.199324   2.825832
    38  H    7.961147   9.096211   6.780251   5.546667   5.550823
    39  H    7.874813   9.051414   6.830811   5.506195   5.250856
    40  H    9.656446  10.850566   8.635941   7.361250   6.991562
    41  H    9.738242  10.962112   8.802281   7.455937   6.920932
    42  H    8.689114   9.902319   7.932809   6.705309   5.975039
    43  H    8.345348   9.571687   7.631029   6.284980   5.475969
    44  H    8.228598   9.455222   7.781254   6.504913   5.354529
    45  H    6.837084   8.052228   6.303126   5.016845   4.006625
    46  H    9.618961  10.855572   9.088437   7.826114   6.760174
                    6          7          8          9         10
     6  C    0.000000
     7  C    1.521443   0.000000
     8  C    3.885613   4.336614   0.000000
     9  C    4.379773   5.247193   1.526576   0.000000
    10  C    3.918376   5.054659   2.522834   1.526491   0.000000
    11  C    2.562688   3.903843   2.937083   2.494060   1.544455
    12  C    5.067172   6.364212   3.883770   2.530181   1.522280
    13  C    5.316030   6.714053   5.089696   3.920893   2.567910
    14  C    4.458312   5.944984   5.311938   4.374133   3.006645
    15  C    2.978293   4.436645   4.421833   3.891589   2.585669
    16  C    6.480341   7.684395   4.590876   3.173359   2.635877
    17  C    7.415921   8.744586   6.048258   4.604780   3.852588
    18  C    6.728123   8.160648   6.225600   4.864023   3.776944
    19  C    5.706531   6.956532   5.496392   4.554686   3.130885
    20  O    7.673860   9.112715   7.496461   6.194076   4.997026
    21  H    3.908382   3.498857   2.692638   4.041029   4.904836
    22  H    2.156897   2.815101   2.870937   3.363430   2.743875
    23  H    1.099207   2.155759   4.177959   4.514154   4.179482
    24  H    1.093800   2.144239   4.721415   5.039341   4.270508
    25  H    2.151928   1.098904   4.540375   5.522372   5.232626
    26  H    2.188692   1.094652   5.374697   6.241934   6.009871
    27  H    4.622187   4.874921   1.092164   2.175447   3.476259
    28  H    4.287014   4.579892   1.109687   2.167830   2.844389
    29  H    4.563650   5.502144   2.162657   1.098485   2.148734
    30  H    5.423257   6.226166   2.146553   1.093999   2.172397
    31  H    4.168417   5.147031   2.736140   2.138504   1.100250
    32  H    2.809813   4.156364   3.165940   2.618200   2.134062
    33  H    5.172824   6.519439   4.130762   2.724036   2.118674
    34  H    4.714922   6.234287   5.552682   4.531014   3.406065
    35  H    5.019804   6.474665   6.301025   5.428324   4.004234
    36  H    3.156821   4.431190   4.699553   4.346319   2.963322
    37  H    2.661577   4.136646   5.003953   4.634135   3.507904
    38  H    6.898431   8.030117   4.506476   3.057818   3.056703
    39  H    6.651631   7.741004   4.578058   3.368597   2.815241
    40  H    8.119901   9.461618   6.590317   5.084590   4.569812
    41  H    8.107140   9.398026   6.714972   5.349232   4.536180
    42  H    6.759709   8.235106   6.408739   5.014718   4.081591
    43  H    6.601665   7.789297   5.832156   4.819387   3.585169
    44  H    6.126822   7.391204   6.449736   5.565488   4.089812
    45  H    5.031671   6.153550   4.895395   4.218858   2.800017
    46  H    7.393886   8.851131   7.712124   6.497315   5.193798
                   11         12         13         14         15
    11  C    0.000000
    12  C    2.506512   0.000000
    13  C    2.978719   1.541546   0.000000
    14  C    2.571372   2.494992   1.528307   0.000000
    15  C    1.538033   2.920719   2.530813   1.534128   0.000000
    16  C    3.947427   1.533636   2.415943   3.778025   4.376074
    17  C    4.877716   2.421502   2.439732   3.824164   4.881615
    18  C    4.335705   2.346903   1.542161   2.594038   3.925278
    19  C    3.656387   2.574405   1.538215   2.514192   3.079656
    20  O    5.446222   3.667768   2.511657   3.306869   4.727788
    21  H    4.573711   6.285294   7.344227   7.132699   5.933282
    22  H    2.148258   4.107513   4.458752   4.186844   2.814740
    23  H    2.738984   5.161312   5.470053   4.486664   3.186422
    24  H    2.862120   5.247912   5.174389   4.156928   2.683051
    25  H    4.247316   6.593536   6.865185   6.212942   4.680639
    26  H    4.736727   7.237865   7.481927   6.551007   5.071932
    27  H    3.891831   4.695437   6.015737   6.257250   5.413888
    28  H    3.440799   4.235703   5.324450   5.688894   4.765555
    29  H    2.732799   2.749865   4.171101   4.459238   4.112314
    30  H    3.462080   2.783141   4.247130   5.012396   4.733115
    31  H    2.170071   2.153390   2.845899   3.448126   2.922847
    32  H    1.104091   2.775956   3.410227   2.860426   2.140404
    33  H    2.698534   1.105773   2.129857   2.642419   3.180913
    34  H    2.882716   2.753734   2.155607   1.098803   2.159408
    35  H    3.501042   3.468247   2.181556   1.098168   2.155215
    36  H    2.172969   3.437365   2.868011   2.165755   1.098464
    37  H    2.161766   3.868551   3.459222   2.143418   1.095278
    38  H    4.415530   2.199391   3.379162   4.601744   5.104591
    39  H    4.246075   2.172771   2.852893   4.272214   4.677829
    40  H    5.571031   3.120192   3.328902   4.549924   5.666328
    41  H    5.618754   3.239761   3.010256   4.462611   5.510332
    42  H    4.433561   2.661557   2.153344   2.690428   4.073596
    43  H    4.444814   2.895799   2.197518   3.478697   4.095716
    44  H    4.335314   3.514888   2.175613   2.703932   3.399283
    45  H    3.241123   2.820178   2.192876   2.831836   2.809760
    46  H    5.372888   3.998661   2.628627   2.970713   4.418701
                   16         17         18         19         20
    16  C    0.000000
    17  C    1.550535   0.000000
    18  C    2.472733   1.545151   0.000000
    19  C    2.993962   3.063695   2.520361   0.000000
    20  O    3.650581   2.430158   1.418633   2.875761   0.000000
    21  H    7.194601   8.583225   8.556514   7.810984   9.819723
    22  H    5.246720   6.352799   5.966495   4.425253   6.901245
    23  H    6.626985   7.490723   6.746759   6.126857   7.747389
    24  H    6.690009   7.458096   6.602950   5.429487   7.378903
    25  H    7.826264   8.909025   8.373179   6.863025   9.248626
    26  H    8.618162   9.599555   8.902163   7.761663   9.798935
    27  H    5.254348   6.736831   7.034552   6.503750   8.357000
    28  H    4.763770   6.254277   6.519906   5.420698   7.695835
    29  H    3.473787   4.741817   4.924690   5.109577   6.320838
    30  H    2.850599   4.375157   4.977255   4.750970   6.284354
    31  H    2.891338   4.120648   4.143320   2.823204   5.186467
    32  H    4.223259   5.081247   4.517757   4.418437   5.719103
    33  H    2.137134   2.743191   2.532431   3.487160   3.934321
    34  H    4.036677   3.988968   2.738517   3.460227   3.565699
    35  H    4.585934   4.368930   2.965531   2.717879   3.195500
    36  H    4.724063   5.242884   4.347660   2.828074   4.955946
    37  H    5.366056   5.793541   4.706380   4.074094   5.426157
    38  H    1.090787   2.211178   3.306917   4.070253   4.527715
    39  H    1.094942   2.203691   3.148278   2.854706   4.092985
    40  H    2.203737   1.094708   2.193028   4.133961   2.974364
    41  H    2.209780   1.094517   2.161294   3.115890   2.454504
    42  H    3.005961   2.177832   1.104743   3.452587   2.062155
    43  H    2.721981   2.699532   2.676196   1.093276   2.918043
    44  H    3.973017   3.728567   2.889828   1.094886   2.746824
    45  H    3.419221   3.893536   3.474648   1.093267   3.958331
    46  H    4.301695   3.256753   1.939420   2.986238   0.966260
                   21         22         23         24         25
    21  H    0.000000
    22  H    4.004624   0.000000
    23  H    4.025328   3.060330   0.000000
    24  H    4.972364   2.457235   1.762677   0.000000
    25  H    3.928393   2.632993   3.061357   2.460250   0.000000
    26  H    4.263908   3.818501   2.508747   2.514322   1.758721
    27  H    2.344327   3.865435   4.781791   5.560880   5.154904
    28  H    3.168287   2.779709   4.812666   5.007708   4.515092
    29  H    4.153319   4.041517   4.428415   5.278279   5.970826
    30  H    4.718266   4.175818   5.604125   6.050156   6.409607
    31  H    5.163605   2.469288   4.680533   4.413097   5.089907
    32  H    4.507024   3.045011   2.539561   3.263919   4.740971
    33  H    6.301491   4.636256   5.029667   5.429998   6.920886
    34  H    7.228421   4.804036   4.481250   4.530219   6.673665
    35  H    8.039932   4.826899   5.095571   4.495337   6.671155
    36  H    6.222184   2.544231   3.681237   2.653565   4.416881
    37  H    6.069195   3.265838   2.662574   2.189648   4.525402
    38  H    7.063640   5.739529   6.959549   7.255182   8.241221
    39  H    7.258429   5.109785   6.966410   6.837195   7.732939
    40  H    9.066728   7.197070   8.077553   8.227984   9.711524
    41  H    9.322459   6.857085   8.288401   8.076320   9.454006
    42  H    8.570529   6.316862   6.598112   6.685388   8.586065
    43  H    8.316472   5.122232   7.041672   6.405920   7.647362
    44  H    8.629894   5.028952   6.548658   5.664045   7.266276
    45  H    7.105612   3.528770   5.608679   4.771829   5.950977
    46  H    9.883918   6.808644   7.449935   6.986576   8.999034
                   26         27         28         29         30
    26  H    0.000000
    27  H    5.853762   0.000000
    28  H    5.665191   1.759899   0.000000
    29  H    6.400527   2.472691   3.074531   0.000000
    30  H    7.250818   2.520023   2.440220   1.760592   0.000000
    31  H    6.152069   3.760400   2.606489   3.045759   2.492558
    32  H    4.875774   3.906408   3.948226   2.388584   3.638745
    33  H    7.317737   4.796200   4.726900   2.480975   3.090484
    34  H    6.769602   6.383702   6.112633   4.344116   5.205009
    35  H    6.977459   7.279863   6.599103   5.554496   6.041605
    36  H    5.087031   5.759837   4.796797   4.795234   5.100297
    37  H    4.561685   5.923337   5.447179   4.696152   5.573854
    38  H    8.981981   4.961333   4.773473   3.186886   2.500391
    39  H    8.726531   5.283376   4.490102   3.959836   2.895304
    40  H   10.299393   7.154041   6.901840   5.027515   4.786669
    41  H   10.273239   7.435776   6.763173   5.635062   5.017467
    42  H    8.909472   7.137073   6.874711   4.831576   5.225890
    43  H    8.654648   6.774941   5.653733   5.434448   4.765117
    44  H    8.097159   7.483651   6.373106   6.069097   5.826496
    45  H    6.996207   5.948757   4.689156   4.930684   4.496821
    46  H    9.454355   8.619633   7.939119   6.603676   6.734349
                   31         32         33         34         35
    31  H    0.000000
    32  H    3.045542   0.000000
    33  H    3.039472   2.506486   0.000000
    34  H    4.106300   2.735211   2.433753   0.000000
    35  H    4.276373   3.845436   3.669334   1.765263   0.000000
    36  H    2.883095   3.050858   3.967325   3.060220   2.429268
    37  H    3.924208   2.399550   3.908374   2.414563   2.484111
    38  H    3.450462   4.507190   2.419180   4.682173   5.493531
    39  H    2.643514   4.746103   3.045763   4.752531   4.994725
    40  H    4.984865   5.587931   3.098838   4.478101   5.114231
    41  H    4.564958   5.966779   3.757148   4.797027   4.833196
    42  H    4.687183   4.346086   2.358618   2.373767   3.128622
    43  H    3.166758   5.180365   3.868706   4.310300   3.711574
    44  H    3.799649   5.076602   4.292305   3.678667   2.444810
    45  H    2.206690   4.189483   3.810358   3.856531   3.125334
    46  H    5.398807   5.644835   4.215202   3.243773   2.577585
                   36         37         38         39         40
    36  H    0.000000
    37  H    1.753992   0.000000
    38  H    5.555275   6.034443   0.000000
    39  H    4.786422   5.742069   1.747408   0.000000
    40  H    6.154776   6.498380   2.379353   2.991588   0.000000
    41  H    5.685239   6.467885   2.900635   2.373347   1.760522
    42  H    4.725257   4.672185   3.588814   3.898349   2.357864
    43  H    3.853815   5.123951   3.778153   2.328659   3.784604
    44  H    3.017740   4.222302   5.059765   3.879282   4.746965
    45  H    2.286026   3.827306   4.409050   3.092701   4.962439
    46  H    4.625697   4.976852   5.216208   4.745655   3.818764
                   41         42         43         44         45
    41  H    0.000000
    42  H    3.007422   0.000000
    43  H    2.427509   3.743780   0.000000
    44  H    3.652973   3.775791   1.766168   0.000000
    45  H    3.989551   4.310524   1.763640   1.761718   0.000000
    46  H    3.370063   2.346530   3.317526   2.582775   3.997654
                   46
    46  H    0.000000
 Stoichiometry    C18H26O2
 Framework group  C1[X(C18H26O2)]
 Deg. of freedom   132
 Full point group                 C1      NOp   1
 Largest Abelian subgroup         C1      NOp   1
 Largest concise Abelian subgroup C1      NOp   1
                         Standard orientation:                         
 ---------------------------------------------------------------------
 Center     Atomic      Atomic             Coordinates (Angstroms)
 Number     Number       Type             X           Y           Z
 ---------------------------------------------------------------------
      1          6           0        4.693341   -0.155209   -0.073725
      2          8           0        5.936389   -0.064927   -0.157924
      3          6           0        3.836151    0.986344   -0.216133
      4          6           0        2.506068    0.917247    0.059016
      5          6           0        1.798576   -0.402002    0.289589
      6          6           0        2.639138   -1.582547   -0.205810
      7          6           0        4.075265   -1.477771    0.285464
      8          6           0        1.717412    2.161812    0.271882
      9          6           0        0.279330    2.106994   -0.237382
     10          6           0       -0.422602    0.827222    0.209438
     11          6           0        0.376940   -0.383811   -0.319214
     12          6           0       -1.857035    0.752567   -0.294711
     13          6           0       -2.572766   -0.567881    0.052437
     14          6           0       -1.801114   -1.725386   -0.580380
     15          6           0       -0.334337   -1.734430   -0.130904
     16          6           0       -2.859468    1.829453    0.138283
     17          6           0       -4.235055    1.199778   -0.201465
     18          6           0       -3.949720   -0.271940   -0.575794
     19          6           0       -2.728830   -0.799414    1.565098
     20          8           0       -5.019297   -1.099730   -0.147670
     21          1           0        4.313396    1.943227   -0.408842
     22          1           0        1.681510   -0.484479    1.384599
     23          1           0        2.624886   -1.599294   -1.304797
     24          1           0        2.213916   -2.531391    0.133719
     25          1           0        4.091003   -1.546075    1.382130
     26          1           0        4.706855   -2.290313   -0.087543
     27          1           0        2.250132    3.022739   -0.137794
     28          1           0        1.717748    2.294971    1.373551
     29          1           0        0.269977    2.150953   -1.334947
     30          1           0       -0.256499    2.991401    0.119754
     31          1           0       -0.421566    0.807348    1.309507
     32          1           0        0.490854   -0.226332   -1.406063
     33          1           0       -1.801570    0.787177   -1.398549
     34          1           0       -1.840990   -1.630575   -1.674359
     35          1           0       -2.254897   -2.692638   -0.326451
     36          1           0       -0.273228   -2.045570    0.920800
     37          1           0        0.192455   -2.502429   -0.707361
     38          1           0       -2.700064    2.782673   -0.367463
     39          1           0       -2.761704    2.032893    1.209708
     40          1           0       -4.729988    1.728314   -1.022486
     41          1           0       -4.920139    1.218764    0.651921
     42          1           0       -3.845067   -0.358394   -1.672166
     43          1           0       -3.381754   -0.056233    2.030527
     44          1           0       -3.161676   -1.786919    1.755500
     45          1           0       -1.766411   -0.762211    2.082397
     46          1           0       -4.741681   -2.016495   -0.274673
 ---------------------------------------------------------------------
 Rotational constants (GHZ):           0.9247888           0.1744890           0.1542958
 Standard basis: 6-31G(d) (6D, 7F)
 There are   352 symmetry adapted cartesian basis functions of A   symmetry.
 There are   352 symmetry adapted basis functions of A   symmetry.
   352 basis functions,   664 primitive gaussians,   352 cartesian basis functions
    75 alpha electrons       75 beta electrons
       nuclear repulsion energy      1663.1739035754 Hartrees.
 NAtoms=   46 NActive=   46 NUniq=   46 SFac= 1.00D+00 NAtFMM=   60 NAOKFM=F Big=F
 Integral buffers will be    131072 words long.
 Raffenetti 2 integral format.
 Two-electron integral symmetry is turned on.
 Nuclear repulsion after empirical dispersion term =     1663.1250591283 Hartrees.
 One-electron integrals computed using PRISM.
 NBasis=   352 RedAO= T EigKep=  1.26D-03  NBF=   352
 NBsUse=   352 1.00D-06 EigRej= -1.00D+00 NBFU=   352
 ExpMin= 1.61D-01 ExpMax= 5.48D+03 ExpMxC= 8.25D+02 IAcc=3 IRadAn=         5 AccDes= 0.00D+00
 Harris functional with IExCor= 4639 and IRadAn=       5 diagonalized for initial guess.
 HarFok:  IExCor= 4639 AccDes= 0.00D+00 IRadAn=         5 IDoV= 1 UseB2=F ITyADJ=14
 ICtDFT=  3500011 ScaDFX=  1.000000  1.000000  1.000000  1.000000
 FoFCou: FMM=F IPFlag=           0 FMFlag=      100000 FMFlg1=           0
         NFxFlg=           0 DoJE=T BraDBF=F KetDBF=T FulRan=T
         wScrn=  0.000000 ICntrl=       500 IOpCl=  0 I1Cent=   200000004 NGrid=           0
         NMat0=    1 NMatS0=      1 NMatT0=    0 NMatD0=    1 NMtDS0=    0 NMtDT0=    0
 Petite list used in FoFCou.
 Requested convergence on RMS density matrix=1.00D-08 within 128 cycles.
 Requested convergence on MAX density matrix=1.00D-06.
 Requested convergence on             energy=1.00D-06.
 No special actions if energy rises.
 Integral accuracy reduced to 1.0D-05 until final iterations.
 Initial convergence to 1.0D-05 achieved.  Increase integral accuracy.
 SCF Done:  E(RwB97XD) =  -851.793170012     A.U. after   15 cycles
            NFock= 15  Conv=0.62D-08     -V/T= 2.0093

 **********************************************************************

            Population analysis using the SCF Density.

 **********************************************************************

 Orbital symmetries:
       Occupied  (A) (A) (A) (A) (A) (A) (A) (A) (A) (A) (A) (A)
                 (A) (A) (A) (A) (A) (A) (A) (A) (A) (A) (A) (A)
                 (A) (A) (A) (A) (A) (A) (A) (A) (A) (A) (A) (A)
                 (A) (A) (A) (A) (A) (A) (A) (A) (A) (A) (A) (A)
                 (A) (A) (A) (A) (A) (A) (A) (A) (A) (A) (A) (A)
                 (A) (A) (A) (A) (A) (A) (A) (A) (A) (A) (A) (A)
                 (A) (A) (A)
       Virtual   (A) (A) (A) (A) (A) (A) (A) (A) (A) (A) (A) (A)
                 (A) (A) (A) (A) (A) (A) (A) (A) (A) (A) (A) (A)
                 (A) (A) (A) (A) (A) (A) (A) (A) (A) (A) (A) (A)
                 (A) (A) (A) (A) (A) (A) (A) (A) (A) (A) (A) (A)
                 (A) (A) (A) (A) (A) (A) (A) (A) (A) (A) (A) (A)
                 (A) (A) (A) (A) (A) (A) (A) (A) (A) (A) (A) (A)
                 (A) (A) (A) (A) (A) (A) (A) (A) (A) (A) (A) (A)
                 (A) (A) (A) (A) (A) (A) (A) (A) (A) (A) (A) (A)
                 (A) (A) (A) (A) (A) (A) (A) (A) (A) (A) (A) (A)
                 (A) (A) (A) (A) (A) (A) (A) (A) (A) (A) (A) (A)
                 (A) (A) (A) (A) (A) (A) (A) (A) (A) (A) (A) (A)
                 (A) (A) (A) (A) (A) (A) (A) (A) (A) (A) (A) (A)
                 (A) (A) (A) (A) (A) (A) (A) (A) (A) (A) (A) (A)
                 (A) (A) (A) (A) (A) (A) (A) (A) (A) (A) (A) (A)
                 (A) (A) (A) (A) (A) (A) (A) (A) (A) (A) (A) (A)
                 (A) (A) (A) (A) (A) (A) (A) (A) (A) (A) (A) (A)
                 (A) (A) (A) (A) (A) (A) (A) (A) (A) (A) (A) (A)
                 (A) (A) (A) (A) (A) (A) (A) (A) (A) (A) (A) (A)
                 (A) (A) (A) (A) (A) (A) (A) (A) (A) (A) (A) (A)
                 (A) (A) (A) (A) (A) (A) (A) (A) (A) (A) (A) (A)
                 (A) (A) (A) (A) (A) (A) (A) (A) (A) (A) (A) (A)
                 (A) (A) (A) (A) (A) (A) (A) (A) (A) (A) (A) (A)
                 (A) (A) (A) (A) (A) (A) (A) (A) (A) (A) (A) (A)
                 (A)
 The electronic state is 1-A.
 Alpha  occ. eigenvalues --  -19.26764 -19.23384 -10.36822 -10.34271 -10.33244
 Alpha  occ. eigenvalues --  -10.31848 -10.31160 -10.30998 -10.30587 -10.30436
 Alpha  occ. eigenvalues --  -10.30345 -10.30305 -10.30178 -10.30056 -10.30047
 Alpha  occ. eigenvalues --  -10.29583 -10.29502 -10.29452 -10.29076 -10.28757
 Alpha  occ. eigenvalues --   -1.12095  -1.10128  -0.98216  -0.95702  -0.90891
 Alpha  occ. eigenvalues --   -0.90287  -0.87324  -0.84434  -0.82606  -0.81515
 Alpha  occ. eigenvalues --   -0.77891  -0.77441  -0.73815  -0.72175  -0.69685
 Alpha  occ. eigenvalues --   -0.67749  -0.65469  -0.65296  -0.62971  -0.60894
 Alpha  occ. eigenvalues --   -0.60020  -0.58139  -0.57013  -0.55608  -0.55381
 Alpha  occ. eigenvalues --   -0.54257  -0.53457  -0.52835  -0.51963  -0.50732
 Alpha  occ. eigenvalues --   -0.50134  -0.49747  -0.48759  -0.47886  -0.47643
 Alpha  occ. eigenvalues --   -0.46795  -0.46604  -0.46493  -0.45267  -0.44586
 Alpha  occ. eigenvalues --   -0.44078  -0.43546  -0.42996  -0.42427  -0.41981
 Alpha  occ. eigenvalues --   -0.41348  -0.40860  -0.40194  -0.39396  -0.38712
 Alpha  occ. eigenvalues --   -0.37444  -0.36548  -0.34106  -0.32532  -0.30874
 Alpha virt. eigenvalues --    0.02290   0.13234   0.14078   0.14974   0.16421
 Alpha virt. eigenvalues --    0.16908   0.17488   0.18537   0.19172   0.20198
 Alpha virt. eigenvalues --    0.20409   0.20806   0.22072   0.22771   0.23318
 Alpha virt. eigenvalues --    0.23680   0.23802   0.24597   0.24986   0.25113
 Alpha virt. eigenvalues --    0.25191   0.26004   0.26410   0.26802   0.26843
 Alpha virt. eigenvalues --    0.27474   0.28352   0.28905   0.29393   0.30246
 Alpha virt. eigenvalues --    0.30628   0.31069   0.31534   0.32190   0.33325
 Alpha virt. eigenvalues --    0.33479   0.34058   0.34968   0.35649   0.36159
 Alpha virt. eigenvalues --    0.36630   0.37139   0.38684   0.38889   0.40519
 Alpha virt. eigenvalues --    0.41758   0.41972   0.44743   0.45580   0.49496
 Alpha virt. eigenvalues --    0.52013   0.57691   0.58459   0.59333   0.60178
 Alpha virt. eigenvalues --    0.61230   0.61369   0.62138   0.62587   0.65108
 Alpha virt. eigenvalues --    0.65638   0.66027   0.66508   0.68073   0.69268
 Alpha virt. eigenvalues --    0.70353   0.70658   0.72222   0.72755   0.73122
 Alpha virt. eigenvalues --    0.73495   0.74265   0.75066   0.75564   0.76283
 Alpha virt. eigenvalues --    0.77537   0.77602   0.78517   0.79643   0.81160
 Alpha virt. eigenvalues --    0.82559   0.82840   0.84238   0.84679   0.85683
 Alpha virt. eigenvalues --    0.86122   0.87073   0.88749   0.89791   0.90254
 Alpha virt. eigenvalues --    0.91089   0.92899   0.93224   0.93970   0.94700
 Alpha virt. eigenvalues --    0.94827   0.95643   0.95840   0.96545   0.96909
 Alpha virt. eigenvalues --    0.97234   0.97573   0.97737   0.98619   0.98809
 Alpha virt. eigenvalues --    0.99135   1.00331   1.00588   1.00958   1.02317
 Alpha virt. eigenvalues --    1.02936   1.03293   1.03865   1.04241   1.04552
 Alpha virt. eigenvalues --    1.05402   1.05878   1.06409   1.06993   1.07837
 Alpha virt. eigenvalues --    1.08530   1.10107   1.10554   1.11687   1.12889
 Alpha virt. eigenvalues --    1.14036   1.14817   1.16543   1.19469   1.20144
 Alpha virt. eigenvalues --    1.21542   1.22794   1.25656   1.26871   1.27561
 Alpha virt. eigenvalues --    1.29638   1.30706   1.34308   1.35635   1.37926
 Alpha virt. eigenvalues --    1.39383   1.42022   1.43744   1.47535   1.48696
 Alpha virt. eigenvalues --    1.49711   1.52485   1.53210   1.55186   1.58768
 Alpha virt. eigenvalues --    1.59967   1.62294   1.64956   1.66162   1.66438
 Alpha virt. eigenvalues --    1.70141   1.70661   1.72677   1.74568   1.76102
 Alpha virt. eigenvalues --    1.77499   1.78577   1.79786   1.81431   1.83013
 Alpha virt. eigenvalues --    1.84174   1.85867   1.86860   1.87767   1.88221
 Alpha virt. eigenvalues --    1.89693   1.91839   1.93498   1.94266   1.95155
 Alpha virt. eigenvalues --    1.95791   1.96477   1.97383   1.98812   1.99199
 Alpha virt. eigenvalues --    2.00010   2.01207   2.01351   2.02126   2.03573
 Alpha virt. eigenvalues --    2.04529   2.04892   2.05817   2.06800   2.07900
 Alpha virt. eigenvalues --    2.08795   2.09588   2.09969   2.10623   2.11950
 Alpha virt. eigenvalues --    2.12543   2.14038   2.14739   2.15738   2.18519
 Alpha virt. eigenvalues --    2.18876   2.19776   2.20798   2.22296   2.25225
 Alpha virt. eigenvalues --    2.25975   2.28016   2.29508   2.30407   2.33384
 Alpha virt. eigenvalues --    2.34171   2.35810   2.36554   2.38516   2.39876
 Alpha virt. eigenvalues --    2.40580   2.41648   2.42283   2.45045   2.45675
 Alpha virt. eigenvalues --    2.47586   2.48909   2.50203   2.51094   2.52301
 Alpha virt. eigenvalues --    2.54379   2.57173   2.57960   2.61252   2.62021
 Alpha virt. eigenvalues --    2.62932   2.63043   2.65062   2.65701   2.67004
 Alpha virt. eigenvalues --    2.68160   2.70910   2.71658   2.74808   2.76081
 Alpha virt. eigenvalues --    2.78532   2.79201   2.81043   2.82787   2.83809
 Alpha virt. eigenvalues --    2.86661   2.89781   2.93224   2.97649   2.98533
 Alpha virt. eigenvalues --    3.00192   3.02007   3.07013   3.07962   3.09889
 Alpha virt. eigenvalues --    3.20280   3.26586   4.00310   4.07554   4.24100
 Alpha virt. eigenvalues --    4.26699   4.30618   4.33805   4.35491   4.38370
 Alpha virt. eigenvalues --    4.41970   4.42286   4.47745   4.53702   4.55678
 Alpha virt. eigenvalues --    4.64842   4.66684   4.74127   4.77018   4.80927
 Alpha virt. eigenvalues --    4.85487   4.90340
          Condensed to atoms (all electrons):
               1          2          3          4          5          6
     1  C    4.433703   0.521260   0.375558  -0.003767  -0.021181  -0.025638
     2  O    0.521260   8.120197  -0.060572   0.005010   0.000280   0.002914
     3  C    0.375558  -0.060572   5.278525   0.522160  -0.044396   0.007094
     4  C   -0.003767   0.005010   0.522160   4.875459   0.376720  -0.046823
     5  C   -0.021181   0.000280  -0.044396   0.376720   5.088738   0.350989
     6  C   -0.025638   0.002914   0.007094  -0.046823   0.350989   5.148589
     7  C    0.341369  -0.077816  -0.131682   0.003095  -0.035775   0.282965
     8  C    0.003737  -0.000096  -0.036103   0.360591  -0.066539   0.004956
     9  C   -0.000136   0.000000   0.002618  -0.034982  -0.010816  -0.000257
    10  C   -0.000014   0.000000   0.000470  -0.014189  -0.037242   0.003874
    11  C   -0.000133   0.000000   0.002672  -0.032151   0.365416  -0.046678
    12  C   -0.000000   0.000000   0.000003   0.000219   0.003700  -0.000124
    13  C   -0.000000   0.000000   0.000000   0.000002   0.000079  -0.000003
    14  C    0.000000  -0.000000   0.000001  -0.000087   0.003653   0.000213
    15  C   -0.000003  -0.000000  -0.000099   0.004260  -0.042273  -0.004422
    16  C   -0.000000  -0.000000  -0.000000  -0.000002  -0.000100   0.000001
    17  C   -0.000000  -0.000000  -0.000000   0.000000   0.000001  -0.000000
    18  C    0.000000  -0.000000  -0.000000  -0.000000   0.000004   0.000000
    19  C   -0.000000   0.000000   0.000000   0.000000   0.000034   0.000000
    20  O   -0.000000   0.000000   0.000000   0.000000  -0.000000   0.000000
    21  H   -0.029170   0.000788   0.360568  -0.045008   0.004574  -0.000430
    22  H    0.000836   0.000010  -0.003192  -0.043883   0.364777  -0.034401
    23  H   -0.003065   0.000053   0.003758  -0.004352  -0.043044   0.384690
    24  H    0.003441  -0.000069  -0.000320   0.004493  -0.029521   0.376116
    25  H   -0.028023  -0.000751   0.001927  -0.001468  -0.003605  -0.038650
    26  H   -0.024578   0.002714   0.005028  -0.000146   0.003972  -0.029461
    27  H    0.000252  -0.000001  -0.002518  -0.039841   0.004179  -0.000141
    28  H   -0.000107   0.000006  -0.007921  -0.041189   0.000106   0.000130
    29  H   -0.000000  -0.000000  -0.000144  -0.003046   0.000402   0.000008
    30  H    0.000001  -0.000000  -0.000081   0.004215  -0.000025   0.000010
    31  H    0.000003   0.000000  -0.000171  -0.003442  -0.002130   0.000133
    32  H    0.000041  -0.000000   0.000104  -0.003334  -0.043516  -0.004522
    33  H    0.000000   0.000000  -0.000002  -0.000071   0.000162   0.000001
    34  H    0.000000   0.000000  -0.000000   0.000003   0.000044  -0.000027
    35  H   -0.000000  -0.000000  -0.000000   0.000001  -0.000105   0.000003
    36  H    0.000001  -0.000000  -0.000006   0.000158  -0.003009  -0.001801
    37  H   -0.000011  -0.000000   0.000017  -0.000142  -0.006704   0.003177
    38  H    0.000000  -0.000000   0.000000  -0.000001   0.000001  -0.000000
    39  H    0.000000  -0.000000  -0.000000  -0.000001   0.000001   0.000000
    40  H    0.000000  -0.000000   0.000000   0.000000  -0.000000   0.000000
    41  H    0.000000  -0.000000   0.000000  -0.000000  -0.000000   0.000000
    42  H    0.000000  -0.000000  -0.000000   0.000000  -0.000000   0.000000
    43  H   -0.000000   0.000000   0.000000   0.000000  -0.000002  -0.000000
    44  H    0.000000   0.000000  -0.000000  -0.000000  -0.000003   0.000000
    45  H    0.000000  -0.000000  -0.000000   0.000000   0.000037   0.000002
    46  H   -0.000000   0.000000  -0.000000   0.000000  -0.000000   0.000000
               7          8          9         10         11         12
     1  C    0.341369   0.003737  -0.000136  -0.000014  -0.000133  -0.000000
     2  O   -0.077816  -0.000096   0.000000   0.000000   0.000000   0.000000
     3  C   -0.131682  -0.036103   0.002618   0.000470   0.002672   0.000003
     4  C    0.003095   0.360591  -0.034982  -0.014189  -0.032151   0.000219
     5  C   -0.035775  -0.066539  -0.010816  -0.037242   0.365416   0.003700
     6  C    0.282965   0.004956  -0.000257   0.003874  -0.046678  -0.000124
     7  C    5.350804  -0.000137   0.000039  -0.000089   0.004351   0.000002
     8  C   -0.000137   5.151564   0.335468  -0.042548  -0.014939   0.003891
     9  C    0.000039   0.335468   5.099911   0.369661  -0.043567  -0.043031
    10  C   -0.000089  -0.042548   0.369661   5.017047   0.371316   0.365101
    11  C    0.004351  -0.014939  -0.043567   0.371316   5.040476  -0.038067
    12  C    0.000002   0.003891  -0.043031   0.365101  -0.038067   5.108735
    13  C    0.000000  -0.000126   0.004272  -0.025821  -0.011845   0.345571
    14  C   -0.000003  -0.000011  -0.000043  -0.011381  -0.038529  -0.048902
    15  C    0.000245   0.000332   0.004254  -0.038895   0.366395  -0.017218
    16  C   -0.000000   0.000066  -0.003402  -0.033693   0.004177   0.361279
    17  C    0.000000  -0.000000   0.000095   0.004119  -0.000161  -0.060572
    18  C   -0.000000   0.000001  -0.000112   0.004028   0.000121  -0.062857
    19  C    0.000000   0.000000   0.000137  -0.005655  -0.002095  -0.057202
    20  O    0.000000  -0.000000   0.000000  -0.000065  -0.000002   0.003762
    21  H    0.006194  -0.007325   0.000230  -0.000001  -0.000076   0.000000
    22  H   -0.004865   0.000570  -0.000661  -0.005597  -0.043509   0.000029
    23  H   -0.040152  -0.000017  -0.000036   0.000130  -0.003098  -0.000001
    24  H   -0.030406  -0.000105  -0.000006  -0.000074  -0.007789  -0.000002
    25  H    0.367447  -0.000034  -0.000002   0.000002   0.000022   0.000000
    26  H    0.369059   0.000007   0.000000   0.000001  -0.000060  -0.000000
    27  H    0.000010   0.379345  -0.030627   0.004005  -0.000131  -0.000104
    28  H   -0.000092   0.377925  -0.039926  -0.004067  -0.000897  -0.000024
    29  H   -0.000003  -0.035943   0.379497  -0.039788  -0.008073  -0.004811
    30  H   -0.000000  -0.032159   0.378884  -0.031820   0.004877  -0.006396
    31  H   -0.000009   0.000096  -0.048129   0.379061  -0.048646  -0.042007
    32  H   -0.000126  -0.000187  -0.006495  -0.048355   0.375765  -0.004295
    33  H   -0.000000   0.000097  -0.006554  -0.046298  -0.006200   0.381100
    34  H   -0.000000   0.000000  -0.000032  -0.000365  -0.003670  -0.006030
    35  H   -0.000000  -0.000000   0.000010  -0.000119   0.004162   0.006379
    36  H   -0.000073  -0.000013  -0.000015  -0.003349  -0.042783  -0.000353
    37  H    0.000101  -0.000010  -0.000121   0.004143  -0.030154   0.000119
    38  H    0.000000  -0.000010   0.001389  -0.001566  -0.000075  -0.026586
    39  H   -0.000000  -0.000028  -0.000589  -0.004082   0.000068  -0.038907
    40  H   -0.000000  -0.000000  -0.000005  -0.000061   0.000003   0.001485
    41  H   -0.000000  -0.000000   0.000002  -0.000131   0.000002   0.003326
    42  H   -0.000000  -0.000000   0.000008  -0.000263  -0.000008  -0.002469
    43  H    0.000000  -0.000000  -0.000019  -0.000054   0.000026  -0.004002
    44  H    0.000000  -0.000000   0.000000  -0.000026   0.000071   0.005538
    45  H   -0.000000   0.000009  -0.000039   0.001927  -0.000417  -0.006135
    46  H    0.000000   0.000000   0.000000  -0.000003   0.000001   0.000340
              13         14         15         16         17         18
     1  C   -0.000000   0.000000  -0.000003  -0.000000  -0.000000   0.000000
     2  O    0.000000  -0.000000  -0.000000  -0.000000  -0.000000  -0.000000
     3  C    0.000000   0.000001  -0.000099  -0.000000  -0.000000  -0.000000
     4  C    0.000002  -0.000087   0.004260  -0.000002   0.000000  -0.000000
     5  C    0.000079   0.003653  -0.042273  -0.000100   0.000001   0.000004
     6  C   -0.000003   0.000213  -0.004422   0.000001  -0.000000   0.000000
     7  C    0.000000  -0.000003   0.000245  -0.000000   0.000000  -0.000000
     8  C   -0.000126  -0.000011   0.000332   0.000066  -0.000000   0.000001
     9  C    0.004272  -0.000043   0.004254  -0.003402   0.000095  -0.000112
    10  C   -0.025821  -0.011381  -0.038895  -0.033693   0.004119   0.004028
    11  C   -0.011845  -0.038529   0.366395   0.004177  -0.000161   0.000121
    12  C    0.345571  -0.048902  -0.017218   0.361279  -0.060572  -0.062857
    13  C    5.114203   0.373747  -0.037110  -0.058973  -0.061553   0.366550
    14  C    0.373747   5.125483   0.353333   0.005833   0.006574  -0.043683
    15  C   -0.037110   0.353333   5.092492   0.000224  -0.000223   0.004191
    16  C   -0.058973   0.005833   0.000224   5.109799   0.339294  -0.062083
    17  C   -0.061553   0.006574  -0.000223   0.339294   5.167037   0.359140
    18  C    0.366550  -0.043683   0.004191  -0.062083   0.359140   4.809081
    19  C    0.339701  -0.069555  -0.003006  -0.003199  -0.010831  -0.054943
    20  O   -0.050620  -0.000202   0.000019   0.002182  -0.045836   0.249463
    21  H   -0.000000  -0.000000   0.000002  -0.000000  -0.000000  -0.000000
    22  H   -0.000031   0.000017  -0.006233  -0.000001   0.000000  -0.000000
    23  H   -0.000001  -0.000059  -0.001951   0.000000   0.000000  -0.000000
    24  H   -0.000003   0.000069   0.003566  -0.000000   0.000000   0.000000
    25  H   -0.000000  -0.000000  -0.000028   0.000000   0.000000  -0.000000
    26  H   -0.000000  -0.000000  -0.000000   0.000000  -0.000000   0.000000
    27  H    0.000001  -0.000000   0.000009  -0.000001  -0.000000  -0.000000
    28  H    0.000003   0.000000  -0.000013  -0.000009  -0.000000  -0.000000
    29  H    0.000015  -0.000007   0.000066  -0.000501  -0.000022  -0.000005
    30  H    0.000009  -0.000004  -0.000124   0.003547  -0.000003  -0.000007
    31  H   -0.008045   0.000351  -0.002545  -0.004120  -0.000014   0.000045
    32  H   -0.001230  -0.000574  -0.046158  -0.000051   0.000004  -0.000067
    33  H   -0.055079  -0.006140  -0.000924  -0.044525  -0.002309  -0.002446
    34  H   -0.038503   0.376799  -0.036857   0.000010   0.000085  -0.005705
    35  H   -0.035619   0.369905  -0.033586  -0.000214  -0.000031  -0.003115
    36  H   -0.007124  -0.034923   0.380243  -0.000016   0.000002  -0.000044
    37  H    0.004633  -0.034013   0.380786   0.000008   0.000003  -0.000075
    38  H    0.005363  -0.000139  -0.000004   0.378598  -0.027792   0.002543
    39  H   -0.005716   0.000011  -0.000019   0.384522  -0.032491   0.001952
    40  H    0.003931  -0.000135   0.000003  -0.031063   0.378588  -0.026561
    41  H   -0.003326  -0.000121   0.000003  -0.025945   0.372126  -0.031875
    42  H   -0.069148  -0.010020   0.000095   0.003366  -0.050066   0.387600
    43  H   -0.029078   0.004715   0.000020   0.001676   0.003554  -0.005942
    44  H   -0.029404  -0.005472  -0.000428  -0.000179   0.000023  -0.005802
    45  H   -0.032846  -0.004821   0.001870  -0.000131  -0.000271   0.005078
    46  H   -0.005454   0.002590  -0.000074  -0.000332   0.007099  -0.028002
              19         20         21         22         23         24
     1  C   -0.000000  -0.000000  -0.029170   0.000836  -0.003065   0.003441
     2  O    0.000000   0.000000   0.000788   0.000010   0.000053  -0.000069
     3  C    0.000000   0.000000   0.360568  -0.003192   0.003758  -0.000320
     4  C    0.000000   0.000000  -0.045008  -0.043883  -0.004352   0.004493
     5  C    0.000034  -0.000000   0.004574   0.364777  -0.043044  -0.029521
     6  C    0.000000   0.000000  -0.000430  -0.034401   0.384690   0.376116
     7  C    0.000000   0.000000   0.006194  -0.004865  -0.040152  -0.030406
     8  C    0.000000  -0.000000  -0.007325   0.000570  -0.000017  -0.000105
     9  C    0.000137   0.000000   0.000230  -0.000661  -0.000036  -0.000006
    10  C   -0.005655  -0.000065  -0.000001  -0.005597   0.000130  -0.000074
    11  C   -0.002095  -0.000002  -0.000076  -0.043509  -0.003098  -0.007789
    12  C   -0.057202   0.003762   0.000000   0.000029  -0.000001  -0.000002
    13  C    0.339701  -0.050620  -0.000000  -0.000031  -0.000001  -0.000003
    14  C   -0.069555  -0.000202  -0.000000   0.000017  -0.000059   0.000069
    15  C   -0.003006   0.000019   0.000002  -0.006233  -0.001951   0.003566
    16  C   -0.003199   0.002182  -0.000000  -0.000001   0.000000  -0.000000
    17  C   -0.010831  -0.045836  -0.000000   0.000000   0.000000   0.000000
    18  C   -0.054943   0.249463  -0.000000  -0.000000  -0.000000   0.000000
    19  C    5.210808   0.005185   0.000000  -0.000045  -0.000000  -0.000001
    20  O    0.005185   8.277955   0.000000  -0.000000  -0.000000   0.000000
    21  H    0.000000   0.000000   0.531516  -0.000203  -0.000082   0.000012
    22  H   -0.000045  -0.000000  -0.000203   0.591634   0.005445  -0.003525
    23  H   -0.000000  -0.000000  -0.000082   0.005445   0.558631  -0.031216
    24  H   -0.000001   0.000000   0.000012  -0.003525  -0.031216   0.552964
    25  H   -0.000000   0.000000  -0.000164   0.004822   0.005000  -0.004744
    26  H    0.000000  -0.000000  -0.000096  -0.000166  -0.003139  -0.002346
    27  H    0.000000   0.000000   0.005285  -0.000102   0.000000   0.000002
    28  H   -0.000003   0.000000   0.000149   0.001907   0.000003   0.000008
    29  H   -0.000002   0.000000  -0.000007   0.000093  -0.000004   0.000001
    30  H   -0.000004  -0.000000  -0.000008  -0.000012   0.000000   0.000000
    31  H    0.002129  -0.000001  -0.000001   0.005681   0.000007   0.000001
    32  H    0.000059   0.000000  -0.000021   0.006153   0.005137   0.000070
    33  H    0.006537   0.000056  -0.000000   0.000003  -0.000002  -0.000000
    34  H    0.006125  -0.000082  -0.000000   0.000003   0.000004   0.000009
    35  H   -0.006660   0.001236   0.000000  -0.000001   0.000000   0.000004
    36  H    0.002971  -0.000002  -0.000000   0.004946   0.000195   0.001231
    37  H    0.000008   0.000000   0.000000   0.000006   0.001098   0.000202
    38  H    0.000096  -0.000033  -0.000000   0.000000   0.000000  -0.000000
    39  H    0.002405  -0.000011   0.000000  -0.000001  -0.000000  -0.000000
    40  H    0.000165   0.001776   0.000000  -0.000000  -0.000000  -0.000000
    41  H    0.001566   0.002953  -0.000000  -0.000000   0.000000   0.000000
    42  H    0.007736  -0.041208   0.000000  -0.000000   0.000000   0.000000
    43  H    0.380544   0.000107   0.000000   0.000001   0.000000   0.000000
    44  H    0.374875   0.005332   0.000000   0.000001   0.000000   0.000000
    45  H    0.374449   0.000342  -0.000000   0.000058   0.000000  -0.000001
    46  H   -0.001228   0.242394   0.000000  -0.000000   0.000000   0.000000
              25         26         27         28         29         30
     1  C   -0.028023  -0.024578   0.000252  -0.000107  -0.000000   0.000001
     2  O   -0.000751   0.002714  -0.000001   0.000006  -0.000000  -0.000000
     3  C    0.001927   0.005028  -0.002518  -0.007921  -0.000144  -0.000081
     4  C   -0.001468  -0.000146  -0.039841  -0.041189  -0.003046   0.004215
     5  C   -0.003605   0.003972   0.004179   0.000106   0.000402  -0.000025
     6  C   -0.038650  -0.029461  -0.000141   0.000130   0.000008   0.000010
     7  C    0.367447   0.369059   0.000010  -0.000092  -0.000003  -0.000000
     8  C   -0.000034   0.000007   0.379345   0.377925  -0.035943  -0.032159
     9  C   -0.000002   0.000000  -0.030627  -0.039926   0.379497   0.378884
    10  C    0.000002   0.000001   0.004005  -0.004067  -0.039788  -0.031820
    11  C    0.000022  -0.000060  -0.000131  -0.000897  -0.008073   0.004877
    12  C    0.000000  -0.000000  -0.000104  -0.000024  -0.004811  -0.006396
    13  C   -0.000000  -0.000000   0.000001   0.000003   0.000015   0.000009
    14  C   -0.000000  -0.000000  -0.000000   0.000000  -0.000007  -0.000004
    15  C   -0.000028  -0.000000   0.000009  -0.000013   0.000066  -0.000124
    16  C    0.000000   0.000000  -0.000001  -0.000009  -0.000501   0.003547
    17  C    0.000000  -0.000000  -0.000000  -0.000000  -0.000022  -0.000003
    18  C   -0.000000   0.000000  -0.000000  -0.000000  -0.000005  -0.000007
    19  C   -0.000000   0.000000   0.000000  -0.000003  -0.000002  -0.000004
    20  O    0.000000  -0.000000   0.000000   0.000000   0.000000  -0.000000
    21  H   -0.000164  -0.000096   0.005285   0.000149  -0.000007  -0.000008
    22  H    0.004822  -0.000166  -0.000102   0.001907   0.000093  -0.000012
    23  H    0.005000  -0.003139   0.000000   0.000003  -0.000004   0.000000
    24  H   -0.004744  -0.002346   0.000002   0.000008   0.000001   0.000000
    25  H    0.535241  -0.021915  -0.000000   0.000011   0.000000   0.000000
    26  H   -0.021915   0.504536   0.000000  -0.000001  -0.000000   0.000000
    27  H   -0.000000   0.000000   0.529153  -0.025662  -0.003284  -0.001643
    28  H    0.000011  -0.000001  -0.025662   0.554940   0.004844  -0.005114
    29  H    0.000000  -0.000000  -0.003284   0.004844   0.566701  -0.031140
    30  H    0.000000   0.000000  -0.001643  -0.005114  -0.031140   0.551907
    31  H   -0.000001  -0.000000   0.000008   0.004262   0.005664  -0.003120
    32  H    0.000009  -0.000002  -0.000060   0.000141   0.006174   0.000072
    33  H   -0.000000   0.000000   0.000003   0.000003   0.005179  -0.000059
    34  H    0.000000   0.000000  -0.000000  -0.000000  -0.000008   0.000001
    35  H    0.000000   0.000000   0.000000  -0.000000   0.000000  -0.000000
    36  H    0.000006   0.000001  -0.000000  -0.000001  -0.000000   0.000003
    37  H    0.000009   0.000001  -0.000000   0.000000  -0.000004   0.000002
    38  H    0.000000  -0.000000   0.000001   0.000004   0.000272   0.000680
    39  H   -0.000000   0.000000   0.000001  -0.000001   0.000068   0.000509
    40  H    0.000000   0.000000   0.000000   0.000000  -0.000000   0.000002
    41  H   -0.000000   0.000000   0.000000   0.000000  -0.000000   0.000001
    42  H   -0.000000   0.000000   0.000000  -0.000000  -0.000003  -0.000000
    43  H    0.000000   0.000000  -0.000000   0.000000   0.000000   0.000000
    44  H    0.000000  -0.000000   0.000000   0.000000   0.000000  -0.000000
    45  H    0.000000   0.000000  -0.000000  -0.000004  -0.000001   0.000002
    46  H   -0.000000   0.000000   0.000000   0.000000   0.000000   0.000000
              31         32         33         34         35         36
     1  C    0.000003   0.000041   0.000000   0.000000  -0.000000   0.000001
     2  O    0.000000  -0.000000   0.000000   0.000000  -0.000000  -0.000000
     3  C   -0.000171   0.000104  -0.000002  -0.000000  -0.000000  -0.000006
     4  C   -0.003442  -0.003334  -0.000071   0.000003   0.000001   0.000158
     5  C   -0.002130  -0.043516   0.000162   0.000044  -0.000105  -0.003009
     6  C    0.000133  -0.004522   0.000001  -0.000027   0.000003  -0.001801
     7  C   -0.000009  -0.000126  -0.000000  -0.000000  -0.000000  -0.000073
     8  C    0.000096  -0.000187   0.000097   0.000000  -0.000000  -0.000013
     9  C   -0.048129  -0.006495  -0.006554  -0.000032   0.000010  -0.000015
    10  C    0.379061  -0.048355  -0.046298  -0.000365  -0.000119  -0.003349
    11  C   -0.048646   0.375765  -0.006200  -0.003670   0.004162  -0.042783
    12  C   -0.042007  -0.004295   0.381100  -0.006030   0.006379  -0.000353
    13  C   -0.008045  -0.001230  -0.055079  -0.038503  -0.035619  -0.007124
    14  C    0.000351  -0.000574  -0.006140   0.376799   0.369905  -0.034923
    15  C   -0.002545  -0.046158  -0.000924  -0.036857  -0.033586   0.380243
    16  C   -0.004120  -0.000051  -0.044525   0.000010  -0.000214  -0.000016
    17  C   -0.000014   0.000004  -0.002309   0.000085  -0.000031   0.000002
    18  C    0.000045  -0.000067  -0.002446  -0.005705  -0.003115  -0.000044
    19  C    0.002129   0.000059   0.006537   0.006125  -0.006660   0.002971
    20  O   -0.000001   0.000000   0.000056  -0.000082   0.001236  -0.000002
    21  H   -0.000001  -0.000021  -0.000000  -0.000000   0.000000  -0.000000
    22  H    0.005681   0.006153   0.000003   0.000003  -0.000001   0.004946
    23  H    0.000007   0.005137  -0.000002   0.000004   0.000000   0.000195
    24  H    0.000001   0.000070  -0.000000   0.000009   0.000004   0.001231
    25  H   -0.000001   0.000009  -0.000000   0.000000   0.000000   0.000006
    26  H   -0.000000  -0.000002   0.000000   0.000000   0.000000   0.000001
    27  H    0.000008  -0.000060   0.000003  -0.000000   0.000000  -0.000000
    28  H    0.004262   0.000141   0.000003  -0.000000  -0.000000  -0.000001
    29  H    0.005664   0.006174   0.005179  -0.000008   0.000000  -0.000000
    30  H   -0.003120   0.000072  -0.000059   0.000001  -0.000000   0.000003
    31  H    0.608093   0.006075   0.006178   0.000041  -0.000008   0.001598
    32  H    0.006075   0.611484   0.005060   0.003187  -0.000072   0.005540
    33  H    0.006178   0.005060   0.624410   0.005035   0.000011   0.000077
    34  H    0.000041   0.003187   0.005035   0.577195  -0.032442   0.004956
    35  H   -0.000008  -0.000072   0.000011  -0.032442   0.587726  -0.004567
    36  H    0.001598   0.005540   0.000077   0.004956  -0.004567   0.574725
    37  H   -0.000078  -0.005693  -0.000090  -0.005104  -0.001748  -0.033371
    38  H   -0.000143  -0.000001  -0.006248  -0.000001   0.000003   0.000000
    39  H    0.004182   0.000004   0.005296  -0.000005   0.000004  -0.000003
    40  H    0.000001  -0.000000   0.000497  -0.000014   0.000001  -0.000000
    41  H   -0.000010  -0.000000  -0.000033   0.000001   0.000001  -0.000000
    42  H   -0.000012  -0.000009   0.005307   0.006574   0.000067  -0.000002
    43  H    0.000086   0.000001  -0.000061  -0.000134  -0.000007  -0.000027
    44  H   -0.000038   0.000002  -0.000109   0.000062   0.005071   0.000375
    45  H    0.003372  -0.000013   0.000014  -0.000075  -0.000151   0.001328
    46  H    0.000000   0.000000  -0.000005  -0.000023   0.002525   0.000000
              37         38         39         40         41         42
     1  C   -0.000011   0.000000   0.000000   0.000000   0.000000   0.000000
     2  O   -0.000000  -0.000000  -0.000000  -0.000000  -0.000000  -0.000000
     3  C    0.000017   0.000000  -0.000000   0.000000   0.000000  -0.000000
     4  C   -0.000142  -0.000001  -0.000001   0.000000  -0.000000   0.000000
     5  C   -0.006704   0.000001   0.000001  -0.000000  -0.000000  -0.000000
     6  C    0.003177  -0.000000   0.000000   0.000000   0.000000   0.000000
     7  C    0.000101   0.000000  -0.000000  -0.000000  -0.000000  -0.000000
     8  C   -0.000010  -0.000010  -0.000028  -0.000000  -0.000000  -0.000000
     9  C   -0.000121   0.001389  -0.000589  -0.000005   0.000002   0.000008
    10  C    0.004143  -0.001566  -0.004082  -0.000061  -0.000131  -0.000263
    11  C   -0.030154  -0.000075   0.000068   0.000003   0.000002  -0.000008
    12  C    0.000119  -0.026586  -0.038907   0.001485   0.003326  -0.002469
    13  C    0.004633   0.005363  -0.005716   0.003931  -0.003326  -0.069148
    14  C   -0.034013  -0.000139   0.000011  -0.000135  -0.000121  -0.010020
    15  C    0.380786  -0.000004  -0.000019   0.000003   0.000003   0.000095
    16  C    0.000008   0.378598   0.384522  -0.031063  -0.025945   0.003366
    17  C    0.000003  -0.027792  -0.032491   0.378588   0.372126  -0.050066
    18  C   -0.000075   0.002543   0.001952  -0.026561  -0.031875   0.387600
    19  C    0.000008   0.000096   0.002405   0.000165   0.001566   0.007736
    20  O    0.000000  -0.000033  -0.000011   0.001776   0.002953  -0.041208
    21  H    0.000000  -0.000000   0.000000   0.000000  -0.000000   0.000000
    22  H    0.000006   0.000000  -0.000001  -0.000000  -0.000000  -0.000000
    23  H    0.001098   0.000000  -0.000000  -0.000000   0.000000   0.000000
    24  H    0.000202  -0.000000  -0.000000  -0.000000   0.000000   0.000000
    25  H    0.000009   0.000000  -0.000000   0.000000  -0.000000  -0.000000
    26  H    0.000001  -0.000000   0.000000   0.000000   0.000000   0.000000
    27  H   -0.000000   0.000001   0.000001   0.000000   0.000000   0.000000
    28  H    0.000000   0.000004  -0.000001   0.000000   0.000000  -0.000000
    29  H   -0.000004   0.000272   0.000068  -0.000000  -0.000000  -0.000003
    30  H    0.000002   0.000680   0.000509   0.000002   0.000001  -0.000000
    31  H   -0.000078  -0.000143   0.004182   0.000001  -0.000010  -0.000012
    32  H   -0.005693  -0.000001   0.000004  -0.000000  -0.000000  -0.000009
    33  H   -0.000090  -0.006248   0.005296   0.000497  -0.000033   0.005307
    34  H   -0.005104  -0.000001  -0.000005  -0.000014   0.000001   0.006574
    35  H   -0.001748   0.000003   0.000004   0.000001   0.000001   0.000067
    36  H   -0.033371   0.000000  -0.000003  -0.000000  -0.000000  -0.000002
    37  H    0.556558  -0.000000  -0.000000  -0.000000  -0.000000  -0.000005
    38  H   -0.000000   0.550163  -0.034687  -0.006389   0.002384  -0.000125
    39  H   -0.000000  -0.034687   0.564359   0.003511  -0.008702  -0.000170
    40  H   -0.000000  -0.006389   0.003511   0.539587  -0.027715  -0.006847
    41  H   -0.000000   0.002384  -0.008702  -0.027715   0.528161   0.005033
    42  H   -0.000005  -0.000125  -0.000170  -0.006847   0.005033   0.638737
    43  H   -0.000000   0.000032   0.000695  -0.000031   0.000915   0.000067
    44  H   -0.000032  -0.000001   0.000008  -0.000003   0.000066   0.000082
    45  H    0.000035  -0.000019   0.000150  -0.000000   0.000032  -0.000073
    46  H    0.000002   0.000004   0.000004  -0.000212  -0.000061  -0.002293
              43         44         45         46
     1  C   -0.000000   0.000000   0.000000  -0.000000
     2  O    0.000000   0.000000  -0.000000   0.000000
     3  C    0.000000  -0.000000  -0.000000  -0.000000
     4  C    0.000000  -0.000000   0.000000   0.000000
     5  C   -0.000002  -0.000003   0.000037  -0.000000
     6  C   -0.000000   0.000000   0.000002   0.000000
     7  C    0.000000   0.000000  -0.000000   0.000000
     8  C   -0.000000  -0.000000   0.000009   0.000000
     9  C   -0.000019   0.000000  -0.000039   0.000000
    10  C   -0.000054  -0.000026   0.001927  -0.000003
    11  C    0.000026   0.000071  -0.000417   0.000001
    12  C   -0.004002   0.005538  -0.006135   0.000340
    13  C   -0.029078  -0.029404  -0.032846  -0.005454
    14  C    0.004715  -0.005472  -0.004821   0.002590
    15  C    0.000020  -0.000428   0.001870  -0.000074
    16  C    0.001676  -0.000179  -0.000131  -0.000332
    17  C    0.003554   0.000023  -0.000271   0.007099
    18  C   -0.005942  -0.005802   0.005078  -0.028002
    19  C    0.380544   0.374875   0.374449  -0.001228
    20  O    0.000107   0.005332   0.000342   0.242394
    21  H    0.000000   0.000000  -0.000000   0.000000
    22  H    0.000001   0.000001   0.000058  -0.000000
    23  H    0.000000   0.000000   0.000000   0.000000
    24  H    0.000000   0.000000  -0.000001   0.000000
    25  H    0.000000   0.000000   0.000000  -0.000000
    26  H    0.000000  -0.000000   0.000000   0.000000
    27  H   -0.000000   0.000000  -0.000000   0.000000
    28  H    0.000000   0.000000  -0.000004   0.000000
    29  H    0.000000   0.000000  -0.000001   0.000000
    30  H    0.000000  -0.000000   0.000002   0.000000
    31  H    0.000086  -0.000038   0.003372   0.000000
    32  H    0.000001   0.000002  -0.000013   0.000000
    33  H   -0.000061  -0.000109   0.000014  -0.000005
    34  H   -0.000134   0.000062  -0.000075  -0.000023
    35  H   -0.000007   0.005071  -0.000151   0.002525
    36  H   -0.000027   0.000375   0.001328   0.000000
    37  H   -0.000000  -0.000032   0.000035   0.000002
    38  H    0.000032  -0.000001  -0.000019   0.000004
    39  H    0.000695   0.000008   0.000150   0.000004
    40  H   -0.000031  -0.000003  -0.000000  -0.000212
    41  H    0.000915   0.000066   0.000032  -0.000061
    42  H    0.000067   0.000082  -0.000073  -0.002293
    43  H    0.525642  -0.024873  -0.028518   0.000083
    44  H   -0.024873   0.544056  -0.029652   0.001251
    45  H   -0.028518  -0.029652   0.556027  -0.000087
    46  H    0.000083   0.001251  -0.000087   0.375371
 Mulliken charges:
               1
     1  C    0.455622
     2  O   -0.513925
     3  C   -0.273297
     4  C    0.161535
     5  C   -0.177883
     6  C   -0.332486
     7  C   -0.404453
     8  C   -0.382324
     9  C   -0.306873
    10  C   -0.129276
    11  C   -0.116166
    12  C   -0.120485
    13  C    0.008577
    14  C   -0.314472
    15  C   -0.320212
    16  C   -0.326041
    17  C   -0.345568
    18  C    0.143527
    19  C   -0.501102
    20  O   -0.654703
    21  H    0.173275
    22  H    0.159437
    23  H    0.166068
    24  H    0.167941
    25  H    0.184888
    26  H    0.196593
    27  H    0.181865
    28  H    0.180588
    29  H    0.157812
    30  H    0.166996
    31  H    0.135603
    32  H    0.139699
    33  H    0.132129
    34  H    0.148947
    35  H    0.141336
    36  H    0.153129
    37  H    0.166446
    38  H    0.162287
    39  H    0.157664
    40  H    0.169486
    41  H    0.181347
    42  H    0.128049
    43  H    0.174583
    44  H    0.159211
    45  H    0.158522
    46  H    0.406110
 Sum of Mulliken charges =  -0.00000
 Mulliken charges with hydrogens summed into heavy atoms:
               1
     1  C    0.455622
     2  O   -0.513925
     3  C   -0.100022
     4  C    0.161535
     5  C   -0.018446
     6  C    0.001523
     7  C   -0.022972
     8  C   -0.019872
     9  C    0.017935
    10  C    0.006328
    11  C    0.023533
    12  C    0.011644
    13  C    0.008577
    14  C   -0.024190
    15  C   -0.000638
    16  C   -0.006090
    17  C    0.005265
    18  C    0.271576
    19  C   -0.008787
    20  O   -0.248594
 Electronic spatial extent (au):  <R**2>=           6915.1880
 Charge=             -0.0000 electrons
 Dipole moment (field-independent basis, Debye):
    X=             -3.4934    Y=             -0.4332    Z=              0.1994  Tot=              3.5258
 Quadrupole moment (field-independent basis, Debye-Ang):
   XX=           -173.3505   YY=           -111.5820   ZZ=           -119.0327
   XY=              0.2808   XZ=              4.1037   YZ=              0.5585
 Traceless Quadrupole moment (field-independent basis, Debye-Ang):
   XX=            -38.6954   YY=             23.0731   ZZ=             15.6223
   XY=              0.2808   XZ=              4.1037   YZ=              0.5585
 Octapole moment (field-independent basis, Debye-Ang**2):
  XXX=           -193.3091  YYY=            -12.9813  ZZZ=             -0.5662  XYY=             -6.2354
  XXY=             -7.2490  XXZ=              5.2191  XZZ=             -0.9247  YZZ=             -1.6279
  YYZ=             -2.4788  XYZ=             -3.2247
 Hexadecapole moment (field-independent basis, Debye-Ang**3):
 XXXX=          -9651.4824 YYYY=          -1394.3718 ZZZZ=           -402.5231 XXXY=            -22.3678
 XXXZ=             82.1961 YYYX=             83.6986 YYYZ=             -0.9993 ZZZX=             10.9991
 ZZZY=              4.2431 XXYY=          -1290.2881 XXZZ=          -1239.3912 YYZZ=           -307.9700
 XXYZ=              6.3599 YYXZ=              3.3800 ZZXY=             -3.9994
 N-N= 1.663125059128D+03 E-N=-5.303071408999D+03  KE= 8.439210532560D+02

 **********************************************************************

            Electrostatic Properties Using The SCF Density.

 **********************************************************************

       Atomic Center    1 is at   4.693341 -0.155209 -0.073725
       Atomic Center    2 is at   5.936389 -0.064927 -0.157924
       Atomic Center    3 is at   3.836151  0.986344 -0.216133
       Atomic Center    4 is at   2.506068  0.917247  0.059016
       Atomic Center    5 is at   1.798576 -0.402002  0.289589
       Atomic Center    6 is at   2.639138 -1.582547 -0.205810
       Atomic Center    7 is at   4.075265 -1.477771  0.285464
       Atomic Center    8 is at   1.717412  2.161812  0.271882
       Atomic Center    9 is at   0.279330  2.106994 -0.237382
       Atomic Center   10 is at  -0.422602  0.827222  0.209438
       Atomic Center   11 is at   0.376940 -0.383811 -0.319214
       Atomic Center   12 is at  -1.857035  0.752567 -0.294711
       Atomic Center   13 is at  -2.572766 -0.567881  0.052437
       Atomic Center   14 is at  -1.801114 -1.725386 -0.580380
       Atomic Center   15 is at  -0.334337 -1.734430 -0.130904
       Atomic Center   16 is at  -2.859468  1.829453  0.138283
       Atomic Center   17 is at  -4.235055  1.199778 -0.201465
       Atomic Center   18 is at  -3.949720 -0.271940 -0.575794
       Atomic Center   19 is at  -2.728830 -0.799414  1.565098
       Atomic Center   20 is at  -5.019297 -1.099730 -0.147670
       Atomic Center   21 is at   4.313396  1.943227 -0.408842
       Atomic Center   22 is at   1.681510 -0.484479  1.384599
       Atomic Center   23 is at   2.624886 -1.599294 -1.304797
       Atomic Center   24 is at   2.213916 -2.531391  0.133719
       Atomic Center   25 is at   4.091003 -1.546075  1.382130
       Atomic Center   26 is at   4.706855 -2.290313 -0.087543
       Atomic Center   27 is at   2.250132  3.022739 -0.137794
       Atomic Center   28 is at   1.717748  2.294971  1.373551
       Atomic Center   29 is at   0.269977  2.150953 -1.334947
       Atomic Center   30 is at  -0.256499  2.991401  0.119754
       Atomic Center   31 is at  -0.421566  0.807348  1.309507
       Atomic Center   32 is at   0.490854 -0.226332 -1.406063
       Atomic Center   33 is at  -1.801570  0.787177 -1.398549
       Atomic Center   34 is at  -1.840990 -1.630575 -1.674359
       Atomic Center   35 is at  -2.254897 -2.692638 -0.326451
       Atomic Center   36 is at  -0.273228 -2.045570  0.920800
       Atomic Center   37 is at   0.192455 -2.502429 -0.707361
       Atomic Center   38 is at  -2.700064  2.782673 -0.367463
       Atomic Center   39 is at  -2.761704  2.032893  1.209708
       Atomic Center   40 is at  -4.729988  1.728314 -1.022486
       Atomic Center   41 is at  -4.920139  1.218764  0.651921
       Atomic Center   42 is at  -3.845067 -0.358394 -1.672166
       Atomic Center   43 is at  -3.381754 -0.056233  2.030527
       Atomic Center   44 is at  -3.161676 -1.786919  1.755500
       Atomic Center   45 is at  -1.766411 -0.762211  2.082397
       Atomic Center   46 is at  -4.741681 -2.016495 -0.274673
 -----------------------------------------------------------------

              Electrostatic Properties (Atomic Units)

 -----------------------------------------------------------------
    Center     Electric         -------- Electric Field --------
               Potential          X             Y             Z
 -----------------------------------------------------------------
    1 Atom    -14.672346      0.004947     -0.002105     -0.000476
    2 Atom    -22.354505      0.103444      0.007406     -0.007266
    3 Atom    -14.746046     -0.009595     -0.000096      0.002164
    4 Atom    -14.708415      0.012280      0.000086     -0.003283
    5 Atom    -14.716298     -0.002188     -0.003324     -0.001533
    6 Atom    -14.730779     -0.000138     -0.001031     -0.000357
    7 Atom    -14.739948      0.000860     -0.000759     -0.002032
    8 Atom    -14.724577     -0.001489      0.002209     -0.000555
    9 Atom    -14.731494     -0.002557     -0.001655     -0.000254
   10 Atom    -14.728987     -0.001045     -0.000133     -0.001369
   11 Atom    -14.723175     -0.001828      0.000986      0.000209
   12 Atom    -14.735510     -0.000258     -0.001389      0.002725
   13 Atom    -14.731216     -0.001326      0.002079     -0.002083
   14 Atom    -14.734335     -0.001378      0.003695      0.000951
   15 Atom    -14.732365      0.000067     -0.000038     -0.000112
   16 Atom    -14.739096      0.001355     -0.000226      0.000103
   17 Atom    -14.743657     -0.002649     -0.001037      0.000914
   18 Atom    -14.691287      0.018767      0.012612     -0.005250
   19 Atom    -14.746782     -0.000627      0.000528     -0.001220
   20 Atom    -22.313363     -0.099579      0.041310      0.041322
   21 Atom     -1.105204      0.016528      0.028425     -0.005253
   22 Atom     -1.102763     -0.004616     -0.005917      0.030981
   23 Atom     -1.116480     -0.000628     -0.001432     -0.029716
   24 Atom     -1.116296     -0.012956     -0.025957      0.008264
   25 Atom     -1.105637      0.002423     -0.004161      0.030742
   26 Atom     -1.115218      0.019571     -0.018640     -0.010486
   27 Atom     -1.108223      0.015394      0.025457     -0.011432
   28 Atom     -1.099606     -0.002922      0.008632      0.024947
   29 Atom     -1.116264     -0.000415      0.003343     -0.030139
   30 Atom     -1.116481     -0.016733      0.024713      0.009017
   31 Atom     -1.117688     -0.001904     -0.001065      0.031497
   32 Atom     -1.117909      0.003300      0.003143     -0.030117
   33 Atom     -1.122347      0.001213      0.001524     -0.029433
   34 Atom     -1.118391     -0.001995      0.001466     -0.030287
   35 Atom     -1.115989     -0.011434     -0.027277      0.005868
   36 Atom     -1.117733      0.001881     -0.009356      0.028488
   37 Atom     -1.118534      0.014734     -0.021148     -0.014235
   38 Atom     -1.124593      0.004068      0.027525     -0.015624
   39 Atom     -1.124494      0.001428      0.005436      0.030273
   40 Atom     -1.127313     -0.014615      0.013228     -0.020902
   41 Atom     -1.126950     -0.019973     -0.001187      0.021927
   42 Atom     -1.130471      0.001448     -0.002278     -0.029874
   43 Atom     -1.121158     -0.019471      0.017485      0.013566
   44 Atom     -1.120276     -0.014035     -0.024360      0.007379
   45 Atom     -1.119085      0.025359      0.000413      0.015772
   46 Atom     -0.997906      0.007515     -0.043271     -0.005164
 -----------------------------------------------------------------
 -----------------------------------------------------
    Center         ---- Electric Field Gradient ----
                     XX            YY            ZZ
 -----------------------------------------------------
    1 Atom     -493.263406   -493.213736   -493.920118
    2 Atom    -1217.208723  -1214.690237  -1217.558068
    3 Atom     -493.102116   -493.164516   -493.393314
    4 Atom     -493.192815   -493.274157   -493.822688
    5 Atom     -492.742981   -492.781944   -492.757767
    6 Atom     -492.612576   -492.589205   -492.578807
    7 Atom     -492.707462   -492.716163   -492.718018
    8 Atom     -492.581749   -492.615486   -492.602856
    9 Atom     -492.671385   -492.619964   -492.629032
   10 Atom     -492.757108   -492.780243   -492.765232
   11 Atom     -492.816074   -492.779496   -492.781375
   12 Atom     -492.905761   -492.922310   -492.908599
   13 Atom     -492.916831   -492.929942   -492.964476
   14 Atom     -492.713942   -492.687353   -492.689031
   15 Atom     -492.627289   -492.618339   -492.589392
   16 Atom     -492.650629   -492.593289   -492.573471
   17 Atom     -492.635812   -492.660525   -492.585879
   18 Atom     -492.867846   -492.795247   -492.661648
   19 Atom     -492.533988   -492.543523   -492.585526
   20 Atom    -1214.497616  -1215.964182  -1212.953607
   21 Atom       -1.690587     -1.955695     -1.604732
   22 Atom       -1.621319     -1.621024     -2.016474
   23 Atom       -1.619968     -1.615975     -2.037987
   24 Atom       -1.697460     -1.953958     -1.668176
   25 Atom       -1.600115     -1.601942     -2.023283
   26 Atom       -1.742650     -1.840816     -1.651358
   27 Atom       -1.728800     -1.893302     -1.678606
   28 Atom       -1.596861     -1.604386     -1.988412
   29 Atom       -1.623248     -1.622495     -2.043887
   30 Atom       -1.732975     -1.909881     -1.670961
   31 Atom       -1.636295     -1.635355     -2.050486
   32 Atom       -1.638935     -1.644267     -2.025383
   33 Atom       -1.645134     -1.638372     -2.036908
   34 Atom       -1.626814     -1.627641     -2.043571
   35 Atom       -1.706877     -1.958204     -1.648696
   36 Atom       -1.626676     -1.656426     -2.012863
   37 Atom       -1.732132     -1.840684     -1.746383
   38 Atom       -1.639845     -1.968154     -1.726564
   39 Atom       -1.629906     -1.639420     -2.042465
   40 Atom       -1.710330     -1.726544     -1.869828
   41 Atom       -1.776797     -1.609286     -1.876836
   42 Atom       -1.676480     -1.674439     -2.063066
   43 Atom       -1.756464     -1.808944     -1.687408
   44 Atom       -1.669111     -1.963721     -1.623418
   45 Atom       -1.957295     -1.609796     -1.711848
   46 Atom       -1.515146     -2.059583     -1.435001
 -----------------------------------------------------
 -----------------------------------------------------
    Center         ---- Electric Field Gradient ----
                     XY            XZ            YZ
 -----------------------------------------------------
    1 Atom       -0.020070     -0.031107     -0.155848
    2 Atom       -0.203719      0.030580     -0.615318
    3 Atom       -0.011861     -0.055960     -0.032530
    4 Atom       -0.007079     -0.124581     -0.016187
    5 Atom       -0.023192     -0.011416     -0.000290
    6 Atom        0.025334     -0.002224     -0.026133
    7 Atom       -0.010186     -0.031589      0.004337
    8 Atom        0.024639     -0.021369     -0.012277
    9 Atom       -0.007365     -0.019036      0.020215
   10 Atom        0.001922      0.008345     -0.004077
   11 Atom       -0.007507     -0.017823     -0.008765
   12 Atom        0.011047     -0.008785      0.003743
   13 Atom        0.003482      0.009218      0.004745
   14 Atom       -0.012671     -0.008890     -0.011850
   15 Atom       -0.019283     -0.010762      0.014653
   16 Atom       -0.003105     -0.003960     -0.018687
   17 Atom       -0.016054     -0.020672     -0.037905
   18 Atom       -0.196091      0.100292      0.101589
   19 Atom       -0.005608      0.000595      0.014089
   20 Atom       -0.429676      0.760702      0.149942
   21 Atom       -0.168522      0.036878      0.071719
   22 Atom       -0.002739      0.044694      0.032340
   23 Atom        0.002174     -0.006432     -0.006929
   24 Atom       -0.146089      0.052656      0.117095
   25 Atom       -0.001791     -0.004382      0.027063
   26 Atom        0.183246      0.084621     -0.111436
   27 Atom       -0.165607      0.080833      0.131335
   28 Atom        0.003250      0.002935     -0.049493
   29 Atom       -0.002393     -0.003844      0.016468
   30 Atom        0.171115      0.069197     -0.115893
   31 Atom       -0.001235     -0.000544      0.009017
   32 Atom       -0.006087      0.040467      0.056692
   33 Atom       -0.001495      0.019811      0.011946
   34 Atom        0.003156     -0.015629      0.037059
   35 Atom       -0.156088      0.041885      0.087167
   36 Atom        0.004052     -0.023664      0.114421
   37 Atom        0.144020      0.108789     -0.159421
   38 Atom       -0.057277      0.029640      0.182166
   39 Atom       -0.007247     -0.036513     -0.077401
   40 Atom        0.093464     -0.147834      0.157213
   41 Atom        0.006339      0.210414     -0.008406
   42 Atom       -0.002816      0.040422     -0.031335
   43 Atom        0.181596      0.112004     -0.124917
   44 Atom       -0.158547      0.030076      0.065733
   45 Atom       -0.013909     -0.182255     -0.006298
   46 Atom        0.173044      0.043651     -0.081434
 -----------------------------------------------------
 -----------------------------------------------------
    Center         ---- Electric Field Gradient ----
                   ----       Eigenvalues       ----
 -----------------------------------------------------
    1 Atom     -493.954704   -493.263779   -493.178776
    2 Atom    -1217.684779  -1217.224362  -1214.547888
    3 Atom     -493.408480   -493.160206   -493.091260
    4 Atom     -493.846952   -493.273786   -493.168923
    5 Atom     -492.793511   -492.760635   -492.728545
    6 Atom     -492.632161   -492.596786   -492.551641
    7 Atom     -492.745160   -492.718697   -492.677786
    8 Atom     -492.628529   -492.615712   -492.555850
    9 Atom     -492.678686   -492.642377   -492.599318
   10 Atom     -492.781989   -492.768716   -492.751878
   11 Atom     -492.825920   -492.780820   -492.770206
   12 Atom     -492.930416   -492.909709   -492.896545
   13 Atom     -492.966643   -492.930670   -492.913935
   14 Atom     -492.723816   -492.690560   -492.675950
   15 Atom     -492.642620   -492.615603   -492.576797
   16 Atom     -492.651140   -492.604058   -492.562191
   17 Atom     -492.686864   -492.627947   -492.567405
   18 Atom     -493.079342   -492.638905   -492.606494
   19 Atom     -492.589902   -492.542400   -492.530735
   20 Atom    -1216.121722  -1214.652070  -1212.641614
   21 Atom       -2.052079     -1.608909     -1.590026
   22 Atom       -2.024077     -1.618725     -1.616014
   23 Atom       -2.038198     -1.620901     -1.614831
   24 Atom       -2.061964     -1.631333     -1.626297
   25 Atom       -2.025057     -1.602209     -1.598073
   26 Atom       -2.032770     -1.602228     -1.599826
   27 Atom       -2.058554     -1.626163     -1.615991
   28 Atom       -1.994716     -1.600397     -1.594547
   29 Atom       -2.044562     -1.625164     -1.619903
   30 Atom       -2.060787     -1.629051     -1.623979
   31 Atom       -2.050683     -1.637097     -1.634357
   32 Atom       -2.037836     -1.636041     -1.634709
   33 Atom       -2.038267     -1.644261     -1.637884
   34 Atom       -2.047444     -1.627286     -1.623297
   35 Atom       -2.055894     -1.632157     -1.625726
   36 Atom       -2.047783     -1.627122     -1.621059
   37 Atom       -2.059339     -1.632704     -1.627155
   38 Atom       -2.075481     -1.630767     -1.628315
   39 Atom       -2.060039     -1.626810     -1.624942
   40 Atom       -2.058747     -1.625867     -1.622087
   41 Atom       -2.043350     -1.610575     -1.608994
   42 Atom       -2.069661     -1.678171     -1.666154
   43 Atom       -2.044907     -1.609372     -1.598539
   44 Atom       -2.045217     -1.611182     -1.599852
   45 Atom       -2.054815     -1.615015     -1.609109
   46 Atom       -2.121832     -1.472152     -1.415745
 -----------------------------------------------------
 -----------------------------------------------------
    Center         ---- Electric Field Gradient ----
                       ( tensor representation )
                   3XX-RR        3YY-RR        3ZZ-RR
 -----------------------------------------------------
    1 Atom        0.202348      0.252017     -0.454365
    2 Atom       -0.723047      1.795439     -1.072392
    3 Atom        0.117866      0.055466     -0.173332
    4 Atom        0.237071      0.155730     -0.392801
    5 Atom        0.017917     -0.021047      0.003131
    6 Atom       -0.019047      0.004324      0.014722
    7 Atom        0.006419     -0.002282     -0.004137
    8 Atom        0.018281     -0.015456     -0.002825
    9 Atom       -0.031258      0.020163      0.011095
   10 Atom        0.010420     -0.012715      0.002296
   11 Atom       -0.023759      0.012819      0.010941
   12 Atom        0.006463     -0.010087      0.003624
   13 Atom        0.020252      0.007141     -0.027393
   14 Atom       -0.017167      0.009422      0.007745
   15 Atom       -0.015616     -0.006666      0.022282
   16 Atom       -0.044833      0.012507      0.032326
   17 Atom       -0.008407     -0.033119      0.041526
   18 Atom       -0.092932     -0.020333      0.113265
   19 Atom        0.020358      0.010823     -0.031181
   20 Atom       -0.025815     -1.492380      1.518194
   21 Atom        0.059751     -0.205357      0.145606
   22 Atom        0.131620      0.131915     -0.263535
   23 Atom        0.138008      0.142002     -0.280010
   24 Atom        0.075738     -0.180760      0.105022
   25 Atom        0.141665      0.139838     -0.281503
   26 Atom        0.002292     -0.095875      0.093583
   27 Atom        0.038103     -0.126400      0.088297
   28 Atom        0.133026      0.125500     -0.258526
   29 Atom        0.139962      0.140715     -0.280677
   30 Atom        0.038297     -0.138608      0.100311
   31 Atom        0.137750      0.138691     -0.276441
   32 Atom        0.130593      0.125262     -0.255855
   33 Atom        0.128337      0.135099     -0.263437
   34 Atom        0.139195      0.138368     -0.277562
   35 Atom        0.064382     -0.186945      0.122563
   36 Atom        0.138646      0.108896     -0.247542
   37 Atom        0.040935     -0.067618      0.026683
   38 Atom        0.138343     -0.189967      0.051624
   39 Atom        0.140691      0.131177     -0.271868
   40 Atom        0.058570      0.042357     -0.100927
   41 Atom       -0.022491      0.145020     -0.122530
   42 Atom        0.128182      0.130223     -0.258404
   43 Atom       -0.005525     -0.058005      0.063531
   44 Atom        0.082973     -0.211638      0.128665
   45 Atom       -0.197648      0.149850      0.047798
   46 Atom        0.154764     -0.389673      0.234909
 -----------------------------------------------------
 -----------------------------------------------------
    Center         ---- Electric Field Gradient ----
                       ( tensor representation )
                   ----       Eigenvalues       ----
 -----------------------------------------------------
    1 Atom       -0.488951      0.201974      0.286977
    2 Atom       -1.199103     -0.738685      1.937788
    3 Atom       -0.188498      0.059776      0.128722
    4 Atom       -0.417065      0.156101      0.260964
    5 Atom       -0.032614      0.000262      0.032352
    6 Atom       -0.038631     -0.003257      0.041888
    7 Atom       -0.031279     -0.004816      0.036095
    8 Atom       -0.028499     -0.015681      0.044180
    9 Atom       -0.038559     -0.002250      0.040809
   10 Atom       -0.014461     -0.001188      0.015649
   11 Atom       -0.033604      0.011495      0.022109
   12 Atom       -0.018193      0.002514      0.015679
   13 Atom       -0.029560      0.006412      0.023148
   14 Atom       -0.027040      0.006215      0.020825
   15 Atom       -0.030947     -0.003929      0.034876
   16 Atom       -0.045343      0.001738      0.043605
   17 Atom       -0.059459     -0.000541      0.060000
   18 Atom       -0.304428      0.136008      0.168420
   19 Atom       -0.035556      0.011945      0.023611
   20 Atom       -1.649920     -0.180268      1.830188
   21 Atom       -0.301741      0.141429      0.160311
   22 Atom       -0.271139      0.134214      0.136924
   23 Atom       -0.280222      0.137076      0.143146
   24 Atom       -0.288766      0.141865      0.146901
   25 Atom       -0.283277      0.139570      0.143707
   26 Atom       -0.287828      0.142713      0.145115
   27 Atom       -0.291651      0.140739      0.150912
   28 Atom       -0.264830      0.129490      0.135340
   29 Atom       -0.281353      0.138046      0.143307
   30 Atom       -0.289514      0.142221      0.147293
   31 Atom       -0.276637      0.136949      0.139689
   32 Atom       -0.268307      0.133488      0.134820
   33 Atom       -0.264796      0.129210      0.135587
   34 Atom       -0.281436      0.138723      0.142712
   35 Atom       -0.284635      0.139102      0.145533
   36 Atom       -0.282461      0.138199      0.144262
   37 Atom       -0.286273      0.140362      0.145911
   38 Atom       -0.297294      0.147421      0.149873
   39 Atom       -0.289442      0.143787      0.145655
   40 Atom       -0.289847      0.143033      0.146813
   41 Atom       -0.289043      0.143731      0.145312
   42 Atom       -0.264999      0.126491      0.138508
   43 Atom       -0.293968      0.141567      0.152400
   44 Atom       -0.293133      0.140902      0.152232
   45 Atom       -0.295169      0.144631      0.150537
   46 Atom       -0.451922      0.197758      0.254164
 -----------------------------------------------------
 Unable to Open any file for archive entry.
 1\1\GINC-EXP-6-21\SP\RwB97XD\6-31G(d)\C18H26O2\HKLEM\08-Aug-2024\0\\# 
 wb97xd 6-31G(d) prop=efg\\19nt_mm_min_distance_cutoff5_nowat_ligand_co
 nf_1\\0,1\C,0,2.0211,-1.7691,1.3923\O,0,3.0601,-2.351,1.7695\C,0,1.869
 8,-0.3455,1.4854\C,0,0.6757,0.261,1.249\C,0,-0.4966,-0.4786,0.6384\C,0
 ,-0.0528,-1.7921,-0.0123\C,0,0.8521,-2.5866,0.9176\C,0,0.4387,1.6574,1
 .7074\C,0,-0.4394,2.4974,0.7834\C,0,-1.7008,1.7419,0.3732\C,0,-1.2838,
 0.4327,-0.3321\C,0,-2.5863,2.5627,-0.5539\C,0,-3.824,1.8023,-1.0699\C,
 0,-3.3556,0.5735,-1.8486\C,0,-2.4499,-0.3216,-0.993\C,0,-3.164,3.8924,
 -0.0537\C,0,-4.3007,4.195,-1.0639\C,0,-4.4597,2.9197,-1.9217\C,0,-4.79
 4,1.3831,0.0479\O,0,-5.8218,2.7353,-2.2727\H,0,2.7051,0.2157,1.8951\H,
 0,-1.1691,-0.7105,1.4831\H,0,0.4818,-1.5691,-0.9465\H,0,-0.9185,-2.405
 5,-0.2782\H,0,0.287,-2.8792,1.8135\H,0,1.2147,-3.5127,0.4603\H,0,1.388
 9,2.1556,1.9117\H,0,-0.0631,1.5362,2.6897\H,0,0.1217,2.7669,-0.1217\H,
 0,-0.6922,3.4335,1.29\H,0,-2.2603,1.496,1.2881\H,0,-0.5889,0.7257,-1.1
 385\H,0,-1.9755,2.7908,-1.447\H,0,-2.8003,0.9002,-2.7387\H,0,-4.2075,-
 0.0216,-2.2037\H,0,-3.051,-0.8272,-0.2251\H,0,-2.049,-1.1123,-1.6362\H
 ,0,-2.4188,4.6879,-0.0128\H,0,-3.5481,3.782,0.9657\H,0,-4.0673,5.0645,
 -1.6867\H,0,-5.2522,4.4036,-0.5648\H,0,-3.8613,3.021,-2.8448\H,0,-5.24
 63,2.245,0.5457\H,0,-5.6056,0.7734,-0.3624\H,0,-4.2948,0.7846,0.8146\H
 ,0,-5.8969,1.8647,-2.6851\\Version=ES64L-G16RevC.01\State=1-A\HF=-851.
 79317\RMSD=6.189e-09\Dipole=-1.1686877,0.5889297,-0.4599495\Quadrupole
 =-14.149253,3.8165538,10.3326992,18.8816558,-7.732083,7.8021151\PG=C01
  [X(C18H26O2)]\\@
 The archive entry for this job was punched.


 FESTINA LENTE!
     - IMPERATOR AUGUSTUS 
 Job cpu time:       0 days  0 hours  9 minutes 59.2 seconds.
 Elapsed time:       0 days  0 hours  0 minutes 25.4 seconds.
 File lengths (MBytes):  RWF=     71 Int=      0 D2E=      0 Chk=      8 Scr=      1
 Normal termination of Gaussian 16 at Thu Aug  8 09:10:19 2024.
