 Entering Gaussian System, Link 0=g16
 Input=19nt_md_min_distance_cutoff7_nowat_optimized.gjf
 Output=19nt_md_min_distance_cutoff7_nowat_optimized.log
 Initial command:
 /usr/local/packages/license/gaussian/g16-c01/g16/l1.exe "/work/arkanil/gauss_scratch/Gau-3594431.inp" -scrdir="/work/arkanil/gauss_scratch/"
 Entering Link 1 = /usr/local/packages/license/gaussian/g16-c01/g16/l1.exe PID=   3594439.
  
 Copyright (c) 1988-2019, Gaussian, Inc.  All Rights Reserved.
  
 This is part of the Gaussian(R) 16 program.  It is based on
 the Gaussian(R) 09 system (copyright 2009, Gaussian, Inc.),
 the Gaussian(R) 03 system (copyright 2003, Gaussian, Inc.),
 the Gaussian(R) 98 system (copyright 1998, Gaussian, Inc.),
 the Gaussian(R) 94 system (copyright 1995, Gaussian, Inc.),
 the Gaussian 92(TM) system (copyright 1992, Gaussian, Inc.),
 the Gaussian 90(TM) system (copyright 1990, Gaussian, Inc.),
 the Gaussian 88(TM) system (copyright 1988, Gaussian, Inc.),
 the Gaussian 86(TM) system (copyright 1986, Carnegie Mellon
 University), and the Gaussian 82(TM) system (copyright 1983,
 Carnegie Mellon University). Gaussian is a federally registered
 trademark of Gaussian, Inc.
  
 This software contains proprietary and confidential information,
 including trade secrets, belonging to Gaussian, Inc.
  
 This software is provided under written license and may be
 used, copied, transmitted, or stored only in accord with that
 written license.
  
 The following legend is applicable only to US Government
 contracts under FAR:
  
                    RESTRICTED RIGHTS LEGEND
  
 Use, reproduction and disclosure by the US Government is
 subject to restrictions as set forth in subparagraphs (a)
 and (c) of the Commercial Computer Software - Restricted
 Rights clause in FAR 52.227-19.
  
 Gaussian, Inc.
 340 Quinnipiac St., Bldg. 40, Wallingford CT 06492
  
  
 ---------------------------------------------------------------
 Warning -- This program may not be used in any manner that
 competes with the business of Gaussian, Inc. or will provide
 assistance to any competitor of Gaussian, Inc.  The licensee
 of this program is prohibited from giving any competitor of
 Gaussian, Inc. access to this program.  By using this program,
 the user acknowledges that Gaussian, Inc. is engaged in the
 business of creating and licensing software in the field of
 computational chemistry and represents and warrants to the
 licensee that it is not a competitor of Gaussian, Inc. and that
 it will not use this program in any manner prohibited above.
 ---------------------------------------------------------------
  

 Cite this work as:
 Gaussian 16, Revision C.01,
 M. J. Frisch, G. W. Trucks, H. B. Schlegel, G. E. Scuseria, 
 M. A. Robb, J. R. Cheeseman, G. Scalmani, V. Barone, 
 G. A. Petersson, H. Nakatsuji, X. Li, M. Caricato, A. V. Marenich, 
 J. Bloino, B. G. Janesko, R. Gomperts, B. Mennucci, H. P. Hratchian, 
 J. V. Ortiz, A. F. Izmaylov, J. L. Sonnenberg, D. Williams-Young, 
 F. Ding, F. Lipparini, F. Egidi, J. Goings, B. Peng, A. Petrone, 
 T. Henderson, D. Ranasinghe, V. G. Zakrzewski, J. Gao, N. Rega, 
 G. Zheng, W. Liang, M. Hada, M. Ehara, K. Toyota, R. Fukuda, 
 J. Hasegawa, M. Ishida, T. Nakajima, Y. Honda, O. Kitao, H. Nakai, 
 T. Vreven, K. Throssell, J. A. Montgomery, Jr., J. E. Peralta, 
 F. Ogliaro, M. J. Bearpark, J. J. Heyd, E. N. Brothers, K. N. Kudin, 
 V. N. Staroverov, T. A. Keith, R. Kobayashi, J. Normand, 
 K. Raghavachari, A. P. Rendell, J. C. Burant, S. S. Iyengar, 
 J. Tomasi, M. Cossi, J. M. Millam, M. Klene, C. Adamo, R. Cammi, 
 J. W. Ochterski, R. L. Martin, K. Morokuma, O. Farkas, 
 J. B. Foresman, and D. J. Fox, Gaussian, Inc., Wallingford CT, 2019.
 
 ******************************************
 Gaussian 16:  ES64L-G16RevC.01  3-Jul-2019
                24-May-2026 
 ******************************************
 %chk=19NT_md_min_distance_cutoff7_nowat_current.chk
 %nprocshared=64
 Will use up to   64 processors via shared memory.
 %mem=200GB
 --------------------------
 # wb97xd/6-31g(d) prop=efg
 --------------------------
 1/38=1,172=1/1;
 2/12=2,17=6,18=5,40=1/2;
 3/5=1,6=6,7=1,11=2,25=1,30=1,74=-58/1,2,3;
 4//1;
 5/5=2,38=5/2;
 6/7=2,8=2,9=2,10=2,14=1,28=1/1,2;
 99/5=1,9=1/99;
 ----------------------------------
 19NT_md_min_distance_cutoff7_nowat
 ----------------------------------
 Symbolic Z-matrix:
 Charge = -1 Multiplicity = 1
 H                    0     1.90619  -9.58611  -6.55348 
 C                    -1    1.87604  -9.06518  -5.58743 
 H                    0     1.78623  -9.82051  -4.80348 
 C                    0     3.17667  -8.26013  -5.40215 
 H                    0     4.01573  -8.96149  -5.46876 
 H                    0     3.30627  -7.56378  -6.24132 
 C                    0     3.25929  -7.49109  -4.1022 
 C                    0     3.93884  -7.981    -2.98409 
 H                    0     4.42862  -8.95065  -3.03348 
 C                    0     4.02727  -7.24265  -1.80675 
 H                    0     4.57915  -7.6189   -0.95044 
 C                    0     3.42868  -5.98647  -1.73837 
 O                    0     3.53581  -5.25575  -0.59626 
 H                    0     3.24478  -4.31751  -0.75729 
 C                    0     2.73494  -5.48324  -2.83616 
 H                    0     2.2765   -4.50168  -2.7859 
 C                    0     2.6555   -6.23852  -3.995 
 H                    0     2.1026   -5.84303  -4.83812 
 C                    0     0.56923  -8.25454  -5.5176 
 O                    0    -0.34189  -8.5786   -4.76693 
 N                    0     0.4549   -7.17088  -6.34484 
 H                    0     1.17773  -6.99671  -7.02812 
 C                    -1   -0.78433  -6.40337  -6.44399 
 H                    0    -1.22623  -6.38405  -5.44438 
 C                    0    -0.58546  -4.98149  -6.97635 
 H                    0    -0.11401  -5.04835  -7.96839 
 C                    0    -1.96333  -4.3364   -7.16649 
 H                    0    -1.86047  -3.29066  -7.4773 
 H                    0    -2.53762  -4.35648  -6.23374 
 H                    0    -2.54796  -4.86547  -7.92801 
 C                    0     0.33574  -4.12192  -6.09691 
 H                    0     1.3561   -4.51041  -6.17177 
 H                    0     0.38273  -3.11117  -6.51961 
 C                    0    -0.06158  -4.04203  -4.62596 
 H                    0     0.61287  -3.36673  -4.09197 
 H                    0    -0.01144  -5.02145  -4.14113 
 H                    0    -1.07827  -3.65294  -4.49542 
 H                    0    -1.49797  -6.9369   -7.08915 
 H                    0    -2.8005   -8.18341  -2.52168 
 C                    -1   -3.03753  -7.27119  -1.96094 
 H                    0    -2.99054  -7.5064   -0.89363 
 C                    0    -1.98242  -6.19569  -2.29906 
 H                    0    -2.00124  -6.04834  -3.38803 
 C                    0    -2.27426  -4.84859  -1.63411 
 H                    0    -3.25327  -4.44888  -1.91526 
 H                    0    -2.26568  -4.94758  -0.54286 
 H                    0    -1.50771  -4.11683  -1.9156 
 C                    0    -0.59575  -6.70663  -1.90597 
 H                    0     0.17481  -5.95765  -2.11348 
 H                    0    -0.3312   -7.61547  -2.45504 
 H                    0    -0.56486  -6.92239  -0.83107 
 C                    0    -4.46912  -6.80308  -2.24044 
 O                    0    -5.1499   -6.24598  -1.38852 
 N                    0    -4.9266   -6.98428  -3.52177 
 H                    0    -4.37621  -7.567    -4.13659 
 C                    -1   -6.29955  -6.68579  -3.93155 
 H                    0    -6.61656  -5.81361  -3.35021 
 C                    0    -6.38243  -6.41107  -5.43142 
 H                    0    -5.73396  -5.57193  -5.7019 
 H                    0    -6.05281  -7.2971   -5.98605 
 C                    0    -7.84287  -6.12772  -5.78854 
 O                    0    -8.18561  -4.95614  -6.09419 
 O                    0    -8.61957  -7.11677  -5.66482 
 H                    0    -6.96627  -7.5193   -3.68005 
 H                    0     1.26204  -12.73303   0.7133 
 C                    -1    1.95301  -11.93629   0.41435 
 H                    0     1.98431  -11.91393  -0.68252 
 C                    0     1.51299  -10.57808   0.96646 
 H                    0     1.48643  -10.64949   2.06441 
 C                    0     2.52075  -9.48994   0.58464 
 H                    0     2.52952  -9.33602  -0.50177 
 H                    0     3.53619  -9.76678   0.89249 
 H                    0     2.28788  -8.53036   1.05632 
 C                    0     0.09314  -10.24412   0.48405 
 H                    0     0.11432  -10.09319  -0.6047 
 H                    0    -0.55451  -11.11316   0.66251 
 C                    0    -0.52757  -9.02031   1.15215 
 H                    0    -1.54835  -8.84903   0.79343 
 H                    0    -0.5671   -9.14388   2.24193 
 H                    0     0.05254  -8.11609   0.94621 
 H                    0     2.95421  -12.20418   0.77018 
 H                    0     7.74424  -11.97049   0.54615 
 C                    -1    8.74924  -11.95759   0.98177 
 H                    0     9.41676  -11.47882   0.25729 
 C                    0     8.75046  -11.19005   2.30625 
 H                    0     8.09355  -11.69486   3.02484 
 H                    0     9.75896  -11.20691   2.7376 
 C                    0     8.29735  -9.76647   2.10521 
 C                    0     6.97611  -9.38556   2.3257 
 H                    0     6.26524  -10.11422   2.71094 
 C                    0     6.53922  -8.09051   2.06402 
 H                    0     5.50474  -7.81704   2.24506 
 C                    0     7.43857  -7.14219   1.57189 
 O                    0     7.08611  -5.86298   1.3107 
 H                    0     6.2061   -5.68517   1.68914 
 C                    0     8.76506  -7.51094   1.33686 
 H                    0     9.45977  -6.76219   0.97132 
 C                    0     9.17995  -8.80533   1.60433 
 H                    0     10.21876  -9.07644   1.42697 
 H                    0     9.07893  -12.99439   1.11611 
 H                    0     10.74606  -3.47771   4.62365 
 C                    -1    9.75527  -3.17655   4.25724 
 H                    0     9.81001  -3.18752   3.16204 
 C                    0     8.69096  -4.14967   4.7737 
 H                    0     8.65431  -4.03427   5.86338 
 C                    0     7.30235  -3.82444   4.21739 
 H                    0     6.55028  -4.50807   4.63367 
 H                    0     7.0024   -2.80455   4.47456 
 H                    0     7.29056  -3.9198    3.12592 
 C                    0     9.08909  -5.58645   4.43307 
 H                    0     10.04712  -5.85987   4.8916 
 H                    0     8.33267  -6.30422   4.77411 
 H                    0     9.18793  -5.71219   3.34887 
 C                    0     9.52301  -1.73376   4.7457 
 O                    0     8.95699  -1.49483   5.81101 
 N                    0     10.02556  -0.75292   3.95407 
 H                    0     10.38143  -0.98344   3.02908 
 C                    -1    9.96529   0.65736   4.31968 
 H                    0     9.97518   0.70897   5.41244 
 C                    0     11.14315   1.4378    3.73566 
 H                    0     11.13145   1.34572   2.64431 
 H                    0     10.97195   2.49743   3.96595 
 C                    0     12.52156   1.01772   4.2474 
 H                    0     12.66754  -0.05064   4.05116 
 H                    0     12.59927   1.1953    5.32537 
 C                    0     13.61472   1.82714   3.5031 
 O                    0     13.74554   1.51343   2.28039 
 O                    0     14.21043   2.71933   4.12969 
 C                    0     8.64278   1.25179   3.78365 
 O                    0     8.50864   1.48673   2.57988 
 N                    0     7.65724   1.49363   4.68272 
 H                    0     7.7531    1.08473   5.60418 
 C                    -1    6.30599   1.83547   4.23487 
 H                    0     6.44366   2.36268   3.29206 
 C                    0     5.51347   0.54451   3.96701 
 H                    0     5.41429  -0.02029   4.90028 
 H                    0     6.11071  -0.07924   3.29053 
 C                    0     4.12028   0.72519   3.34123 
 O                    0     3.74734   1.91367   3.1052 
 O                    0     3.46022  -0.31162   3.09852 
 C                    0     5.5843    2.72004   5.25289 
 O                    0     5.22537   2.24439   6.32983 
 N                    0     5.33358   4.01032   4.92479 
 C                    0     4.70414   4.88723   5.90898 
 H                    0     3.63189   4.66071   5.97421 
 H                    0     5.14297   4.71105   6.89382 
 C                    0     4.95989   6.29973   5.37714 
 H                    0     4.14572   6.98663   5.62678 
 H                    0     5.89293   6.6838    5.79622 
 C                    0     5.11306   6.10489   3.86463 
 H                    0     5.69577   6.89413   3.38308 
 H                    0     4.13812   6.07402   3.37758 
 C                    -1    5.80284   4.73493   3.7439 
 H                    0     5.52074   4.22062   2.82241 
 C                    0     7.33417   4.95589   3.82922 
 O                    0     7.86725   5.21887   4.90096 
 N                    0     7.98092   4.91295   2.64588 
 H                    0     7.4565    4.65205   1.81712 
 C                    -1    9.38536   5.25441   2.48637 
 H                    0     9.86963   5.13178   3.45857 
 C                    0     10.06902   4.3823    1.4298 
 H                    0     9.50625   4.43696   0.48715 
 H                    0     10.04352   3.33848   1.76183 
 C                    0     11.48393   4.86073   1.21101 
 C                    0     12.47476   4.59913   2.15734 
 H                    0     12.26651   3.98816   3.02813 
 C                    0     13.76117   5.10372   2.00765 
 H                    0     14.505    4.81775   2.74538 
 C                    0     14.07043   5.89206   0.90155 
 H                    0     15.07538   6.28962   0.77633 
 C                    0     13.09413   6.1524   -0.05818 
 H                    0     13.33296   6.73543  -0.94234 
 C                    0     11.80932   5.63904   0.09899 
 H                    0     11.05001   5.84489  -0.65157 
 H                    0     9.48667   6.31214   2.20484 
 H                    0     1.95147  -6.11927   9.80507 
 C                    -1    1.88697  -5.13219   9.32992 
 H                    0     1.64402  -4.40005   10.10108 
 C                    0     3.24063  -4.78066   8.67237 
 H                    0     3.49608  -5.53293   7.91498 
 H                    0     4.01141  -4.85911   9.44718 
 C                    0     3.29095  -3.40184   8.04788 
 C                    0     3.46159  -2.27764   8.86205 
 H                    0     3.55085  -2.4078    9.93962 
 C                    0     3.56767  -1.00723   8.30519 
 H                    0     3.73748  -0.14493   8.94357 
 C                    0     3.50788  -0.83993   6.9225 
 H                    0     3.64355   0.14891   6.49295 
 C                    0     3.32912  -1.94975   6.09993 
 H                    0     3.31591  -1.80696   5.02071 
 C                    0     3.21615  -3.22203   6.66427 
 H                    0     3.10262  -4.08987   6.01606 
 C                    0     0.73545  -5.14611   8.31991 
 O                    0    -0.20535  -4.3464    8.39279 
 N                    0     0.81056  -6.09379   7.35804 
 H                    0     1.63401  -6.67611   7.36401 
 C                    -1   -0.15672  -6.33739   6.2815 
 H                    0    -0.31406  -5.40863   5.72194 
 C                    0     0.34744  -7.441     5.34988 
 H                    0     0.66496  -8.30239   5.95295 
 H                    0    -0.504    -7.784     4.75184 
 C                    0     1.45074  -6.98174   4.42851 
 C                    0     2.78844  -6.9161    4.82923 
 H                    0     3.08482  -7.27547   5.81295 
 C                    0     3.77639  -6.42166   3.98694 
 H                    0     4.81204  -6.3621    4.30606 
 C                    0     3.43724  -6.01205   2.69727 
 O                    0     4.41996  -5.55009   1.8886 
 H                    0     4.1077   -5.48675   0.95672 
 C                    0     2.11319  -6.10162   2.26593 
 H                    0     1.86199  -5.83285   1.24575 
 C                    0     1.13614  -6.56196   3.13702 
 H                    0     0.10505  -6.61124   2.79566 
 H                    0    -1.11561  -6.62299   6.73182 
 H                    0    -2.63639  -5.08862   9.907 
 C                    -1   -3.25026  -4.19993   10.09997 
 H                    0    -4.10097  -4.48697   10.71908 
 C                    0    -2.37791  -3.09921   10.73423 
 H                    0    -2.99682  -2.4389    11.3505 
 H                    0    -1.97473  -2.47389   9.93266 
 C                    0    -1.1944   -3.62639   11.55814 
 H                    0    -1.50785  -3.96613   12.54773 
 H                    0    -0.7415   -4.47153   11.02576 
 C                    0    -0.13466  -2.5439    11.74732 
 O                    0     0.1024   -2.02451   12.82427 
 N                    0     0.50139  -2.19684   10.59247 
 H                    0     0.335    -2.68411   9.71915 
 H                    0     1.21527  -1.4846    10.6156 
 C                    0    -3.81539  -3.70212   8.73698 
 O                    0    -5.01676  -3.52163   8.55672 
 N                    0    -2.89851  -3.44174   7.74119 
 H                    0    -1.92486  -3.67925   7.92772 
 C                    -1   -3.14271  -2.4994    6.63549 
 H                    0    -2.18724  -2.33096   6.13197 
 H                    0    -3.49897  -1.53802   7.01642 
 C                    0    -4.16623  -2.93116   5.57542 
 O                    0    -4.67999  -2.08859   4.85085 
 N                    0    -4.41973  -4.26009   5.48353 
 H                    0    -3.91568  -4.86375   6.11966 
 C                    -1   -5.37072  -4.85531   4.55369 
 H                    0    -5.80581  -4.02373   3.99305 
 C                    0    -4.69089  -5.84837   3.59934 
 H                    0    -4.37854  -6.72816   4.17998 
 H                    0    -5.44812  -6.20451   2.89307 
 C                    0    -3.47659  -5.29374   2.84269 
 H                    0    -2.72982  -4.97372   3.58367 
 C                    0    -2.85858  -6.40261   1.98702 
 H                    0    -1.9346   -6.06036   1.50572 
 H                    0    -2.61595  -7.28976   2.5843 
 H                    0    -3.55435  -6.70252   1.19374 
 C                    0    -3.83115  -4.08728   1.97136 
 H                    0    -4.5865   -4.36564   1.22544 
 H                    0    -4.20317  -3.24702   2.5679 
 H                    0    -2.94758  -3.73517   1.42611 
 C                    0    -6.52918  -5.57362   5.30021 
 O                    0    -7.27866  -6.31949   4.68796 
 N                    0    -6.65699  -5.35552   6.64427 
 H                    0    -6.05173  -4.68702   7.11554 
 C                    -1   -7.55165  -6.17141   7.46077 
 H                    0    -7.52649  -7.20538   7.10923 
 H                    0    -7.19372  -6.14105   8.49221 
 C                    0    -9.04513  -5.77199   7.48608 
 O                    0    -9.83848  -6.49913   8.06242 
 N                    0    -9.39405  -4.6038    6.88182 
 H                    0    -8.66255  -4.08502   6.4198 
 C                    -1   -10.76825  -4.12341   6.81656 
 H                    0    -10.84429  -3.11116   7.22604 
 H                    0    -11.37627  -4.80416   7.41403 
 H                    0    -11.13815  -4.1251    5.78434 
 H                    0    -11.91098  -3.6279    2.62878 
 C                    -1   -12.27796  -3.21517   1.68317 
 H                    0    -12.77733  -4.0254    1.14007 
 C                    0    -13.29187  -2.08444   1.97347 
 H                    0    -14.05685  -2.51546   2.62797 
 H                    0    -12.80042  -1.29849   2.56208 
 C                    0    -13.99157  -1.45281   0.74632 
 H                    0    -15.00744  -1.16312   1.03518 
 H                    0    -14.1001  -2.22418  -0.02472 
 C                    0    -13.26861  -0.22278   0.15116 
 H                    0    -12.22097  -0.26681   0.45184 
 H                    0    -13.68208   0.71103   0.55127 
 C                    0    -13.30009  -0.19963  -1.37766 
 H                    0    -14.24108   0.1784   -1.78274 
 H                    0    -13.11487  -1.19834  -1.77136 
 N                    0    -12.20242   0.65751  -1.92694 
 H                    0    -12.14939   0.67673  -2.9919 
 H                    0    -11.29586   0.29762  -1.59166 
 H                    0    -12.27027   1.6207   -1.57733 
 C                    0    -11.1178  -2.73744   0.79792 
 O                    0    -11.35178  -2.20894  -0.29311 
 N                    0    -9.84314  -2.85156   1.23907 
 H                    0    -9.63904  -3.45778   2.02057 
 C                    -1   -8.73013  -2.40298   0.39346 
 H                    0    -8.87499  -1.33272   0.21224 
 C                    0    -7.35913  -2.61037   1.0599 
 H                    0    -7.22512  -3.68627   1.23925 
 C                    0    -6.25005  -2.12912   0.11466 
 H                    0    -6.15241  -2.76926  -0.76709 
 H                    0    -6.44834  -1.10346  -0.2227 
 H                    0    -5.28962  -2.12578   0.63644 
 C                    0    -7.27869  -1.85573   2.39176 
 H                    0    -7.35523  -0.77439   2.22571 
 H                    0    -8.07213  -2.1432    3.09092 
 H                    0    -6.32134  -2.03447   2.89097 
 C                    0    -8.85066  -3.13401  -0.98042 
 O                    0    -9.1274   -4.33373  -1.04503 
 N                    0    -8.64724  -2.35696  -2.06271 
 H                    0    -8.44933  -1.37226  -1.91515 
 C                    -1   -8.58644  -2.82673  -3.44086 
 H                    0    -8.53448  -3.9143   -3.42958 
 C                    0    -9.7772   -2.34371  -4.30011 
 H                    0    -9.85108  -3.01059  -5.16715 
 H                    0    -9.55095  -1.34723  -4.69891 
 C                    0    -11.10539  -2.23154  -3.55297 
 H                    0    -11.82419  -1.73579  -4.21579 
 H                    0    -10.95637  -1.57898  -2.68829 
 C                    0    -11.68509  -3.53307  -2.99924 
 H                    0    -11.05938  -3.93343  -2.2029 
 H                    0    -12.65984  -3.34383  -2.53938 
 N                    0    -11.86847  -4.54528  -4.03015 
 H                    0    -12.49893  -4.2957   -4.77849 
 C                    0    -11.0007  -5.53091  -4.31473 
 N                    0    -10.07272  -5.92424  -3.4437 
 H                    0    -9.84774  -5.42496  -2.58177 
 H                    0    -9.39574  -6.59431  -3.80063 
 N                    0    -11.11512  -6.20045  -5.4699 
 H                    0    -11.63316  -5.75009  -6.20937 
 H                    0    -10.22416  -6.67102  -5.76232 
 C                    0    -7.27201  -2.24469  -4.02322 
 O                    0    -6.82525  -1.18258  -3.56638 
 N                    0    -6.67626  -2.91998  -5.01133 
 H                    0    -7.15081  -3.75647  -5.39476 
 C                    -1   -5.32041  -2.58919  -5.45956 
 H                    0    -5.22854  -1.5075   -5.58179 
 C                    0    -4.27441  -3.0791   -4.45948 
 H                    0    -3.27527  -2.74573  -4.75781 
 H                    0    -4.27291  -4.17225  -4.38221 
 H                    0    -4.48777  -2.67014  -3.46819 
 H                    0    -5.17166  -3.07758  -6.42781 
 H                    0     6.65011  -0.71831  -9.8014 
 C                    -1    5.62164  -0.51408  -10.1189 
 H                    0     5.63571  -0.30963  -11.19385 
 C                    0     4.70219  -1.69226  -9.7969 
 H                    0     5.05042  -2.58435  -10.33067 
 H                    0     3.6877   -1.48382  -10.15831 
 C                    0     4.65244  -2.00019  -8.30091 
 H                    0     4.21178  -1.15861  -7.74949 
 H                    0     5.66611  -2.16814  -7.91668 
 S                    0     3.66667  -3.50025  -7.989 
 C                    0     4.00439  -3.72002  -6.22181 
 H                    0     5.08025  -3.68784  -6.0261 
 H                    0     3.48917  -2.97556  -5.60832 
 H                    0     3.65261  -4.71231  -5.93461 
 H                    0     5.28967   0.3997   -9.61099 
 H                    0     0.66181   1.92972  -8.30383 
 C                    -1   -0.25148   1.41099  -8.62487 
 H                    0    -0.2104    1.35091  -9.7154 
 C                    0    -0.3041   -0.00175  -8.00822 
 H                    0    -1.33373  -0.38103  -8.03086 
 H                    0     0.28122  -0.66676  -8.65463 
 C                    0     0.25403  -0.11417  -6.60237 
 C                    0    -0.52664  -0.55578  -5.53092 
 H                    0    -1.57581  -0.80151  -5.69219 
 C                    0     0.02663  -0.69011  -4.25506 
 H                    0    -0.58954  -1.0496   -3.43628 
 C                    0     1.36365  -0.38432  -4.03448 
 H                    0     1.80055  -0.48568  -3.04626 
 C                    0     2.14447   0.0778   -5.09355 
 H                    0     3.17591   0.36466  -4.91216 
 C                    0     1.59465   0.2077   -6.361 
 H                    0     2.20668   0.59577  -7.1702 
 C                    0    -1.4138    2.34966  -8.33285 
 O                    0    -1.76508   3.20118  -9.13511 
 N                    0    -2.02931   2.1597   -7.12888 
 H                    0    -1.62106   1.47118  -6.51151 
 C                    -1   -3.33783   2.66823  -6.75402 
 H                    0    -3.27747   3.69025  -6.35736 
 C                    0    -4.32711   2.61385  -7.94773 
 H                    0    -3.93561   3.29323  -8.70473 
 H                    0    -4.25051   1.60948  -8.3788 
 C                    0    -5.8053    2.97162  -7.71381 
 H                    0    -5.88561   3.93488  -7.19456 
 H                    0    -6.23405   3.12562  -8.70993 
 C                    0    -6.72875   1.98612  -6.96198 
 H                    0    -7.76609   2.20471  -7.22466 
 H                    0    -6.64229   2.11575  -5.87933 
 N                    0    -6.45744   0.5833   -7.26028 
 H                    0    -5.52414   0.2843   -6.96578 
 C                    0    -7.2657   -0.34411  -7.75893 
 N                    0    -8.57281  -0.19793  -7.94656 
 H                    0    -9.27463   0.33997  -7.38444 
 H                    0    -9.02285  -0.92532  -8.48398 
 N                    0    -6.70447  -1.5111   -8.18226 
 H                    0    -5.70089  -1.59588  -8.11189 
 H                    0    -7.2103   -2.36484  -7.98314 
 C                    0    -3.85194   1.68682  -5.69831 
 O                    0    -3.96854   0.48624  -5.99171 
 N                    0    -4.19988   2.17516  -4.50398 
 H                    0    -4.17868   3.17454  -4.33737 
 C                    -1   -4.98251   1.39735  -3.55823 
 H                    0    -5.29079   0.47904  -4.06232 
 C                    0    -4.2078    0.99895  -2.28367 
 H                    0    -4.92181   0.43246  -1.67154 
 C                    0    -3.03563   0.08927  -2.64791 
 H                    0    -2.29307   0.63768  -3.23825 
 H                    0    -3.35923  -0.77563  -3.23272 
 H                    0    -2.53849  -0.2711   -1.74054 
 C                    0    -3.71337   2.20052  -1.48285 
 H                    0    -2.93311   2.74021  -2.03324 
 H                    0    -3.27802   1.87107  -0.53369 
 H                    0    -4.52156   2.90167  -1.264 
 C                    0    -6.23222   2.26297  -3.25846 
 O                    0    -6.15176   3.48855  -3.25061 
 N                    0    -7.39378   1.58902  -3.06344 
 H                    0    -7.37128   0.56894  -3.08905 
 C                    -1   -8.63609   2.25511  -2.72016 
 H                    0    -8.45022   3.3305   -2.74729 
 C                    0    -9.82746   1.81435  -3.57139 
 H                    0    -10.68369   2.4369   -3.29094 
 H                    0    -10.04302   0.79439  -3.25046 
 C                    0    -9.75192   1.7131   -5.06865 
 H                    0    -8.82358   1.20641  -5.35557 
 H                    0    -9.76587   2.68494  -5.57526 
 C                    0    -10.944    0.85316  -5.56006 
 O                    0    -11.88621   0.61822  -4.75015 
 O                    0    -10.85274   0.4364   -6.73642 
 C                    0    -9.13282   1.76306  -1.34473 
 O                    0    -9.13148   0.54665  -1.11654 
 N                    0    -9.80991   2.61652  -0.54017 
 H                    0    -9.59452   3.60473  -0.60512 
 C                    -1   -10.28314   2.12977   0.75541 
 H                    0    -10.88021   1.23426   0.56157 
 C                    0    -9.12044   1.68374   1.67392 
 H                    0    -8.69882   0.77342   1.24049 
 H                    0    -9.54487   1.37257   2.63573 
 C                    0    -7.99295   2.69948   1.91566 
 H                    0    -8.38893   3.71538   1.99619 
 H                    0    -7.46494   2.47041   2.8457 
 S                    0    -6.75345   2.68176   0.56414 
 C                    0    -5.98739   4.30715   0.82578 
 H                    0    -5.93842   4.53198   1.89416 
 H                    0    -4.96721   4.27195   0.43805 
 H                    0    -6.53521   5.09416   0.30236 
 C                    0    -11.30413   3.13768   1.35338 
 O                    0    -12.24916   3.50117   0.65964 
 N                    0    -11.12349   3.47503   2.65284 
 H                    0    -10.23551   3.27599   3.09883 
 C                    -1   -11.92286   4.41061   3.44829 
 H                    0    -12.50743   5.02666   2.7544 
 C                    0    -12.87983   3.65759   4.40375 
 H                    0    -12.25204   3.10492   5.11573 
 C                    0    -13.7731   4.62299   5.18768 
 H                    0    -14.37624   5.23638   4.50504 
 H                    0    -14.46623   4.06355   5.82324 
 H                    0    -13.19504   5.28927   5.83354 
 C                    0    -13.73135   2.65292   3.62259 
 H                    0    -14.31101   3.15642   2.84055 
 H                    0    -13.11051   1.89078   3.14291 
 H                    0    -14.42934   2.1452    4.29621 
 C                    0    -10.88241   5.27042   4.20833 
 O                    0    -9.78194   4.78629   4.45667 
 N                    0    -11.25432   6.51328   4.59337 
 H                    0    -12.13349   6.8678    4.24625 
 C                    -1   -10.32485   7.46576   5.21164 
 H                    0    -9.49517   6.87083   5.59471 
 C                    0    -9.81967   8.52186   4.21115 
 H                    0    -9.8295    8.0617    3.21478 
 H                    0    -10.5124   9.37102   4.17397 
 C                    0    -8.43102   8.99349   4.5074 
 C                    0    -8.01035   10.25684   4.80714 
 H                    0    -8.58801   11.16146   4.93936 
 N                    0    -6.63518   10.2864   4.90027 
 H                    0    -6.0838    11.09789   5.12212 
 C                    0    -6.13944   9.02374   4.66314 
 C                    0    -4.823     8.55344   4.63707 
 H                    0    -3.98081   9.21634   4.81306 
 C                    0    -4.63173   7.20504   4.38623 
 H                    0    -3.62135   6.80798   4.35955 
 C                    0    -5.72217   6.33694   4.18262 
 H                    0    -5.54566   5.27274   4.05295 
 C                    0    -7.02247   6.81105   4.19256 
 H                    0    -7.85559   6.1217    4.07766 
 C                    0    -7.24451   8.17859   4.4245 
 H                    0    -10.81912   7.93468   6.06761 
 H                    0    -11.3353   7.82755  -0.10488 
 C                    -1   -10.66442   7.36149  -0.83259 
 H                    0    -10.65514   7.97971  -1.7356 
 C                    0    -9.25603   7.23528  -0.26963 
 H                    0    -8.56404   6.83053  -1.01323 
 H                    0    -8.88096   8.20806   0.05441 
 S                    0    -9.33308   6.11395   1.17011 
 H                    0    -8.11411   6.35575   1.68458 
 H                    0    -11.08152   6.38298  -1.09624 
 H                    0    -4.98432   6.14186  -3.03921 
 C                    -1   -3.99743   6.55309  -2.80256 
 H                    0    -4.08909   7.64446  -2.74974 
 C                    0    -3.46361   5.96042  -1.50472 
 H                    0    -3.53318   4.87001  -1.57322 
 H                    0    -4.11156   6.25198  -0.66594 
 C                    0    -2.01404   6.32332  -1.16472 
 H                    0    -1.39701   6.0741   -2.03709 
 C                    0    -1.82633   7.8132   -0.87231 
 H                    0    -2.10634   8.43944  -1.72667 
 H                    0    -2.43229   8.11809  -0.00882 
 H                    0    -0.77909   8.02773  -0.62852 
 C                    0    -1.54065   5.48416   0.01865 
 H                    0    -1.68043   4.41261  -0.16882 
 H                    0    -2.11671   5.748     0.91464 
 H                    0    -0.48223   5.64539   0.24696 
 H                    0    -3.32609   6.32066  -3.63925 
 H                    0     0.94408   4.95849  -5.16217 
 C                    -1    1.74384   4.4869   -4.58338 
 H                    0     2.23979   5.24862  -3.96922 
 C                    0     1.16662   3.36445  -3.69235 
 H                    0     0.78633   2.58618  -4.36721 
 C                    0     2.23578   2.74656  -2.78774 
 H                    0     1.80646   1.93004  -2.19721 
 H                    0     3.08109   2.33485  -3.34634 
 H                    0     2.62489   3.49728  -2.08812 
 C                    0     0.00655   3.88124  -2.84326 
 H                    0    -0.43705   3.06718  -2.25666 
 H                    0    -0.78304   4.32579  -3.46268 
 H                    0     0.35536   4.63963  -2.13153 
 C                    0     2.71997   3.86401  -5.59233 
 O                    0     2.29527   3.23293  -6.55885 
 N                    0     4.05481   3.98128  -5.33259 
 H                    0     4.37583   4.54786  -4.54715 
 C                    -1    5.06554   3.29365  -6.1398 
 H                    0     4.50027   2.69202  -6.85952 
 C                    0     5.98373   4.26391  -6.90632 
 H                    0     6.47066   4.90671  -6.16122 
 C                    0     7.07206   3.48187  -7.64737 
 H                    0     7.7363    4.15503  -8.19578 
 H                    0     7.69802   2.91069  -6.95473 
 H                    0     6.62834   2.78505  -8.37165 
 C                    0     5.15326   5.14928  -7.84365 
 H                    0     4.32814   5.58413  -7.2696 
 H                    0     4.69184   4.52088  -8.61828 
 C                    0     5.95122   6.27827  -8.4948 
 H                    0     6.44941   6.8919   -7.7354 
 H                    0     5.29209   6.93263  -9.07486 
 H                    0     6.7211    5.90104  -9.17592 
 C                    0     5.88346   2.4024   -5.20859 
 O                    0     6.58792   2.90133  -4.33683 
 N                    0     5.8036    1.07102  -5.40752 
 H                    0     5.29306   0.74154  -6.21408 
 C                    -1    6.63699   0.12379  -4.67889 
 H                    0     6.95948   0.59056  -3.74644 
 C                    0     5.92992  -1.18613  -4.41645 
 H                    0     5.45535  -1.57902  -5.32372 
 H                    0     6.66298  -1.94803  -4.12948 
 C                    0     4.88042  -1.12698  -3.33377 
 O                    0     4.5472   -0.12838  -2.72737 
 O                    0     4.35268  -2.32906  -3.12923 
 H                    0     3.7266   -2.29792  -2.35904 
 H                    0     7.54671  -0.07185  -5.26041 
 H                    0     11.57935  -3.17461  -4.21382 
 C                    -1    11.52208  -4.16558  -4.67848 
 H                    0     11.81981  -4.90432  -3.92577 
 C                    0     10.11635  -4.4516   -5.20414 
 H                    0     10.09682  -5.4354   -5.68837 
 H                    0     9.85289  -3.71661  -5.97468 
 C                    0     9.05913  -4.42302  -4.10031 
 H                    0     9.01009  -3.42929  -3.63776 
 H                    0     9.30849  -5.14508  -3.31326 
 S                    0     7.43323  -4.85902  -4.79958 
 C                    0     6.43156  -4.97848  -3.29414 
 H                    0     6.33523  -4.01476  -2.78948 
 H                    0     5.43497  -5.30058  -3.60364 
 H                    0     6.84414  -5.72055  -2.60462 
 H                    0     12.25688  -4.19576  -5.48899 
 H                    0     11.40597  -3.79376   0.01152 
 C                    -1    10.54801  -3.25124  -0.39376 
 H                    0     10.62898  -3.25849  -1.48928 
 C                    0     9.24571  -3.94696   0.03231 
 H                    0     9.22322  -4.93119  -0.45235 
 H                    0     9.25393  -4.13266   1.1104 
 C                    0     7.94137  -3.22489  -0.33418 
 H                    0     8.00943  -2.77714  -1.33505 
 H                    0     7.1418   -3.97003  -0.35064 
 S                    0     7.43519  -1.94089   0.87376 
 C                    0     5.63608  -2.174     0.80343 
 H                    0     5.36951  -3.2018    1.07157 
 H                    0     5.24262  -1.93913  -0.19057 
 H                    0     5.16828  -1.50553   1.53511 
 C                    0     10.62601  -1.8153    0.14293 
 O                    0     10.87884  -1.62061   1.32701 
 N                    0     10.37575  -0.82085  -0.74594 
 H                    0     10.05763  -1.06506  -1.67463 
 C                    -1    10.12751   0.58204  -0.39718 
 H                    0     10.10805   0.65056   0.69406 
 C                    0     11.17044   1.52451  -0.99136 
 H                    0     11.0792   1.50492  -2.08191 
 H                    0     10.93101   2.54523  -0.6688 
 C                    0     12.59585   1.16573  -0.57759 
 H                    0     12.67735   1.00797   0.50353 
 H                    0     12.89707   0.2376   -1.07777 
 C                    0     13.54229   2.26904  -1.01227 
 O                    0     13.5194   2.69264  -2.1868 
 N                    0     14.36336   2.71924  -0.06918 
 H                    0     14.26353   2.39521   0.92015 
 H                    0     14.9036   3.54701  -0.27477 
 C                    0     8.74462   0.92358  -0.99211 
 O                    0     8.47633   0.53759  -2.13338 
 N                    0     7.92533   1.68724  -0.23945 
 H                    0     8.13153   1.78172   0.75666 
 C                    -1    6.60431   2.11295  -0.69988 
 H                    0     6.48941   1.73734  -1.71887 
 C                    0     5.48938   1.57216   0.18204 
 H                    0     4.51306   1.86411  -0.22045 
 H                    0     5.56498   1.9505    1.20393 
 H                    0     5.53444   0.48211   0.20089 
 C                    0     6.60175   3.65479  -0.71063 
 O                    0     6.43448   4.31205   0.32119 
 N                    0     6.80733   4.24772  -1.89937 
 H                    0     6.80785   3.68341  -2.74436 
 C                    -1    6.90412   5.69277  -2.05718 
 H                    0     7.44742   6.09197  -1.19528 
 C                    0     7.64261   6.03513  -3.36188 
 H                    0     7.46708   7.09577  -3.5753 
 H                    0     7.15784   5.47088  -4.16613 
 C                    0     9.13101   5.77308  -3.32794 
 C                    0     9.66412   4.47795  -3.31426 
 H                    0     9.00697   3.61312  -3.34635 
 C                    0     11.03477   4.26417  -3.27161 
 H                    0     11.44435   3.26139  -3.24195 
 C                    0     11.92517   5.34516  -3.24016 
 O                    0     13.25721   5.18305  -3.16278 
 H                    0     13.45878   4.27747  -2.8113 
 C                    0     11.40673   6.64243  -3.29569 
 H                    0     12.09368   7.48309  -3.28048 
 C                    0     10.03128   6.84181  -3.32793 
 H                    0     9.64813   7.86078  -3.34893 
 C                    0     5.47183   6.28515  -2.10478 
 O                    0     4.73694   6.0825   -3.07611 
 N                    0     5.09257   7.05711  -1.05744 
 H                    0     5.63879   7.05489  -0.20303 
 C                    -1    3.80717   7.73154  -0.9887 
 H                    0     3.68219   8.30955  -1.91371 
 C                    0     2.60924   6.74005  -0.89785 
 H                    0     1.67425   7.31487  -0.95317 
 H                    0     2.65332   6.13587  -1.80819 
 C                    0     2.60339   5.86146   0.3123 
 C                    0     3.31617   4.69595   0.46016 
 H                    0     3.98758   4.22133  -0.2383 
 N                    0     3.11272   4.15709   1.69453 
 H                    0     3.51168   3.29114   2.08265 
 C                    0     2.24962   4.96039   2.38646 
 C                    0     1.75715   4.81113   3.68612 
 H                    0     2.05229   3.95073   4.27941 
 C                    0     0.92217   5.8052    4.16497 
 H                    0     0.53036   5.73299   5.17577 
 C                    0     0.56887   6.91105   3.36317 
 H                    0    -0.08996   7.67338   3.77108 
 C                    0     1.05314   7.04613   2.07264 
 H                    0     0.77669   7.90773   1.46819 
 C                    0     1.91278   6.06089   1.55801 
 C                    0     3.81648   8.69229   0.20812 
 O                    0     4.66667   8.64548   1.07961 
 N                    0     2.79127   9.59957   0.21602 
 H                    0     2.08723   9.51625  -0.50075 
 C                    -1    2.49076   10.45589   1.36702 
 H                    0     2.61205   9.87044   2.28521 
 C                    0     3.38865   11.68803   1.39469 
 H                    0     4.42807   11.37149   1.55122 
 H                    0     3.09869   12.33118   2.23086 
 O                    0     3.24941   12.46249   0.2211 
 H                    0     3.5865    11.91831  -0.50159 
 H                    0     1.44448   10.76089   1.2784 
 H                    0    -3.91872   11.73061  -1.34686 
 C                    -1   -4.46373   10.80491  -1.13627 
 H                    0    -3.72373   10.03093  -0.91089 
 C                    0    -5.44657   11.00045   0.01741 
 H                    0    -6.08971   11.8628  -0.20495 
 H                    0    -4.89175   11.26068   0.93049 
 C                    0    -6.34614   9.79243   0.32568 
 H                    0    -6.8769    9.52697  -0.60247 
 C                    0    -5.54805   8.56904   0.78224 
 H                    0    -4.9804    8.78674   1.69537 
 H                    0    -6.2122    7.72742   1.01636 
 H                    0    -4.84587   8.23175   0.01431 
 C                    0    -7.37949   10.17979   1.38469 
 H                    0    -6.87823   10.53079   2.29366 
 H                    0    -8.03902   10.98109   1.03091 
 H                    0    -8.00117   9.328     1.68419 
 H                    0    -4.9872    10.50872  -2.05356 
 C                    0     2.18491  -2.11627  -0.20702 
 O                    0     2.81815  -2.77606  -1.06219 
 C                    0     2.14677  -0.68937  -0.22556 
 C                    0     1.42178   0.00201   0.69269 
 C                    0    -1.81626   2.37283   2.40393 
 C                    0    -2.89371   1.67601   3.25962 
 C                    0    -3.23712   0.32691   2.62885 
 C                    0    -1.97455  -0.54025   2.50566 
 C                    0    -1.71217   3.7636    3.02981 
 C                    0    -3.18636   4.09743   3.34869 
 C                    0    -2.47822   1.47029   4.72865 
 H                    0    -2.27527   2.50417   1.40696 
 H                    0    -3.65961   0.49454   1.62579 
 H                    0    -3.99634  -0.20219   3.21578 
 H                    0    -1.6023   -0.8055    3.50464 
 H                    0    -2.24615  -1.48572   2.02395 
 H                    0    -1.22914   4.49782   2.38495 
 H                    0     2.82311  -0.18334  -0.91188 
 H                    0    -1.10578   3.72019   3.93989 
 H                    0    -3.58351   4.87996   2.69292 
 H                    0    -3.30755   4.45912   4.37758 
 H                    0    -2.41436   2.41085   5.28738 
 H                    0    -3.20708   0.82209   5.23047 
 H                    0    -1.49886   0.9921    4.81626 
 C                    0     1.49699  -2.83889   0.91218 
 H                    0     2.18704  -2.8365    1.76847 
 H                    0     1.32165  -3.87446   0.61285 
 C                    0     0.20039  -2.13292   1.28104 
 H                    0    -0.27134  -2.65172   2.1211 
 H                    0    -0.49849  -2.19387   0.43314 
 C                    0     1.61654   1.46333   0.8682 
 H                    0     2.26589   1.54079   1.76313 
 H                    0     2.18554   1.88271   0.03402 
 C                    0     0.33555   2.25519   1.11582 
 H                    0    -0.2454    2.34074   0.18371 
 H                    0     0.60009   3.27216   1.41618 
 C                    0     0.44809  -0.66707   1.63587 
 H                    0     0.95301  -0.61641   2.61534 
 O                    0    -5.10885   2.64718   4.01181 
 H                    0    -4.79945   2.66856   4.92657 
 C                    0    -0.86253   0.15149   1.70005 
 H                    0    -1.24332   0.24035   0.6654 
 C                    0    -0.54163   1.58336   2.17429 
 H                    0     0.03137   1.52617   3.1121 
 C                    0    -3.97653   2.76983   3.16695 
 H                    0    -4.4005    2.71917   2.16061 
 
 Stoichiometry    C246H397N38O46S5(1-)
 Framework group  C1[X(C246H397N38O46S5)]
 Deg. of freedom  2190
 Full point group                 C1      NOp   1
 Largest Abelian subgroup         C1      NOp   1
 Largest concise Abelian subgroup C1      NOp   1
                         Standard orientation:                         
 ---------------------------------------------------------------------
 Center     Atomic      Atomic             Coordinates (Angstroms)
 Number     Number       Type             X           Y           Z
 ---------------------------------------------------------------------
      1          1           0        1.906190   -9.586114   -6.553477
      2          6           0        1.876035   -9.065181   -5.587426
      3          1           0        1.786225   -9.820511   -4.803482
      4          6           0        3.176674   -8.260130   -5.402147
      5          1           0        4.015728   -8.961493   -5.468756
      6          1           0        3.306266   -7.563781   -6.241323
      7          6           0        3.259293   -7.491087   -4.102197
      8          6           0        3.938843   -7.980995   -2.984090
      9          1           0        4.428616   -8.950654   -3.033478
     10          6           0        4.027270   -7.242654   -1.806745
     11          1           0        4.579154   -7.618897   -0.950443
     12          6           0        3.428684   -5.986471   -1.738372
     13          8           0        3.535809   -5.255748   -0.596256
     14          1           0        3.244775   -4.317510   -0.757287
     15          6           0        2.734944   -5.483241   -2.836161
     16          1           0        2.276499   -4.501678   -2.785902
     17          6           0        2.655499   -6.238523   -3.995002
     18          1           0        2.102599   -5.843032   -4.838119
     19          6           0        0.569225   -8.254538   -5.517600
     20          8           0       -0.341893   -8.578599   -4.766930
     21          7           0        0.454897   -7.170883   -6.344840
     22          1           0        1.177727   -6.996713   -7.028123
     23          6           0       -0.784334   -6.403373   -6.443990
     24          1           0       -1.226225   -6.384046   -5.444379
     25          6           0       -0.585461   -4.981490   -6.976353
     26          1           0       -0.114013   -5.048348   -7.968385
     27          6           0       -1.963334   -4.336403   -7.166494
     28          1           0       -1.860474   -3.290663   -7.477299
     29          1           0       -2.537622   -4.356483   -6.233738
     30          1           0       -2.547964   -4.865468   -7.928008
     31          6           0        0.335741   -4.121917   -6.096909
     32          1           0        1.356100   -4.510405   -6.171773
     33          1           0        0.382726   -3.111165   -6.519615
     34          6           0       -0.061580   -4.042033   -4.625956
     35          1           0        0.612868   -3.366730   -4.091972
     36          1           0       -0.011438   -5.021452   -4.141130
     37          1           0       -1.078266   -3.652940   -4.495422
     38          1           0       -1.497974   -6.936899   -7.089151
     39          1           0       -2.800495   -8.183414   -2.521677
     40          6           0       -3.037530   -7.271191   -1.960943
     41          1           0       -2.990542   -7.506403   -0.893626
     42          6           0       -1.982416   -6.195693   -2.299057
     43          1           0       -2.001237   -6.048341   -3.388025
     44          6           0       -2.274257   -4.848594   -1.634107
     45          1           0       -3.253272   -4.448877   -1.915258
     46          1           0       -2.265678   -4.947578   -0.542857
     47          1           0       -1.507706   -4.116826   -1.915598
     48          6           0       -0.595751   -6.706630   -1.905968
     49          1           0        0.174806   -5.957648   -2.113477
     50          1           0       -0.331201   -7.615474   -2.455041
     51          1           0       -0.564861   -6.922393   -0.831069
     52          6           0       -4.469124   -6.803079   -2.240436
     53          8           0       -5.149903   -6.245977   -1.388516
     54          7           0       -4.926599   -6.984276   -3.521769
     55          1           0       -4.376213   -7.566998   -4.136587
     56          6           0       -6.299554   -6.685790   -3.931553
     57          1           0       -6.616563   -5.813614   -3.350206
     58          6           0       -6.382434   -6.411072   -5.431423
     59          1           0       -5.733963   -5.571925   -5.701899
     60          1           0       -6.052805   -7.297101   -5.986046
     61          6           0       -7.842865   -6.127721   -5.788537
     62          8           0       -8.185605   -4.956136   -6.094192
     63          8           0       -8.619566   -7.116765   -5.664821
     64          1           0       -6.966272   -7.519295   -3.680051
     65          1           0        1.262044  -12.733034    0.713301
     66          6           0        1.953008  -11.936292    0.414353
     67          1           0        1.984307  -11.913925   -0.682518
     68          6           0        1.512988  -10.578078    0.966463
     69          1           0        1.486431  -10.649487    2.064415
     70          6           0        2.520752   -9.489937    0.584636
     71          1           0        2.529523   -9.336025   -0.501772
     72          1           0        3.536186   -9.766781    0.892491
     73          1           0        2.287878   -8.530360    1.056322
     74          6           0        0.093137  -10.244123    0.484053
     75          1           0        0.114324  -10.093187   -0.604700
     76          1           0       -0.554512  -11.113162    0.662513
     77          6           0       -0.527570   -9.020313    1.152147
     78          1           0       -1.548345   -8.849028    0.793430
     79          1           0       -0.567103   -9.143882    2.241931
     80          1           0        0.052537   -8.116089    0.946205
     81          1           0        2.954205  -12.204179    0.770176
     82          1           0        7.744240  -11.970493    0.546151
     83          6           0        8.749243  -11.957589    0.981769
     84          1           0        9.416763  -11.478822    0.257291
     85          6           0        8.750461  -11.190048    2.306247
     86          1           0        8.093546  -11.694857    3.024836
     87          1           0        9.758961  -11.206907    2.737597
     88          6           0        8.297351   -9.766472    2.105214
     89          6           0        6.976113   -9.385557    2.325697
     90          1           0        6.265239  -10.114225    2.710938
     91          6           0        6.539223   -8.090506    2.064023
     92          1           0        5.504743   -7.817043    2.245060
     93          6           0        7.438569   -7.142188    1.571887
     94          8           0        7.086112   -5.862976    1.310695
     95          1           0        6.206105   -5.685168    1.689142
     96          6           0        8.765064   -7.510943    1.336860
     97          1           0        9.459771   -6.762193    0.971323
     98          6           0        9.179951   -8.805333    1.604333
     99          1           0       10.218765   -9.076436    1.426971
    100          1           0        9.078935  -12.994385    1.116111
    101          1           0       10.746056   -3.477712    4.623650
    102          6           0        9.755272   -3.176553    4.257237
    103          1           0        9.810010   -3.187524    3.162038
    104          6           0        8.690964   -4.149672    4.773700
    105          1           0        8.654314   -4.034267    5.863381
    106          6           0        7.302350   -3.824443    4.217385
    107          1           0        6.550279   -4.508072    4.633673
    108          1           0        7.002403   -2.804548    4.474564
    109          1           0        7.290562   -3.919795    3.125922
    110          6           0        9.089089   -5.586452    4.433072
    111          1           0       10.047118   -5.859868    4.891601
    112          1           0        8.332669   -6.304224    4.774106
    113          1           0        9.187933   -5.712185    3.348868
    114          6           0        9.523013   -1.733761    4.745699
    115          8           0        8.956987   -1.494833    5.811009
    116          7           0       10.025557   -0.752923    3.954065
    117          1           0       10.381426   -0.983441    3.029078
    118          6           0        9.965293    0.657364    4.319677
    119          1           0        9.975183    0.708970    5.412437
    120          6           0       11.143151    1.437800    3.735663
    121          1           0       11.131446    1.345724    2.644312
    122          1           0       10.971948    2.497425    3.965952
    123          6           0       12.521564    1.017722    4.247396
    124          1           0       12.667538   -0.050636    4.051159
    125          1           0       12.599266    1.195301    5.325365
    126          6           0       13.614719    1.827136    3.503101
    127          8           0       13.745545    1.513426    2.280385
    128          8           0       14.210427    2.719326    4.129687
    129          6           0        8.642782    1.251787    3.783649
    130          8           0        8.508642    1.486731    2.579877
    131          7           0        7.657239    1.493626    4.682723
    132          1           0        7.753097    1.084733    5.604179
    133          6           0        6.305989    1.835472    4.234870
    134          1           0        6.443659    2.362677    3.292061
    135          6           0        5.513472    0.544512    3.967014
    136          1           0        5.414290   -0.020290    4.900283
    137          1           0        6.110710   -0.079237    3.290529
    138          6           0        4.120285    0.725190    3.341231
    139          8           0        3.747343    1.913670    3.105198
    140          8           0        3.460222   -0.311621    3.098522
    141          6           0        5.584299    2.720040    5.252886
    142          8           0        5.225368    2.244395    6.329831
    143          7           0        5.333579    4.010315    4.924793
    144          6           0        4.704137    4.887231    5.908978
    145          1           0        3.631891    4.660710    5.974213
    146          1           0        5.142965    4.711051    6.893817
    147          6           0        4.959887    6.299730    5.377136
    148          1           0        4.145721    6.986627    5.626775
    149          1           0        5.892931    6.683804    5.796218
    150          6           0        5.113059    6.104892    3.864630
    151          1           0        5.695767    6.894128    3.383079
    152          1           0        4.138123    6.074023    3.377579
    153          6           0        5.802842    4.734929    3.743899
    154          1           0        5.520743    4.220622    2.822412
    155          6           0        7.334167    4.955886    3.829224
    156          8           0        7.867249    5.218869    4.900963
    157          7           0        7.980922    4.912953    2.645877
    158          1           0        7.456498    4.652052    1.817124
    159          6           0        9.385356    5.254409    2.486370
    160          1           0        9.869627    5.131779    3.458565
    161          6           0       10.069025    4.382298    1.429798
    162          1           0        9.506254    4.436964    0.487146
    163          1           0       10.043518    3.338480    1.761834
    164          6           0       11.483928    4.860729    1.211012
    165          6           0       12.474755    4.599126    2.157343
    166          1           0       12.266508    3.988157    3.028129
    167          6           0       13.761168    5.103718    2.007649
    168          1           0       14.504996    4.817751    2.745375
    169          6           0       14.070431    5.892059    0.901549
    170          1           0       15.075376    6.289615    0.776328
    171          6           0       13.094132    6.152405   -0.058181
    172          1           0       13.332956    6.735426   -0.942344
    173          6           0       11.809317    5.639044    0.098987
    174          1           0       11.050011    5.844890   -0.651567
    175          1           0        9.486674    6.312142    2.204840
    176          1           0        1.951467   -6.119270    9.805066
    177          6           0        1.886971   -5.132188    9.329921
    178          1           0        1.644016   -4.400053   10.101082
    179          6           0        3.240629   -4.780663    8.672368
    180          1           0        3.496078   -5.532927    7.914981
    181          1           0        4.011410   -4.859114    9.447182
    182          6           0        3.290950   -3.401835    8.047883
    183          6           0        3.461590   -2.277637    8.862046
    184          1           0        3.550849   -2.407804    9.939623
    185          6           0        3.567665   -1.007234    8.305192
    186          1           0        3.737483   -0.144933    8.943574
    187          6           0        3.507880   -0.839933    6.922502
    188          1           0        3.643551    0.148905    6.492953
    189          6           0        3.329116   -1.949752    6.099928
    190          1           0        3.315906   -1.806956    5.020709
    191          6           0        3.216149   -3.222032    6.664273
    192          1           0        3.102618   -4.089869    6.016056
    193          6           0        0.735450   -5.146109    8.319905
    194          8           0       -0.205348   -4.346402    8.392795
    195          7           0        0.810558   -6.093786    7.358035
    196          1           0        1.634007   -6.676111    7.364006
    197          6           0       -0.156716   -6.337386    6.281497
    198          1           0       -0.314064   -5.408630    5.721935
    199          6           0        0.347436   -7.440996    5.349877
    200          1           0        0.664962   -8.302386    5.952954
    201          1           0       -0.503997   -7.784004    4.751842
    202          6           0        1.450736   -6.981736    4.428505
    203          6           0        2.788440   -6.916103    4.829233
    204          1           0        3.084819   -7.275467    5.812952
    205          6           0        3.776386   -6.421664    3.986943
    206          1           0        4.812039   -6.362096    4.306062
    207          6           0        3.437241   -6.012050    2.697266
    208          8           0        4.419957   -5.550092    1.888598
    209          1           0        4.107697   -5.486746    0.956722
    210          6           0        2.113186   -6.101617    2.265932
    211          1           0        1.861993   -5.832854    1.245752
    212          6           0        1.136143   -6.561962    3.137024
    213          1           0        0.105049   -6.611242    2.795658
    214          1           0       -1.115610   -6.622994    6.731822
    215          1           0       -2.636391   -5.088624    9.906996
    216          6           0       -3.250258   -4.199928   10.099970
    217          1           0       -4.100972   -4.486971   10.719083
    218          6           0       -2.377905   -3.099208   10.734232
    219          1           0       -2.996824   -2.438898   11.350496
    220          1           0       -1.974731   -2.473891    9.932658
    221          6           0       -1.194395   -3.626387   11.558144
    222          1           0       -1.507851   -3.966133   12.547729
    223          1           0       -0.741504   -4.471528   11.025760
    224          6           0       -0.134664   -2.543897   11.747320
    225          8           0        0.102403   -2.024514   12.824268
    226          7           0        0.501387   -2.196838   10.592470
    227          1           0        0.335001   -2.684108    9.719154
    228          1           0        1.215265   -1.484604   10.615596
    229          6           0       -3.815385   -3.702122    8.736984
    230          8           0       -5.016756   -3.521634    8.556719
    231          7           0       -2.898510   -3.441735    7.741191
    232          1           0       -1.924859   -3.679253    7.927718
    233          6           0       -3.142712   -2.499396    6.635492
    234          1           0       -2.187245   -2.330956    6.131965
    235          1           0       -3.498968   -1.538020    7.016424
    236          6           0       -4.166229   -2.931158    5.575418
    237          8           0       -4.679988   -2.088591    4.850849
    238          7           0       -4.419731   -4.260093    5.483525
    239          1           0       -3.915681   -4.863753    6.119661
    240          6           0       -5.370720   -4.855309    4.553685
    241          1           0       -5.805810   -4.023729    3.993054
    242          6           0       -4.690892   -5.848372    3.599344
    243          1           0       -4.378541   -6.728156    4.179980
    244          1           0       -5.448124   -6.204510    2.893071
    245          6           0       -3.476593   -5.293737    2.842685
    246          1           0       -2.729817   -4.973720    3.583670
    247          6           0       -2.858581   -6.402612    1.987023
    248          1           0       -1.934602   -6.060356    1.505716
    249          1           0       -2.615950   -7.289763    2.584303
    250          1           0       -3.554352   -6.702519    1.193738
    251          6           0       -3.831146   -4.087283    1.971362
    252          1           0       -4.586503   -4.365640    1.225436
    253          1           0       -4.203168   -3.247023    2.567904
    254          1           0       -2.947578   -3.735174    1.426114
    255          6           0       -6.529182   -5.573619    5.300208
    256          8           0       -7.278655   -6.319495    4.687959
    257          7           0       -6.656990   -5.355515    6.644265
    258          1           0       -6.051729   -4.687019    7.115540
    259          6           0       -7.551648   -6.171413    7.460774
    260          1           0       -7.526492   -7.205384    7.109234
    261          1           0       -7.193719   -6.141050    8.492213
    262          6           0       -9.045125   -5.771991    7.486081
    263          8           0       -9.838482   -6.499128    8.062418
    264          7           0       -9.394049   -4.603797    6.881819
    265          1           0       -8.662548   -4.085025    6.419803
    266          6           0      -10.768255   -4.123407    6.816559
    267          1           0      -10.844294   -3.111155    7.226042
    268          1           0      -11.376275   -4.804160    7.414032
    269          1           0      -11.138149   -4.125104    5.784335
    270          1           0      -11.910976   -3.627902    2.628775
    271          6           0      -12.277960   -3.215174    1.683169
    272          1           0      -12.777333   -4.025398    1.140072
    273          6           0      -13.291870   -2.084439    1.973472
    274          1           0      -14.056848   -2.515458    2.627971
    275          1           0      -12.800417   -1.298487    2.562084
    276          6           0      -13.991570   -1.452809    0.746320
    277          1           0      -15.007444   -1.163123    1.035178
    278          1           0      -14.100099   -2.224183   -0.024721
    279          6           0      -13.268607   -0.222783    0.151156
    280          1           0      -12.220967   -0.266811    0.451836
    281          1           0      -13.682076    0.711030    0.551267
    282          6           0      -13.300090   -0.199634   -1.377661
    283          1           0      -14.241085    0.178399   -1.782738
    284          1           0      -13.114872   -1.198336   -1.771361
    285          7           0      -12.202415    0.657506   -1.926939
    286          1           0      -12.149390    0.676729   -2.991902
    287          1           0      -11.295861    0.297615   -1.591664
    288          1           0      -12.270269    1.620702   -1.577330
    289          6           0      -11.117800   -2.737438    0.797921
    290          8           0      -11.351779   -2.208941   -0.293109
    291          7           0       -9.843140   -2.851558    1.239067
    292          1           0       -9.639039   -3.457778    2.020570
    293          6           0       -8.730128   -2.402975    0.393456
    294          1           0       -8.874986   -1.332718    0.212241
    295          6           0       -7.359128   -2.610368    1.059899
    296          1           0       -7.225123   -3.686272    1.239254
    297          6           0       -6.250046   -2.129121    0.114658
    298          1           0       -6.152413   -2.769260   -0.767088
    299          1           0       -6.448338   -1.103463   -0.222698
    300          1           0       -5.289622   -2.125776    0.636435
    301          6           0       -7.278688   -1.855732    2.391762
    302          1           0       -7.355229   -0.774388    2.225712
    303          1           0       -8.072128   -2.143199    3.090921
    304          1           0       -6.321339   -2.034473    2.890972
    305          6           0       -8.850657   -3.134007   -0.980415
    306          8           0       -9.127398   -4.333734   -1.045035
    307          7           0       -8.647236   -2.356960   -2.062709
    308          1           0       -8.449335   -1.372255   -1.915152
    309          6           0       -8.586437   -2.826730   -3.440864
    310          1           0       -8.534481   -3.914298   -3.429576
    311          6           0       -9.777195   -2.343707   -4.300109
    312          1           0       -9.851084   -3.010593   -5.167146
    313          1           0       -9.550952   -1.347232   -4.698910
    314          6           0      -11.105385   -2.231543   -3.552974
    315          1           0      -11.824189   -1.735794   -4.215794
    316          1           0      -10.956366   -1.578976   -2.688294
    317          6           0      -11.685093   -3.533074   -2.999244
    318          1           0      -11.059376   -3.933425   -2.202900
    319          1           0      -12.659836   -3.343829   -2.539378
    320          7           0      -11.868466   -4.545285   -4.030148
    321          1           0      -12.498929   -4.295700   -4.778485
    322          6           0      -11.000699   -5.530911   -4.314728
    323          7           0      -10.072721   -5.924239   -3.443695
    324          1           0       -9.847742   -5.424963   -2.581765
    325          1           0       -9.395744   -6.594305   -3.800628
    326          7           0      -11.115122   -6.200448   -5.469898
    327          1           0      -11.633156   -5.750089   -6.209369
    328          1           0      -10.224156   -6.671021   -5.762319
    329          6           0       -7.272007   -2.244688   -4.023220
    330          8           0       -6.825246   -1.182582   -3.566378
    331          7           0       -6.676256   -2.919975   -5.011326
    332          1           0       -7.150807   -3.756465   -5.394762
    333          6           0       -5.320407   -2.589192   -5.459563
    334          1           0       -5.228537   -1.507500   -5.581793
    335          6           0       -4.274407   -3.079103   -4.459482
    336          1           0       -3.275267   -2.745726   -4.757810
    337          1           0       -4.272912   -4.172253   -4.382214
    338          1           0       -4.487766   -2.670141   -3.468189
    339          1           0       -5.171656   -3.077582   -6.427805
    340          1           0        6.650111   -0.718314   -9.801395
    341          6           0        5.621643   -0.514076  -10.118898
    342          1           0        5.635707   -0.309630  -11.193854
    343          6           0        4.702193   -1.692259   -9.796899
    344          1           0        5.050423   -2.584352  -10.330669
    345          1           0        3.687704   -1.483821  -10.158315
    346          6           0        4.652443   -2.000190   -8.300912
    347          1           0        4.211784   -1.158609   -7.749488
    348          1           0        5.666110   -2.168136   -7.916677
    349         16           0        3.666668   -3.500253   -7.988999
    350          6           0        4.004394   -3.720022   -6.221810
    351          1           0        5.080250   -3.687841   -6.026102
    352          1           0        3.489169   -2.975557   -5.608320
    353          1           0        3.652611   -4.712306   -5.934607
    354          1           0        5.289675    0.399700   -9.610988
    355          1           0        0.661809    1.929723   -8.303826
    356          6           0       -0.251478    1.410991   -8.624866
    357          1           0       -0.210400    1.350914   -9.715396
    358          6           0       -0.304099   -0.001747   -8.008221
    359          1           0       -1.333730   -0.381028   -8.030857
    360          1           0        0.281217   -0.666759   -8.654627
    361          6           0        0.254033   -0.114167   -6.602365
    362          6           0       -0.526638   -0.555778   -5.530919
    363          1           0       -1.575808   -0.801514   -5.692186
    364          6           0        0.026625   -0.690107   -4.255056
    365          1           0       -0.589544   -1.049602   -3.436277
    366          6           0        1.363650   -0.384322   -4.034484
    367          1           0        1.800548   -0.485683   -3.046259
    368          6           0        2.144471    0.077796   -5.093547
    369          1           0        3.175905    0.364664   -4.912162
    370          6           0        1.594651    0.207698   -6.360996
    371          1           0        2.206684    0.595768   -7.170197
    372          6           0       -1.413797    2.349659   -8.332846
    373          8           0       -1.765076    3.201181   -9.135111
    374          7           0       -2.029306    2.159697   -7.128882
    375          1           0       -1.621055    1.471179   -6.511513
    376          6           0       -3.337826    2.668234   -6.754019
    377          1           0       -3.277471    3.690252   -6.357363
    378          6           0       -4.327110    2.613852   -7.947734
    379          1           0       -3.935605    3.293230   -8.704727
    380          1           0       -4.250508    1.609480   -8.378797
    381          6           0       -5.805299    2.971619   -7.713807
    382          1           0       -5.885614    3.934875   -7.194557
    383          1           0       -6.234048    3.125623   -8.709925
    384          6           0       -6.728749    1.986118   -6.961980
    385          1           0       -7.766092    2.204708   -7.224663
    386          1           0       -6.642289    2.115748   -5.879331
    387          7           0       -6.457438    0.583300   -7.260277
    388          1           0       -5.524144    0.284297   -6.965781
    389          6           0       -7.265695   -0.344113   -7.758933
    390          7           0       -8.572808   -0.197931   -7.946563
    391          1           0       -9.274634    0.339965   -7.384436
    392          1           0       -9.022854   -0.925323   -8.483983
    393          7           0       -6.704466   -1.511102   -8.182256
    394          1           0       -5.700890   -1.595882   -8.111888
    395          1           0       -7.210297   -2.364842   -7.983141
    396          6           0       -3.851938    1.686816   -5.698307
    397          8           0       -3.968538    0.486241   -5.991711
    398          7           0       -4.199878    2.175157   -4.503981
    399          1           0       -4.178676    3.174541   -4.337365
    400          6           0       -4.982508    1.397346   -3.558231
    401          1           0       -5.290792    0.479042   -4.062324
    402          6           0       -4.207799    0.998954   -2.283674
    403          1           0       -4.921813    0.432463   -1.671543
    404          6           0       -3.035631    0.089274   -2.647908
    405          1           0       -2.293074    0.637677   -3.238245
    406          1           0       -3.359232   -0.775626   -3.232720
    407          1           0       -2.538485   -0.271098   -1.740543
    408          6           0       -3.713365    2.200516   -1.482845
    409          1           0       -2.933108    2.740208   -2.033238
    410          1           0       -3.278025    1.871074   -0.533691
    411          1           0       -4.521560    2.901674   -1.264004
    412          6           0       -6.232223    2.262968   -3.258456
    413          8           0       -6.151756    3.488545   -3.250606
    414          7           0       -7.393779    1.589024   -3.063439
    415          1           0       -7.371284    0.568937   -3.089052
    416          6           0       -8.636086    2.255106   -2.720162
    417          1           0       -8.450224    3.330502   -2.747286
    418          6           0       -9.827461    1.814345   -3.571391
    419          1           0      -10.683688    2.436897   -3.290940
    420          1           0      -10.043020    0.794392   -3.250455
    421          6           0       -9.751920    1.713102   -5.068645
    422          1           0       -8.823578    1.206410   -5.355567
    423          1           0       -9.765870    2.684941   -5.575258
    424          6           0      -10.944004    0.853155   -5.560065
    425          8           0      -11.886206    0.618217   -4.750154
    426          8           0      -10.852744    0.436397   -6.736420
    427          6           0       -9.132824    1.763055   -1.344725
    428          8           0       -9.131479    0.546650   -1.116540
    429          7           0       -9.809913    2.616524   -0.540170
    430          1           0       -9.594517    3.604732   -0.605118
    431          6           0      -10.283138    2.129775    0.755409
    432          1           0      -10.880211    1.234260    0.561571
    433          6           0       -9.120440    1.683735    1.673916
    434          1           0       -8.698817    0.773418    1.240493
    435          1           0       -9.544866    1.372567    2.635726
    436          6           0       -7.992947    2.699476    1.915658
    437          1           0       -8.388930    3.715381    1.996193
    438          1           0       -7.464943    2.470414    2.845701
    439         16           0       -6.753451    2.681755    0.564142
    440          6           0       -5.987392    4.307151    0.825779
    441          1           0       -5.938422    4.531983    1.894155
    442          1           0       -4.967211    4.271948    0.438048
    443          1           0       -6.535206    5.094164    0.302363
    444          6           0      -11.304127    3.137675    1.353382
    445          8           0      -12.249156    3.501174    0.659639
    446          7           0      -11.123485    3.475029    2.652842
    447          1           0      -10.235515    3.275985    3.098825
    448          6           0      -11.922861    4.410606    3.448290
    449          1           0      -12.507426    5.026657    2.754396
    450          6           0      -12.879829    3.657589    4.403751
    451          1           0      -12.252036    3.104921    5.115726
    452          6           0      -13.773103    4.622992    5.187680
    453          1           0      -14.376241    5.236379    4.505037
    454          1           0      -14.466228    4.063551    5.823242
    455          1           0      -13.195042    5.289270    5.833538
    456          6           0      -13.731352    2.652917    3.622588
    457          1           0      -14.311014    3.156422    2.840551
    458          1           0      -13.110507    1.890781    3.142908
    459          1           0      -14.429344    2.145201    4.296206
    460          6           0      -10.882405    5.270416    4.208330
    461          8           0       -9.781935    4.786292    4.456669
    462          7           0      -11.254321    6.513279    4.593375
    463          1           0      -12.133490    6.867799    4.246248
    464          6           0      -10.324849    7.465758    5.211640
    465          1           0       -9.495173    6.870828    5.594714
    466          6           0       -9.819668    8.521857    4.211150
    467          1           0       -9.829501    8.061700    3.214781
[...]
 6498,4.652052,1.817124\C,-1,9.385356,5.254409,2.48637\H,0,9.869627,5.1
 31779,3.458565\C,0,10.069025,4.382298,1.429798\H,0,9.506254,4.436964,0
 .487146\H,0,10.043518,3.33848,1.761834\C,0,11.483928,4.860729,1.211012
 \C,0,12.474755,4.599126,2.157343\H,0,12.266508,3.988157,3.028129\C,0,1
 3.761168,5.103718,2.007649\H,0,14.504996,4.817751,2.745375\C,0,14.0704
 31,5.892059,0.901549\H,0,15.075376,6.289615,0.776328\C,0,13.094132,6.1
 52405,-0.058181\H,0,13.332956,6.735426,-0.942344\C,0,11.809317,5.63904
 4,0.098987\H,0,11.050011,5.84489,-0.651567\H,0,9.486674,6.312142,2.204
 84\H,0,1.951467,-6.11927,9.805066\C,-1,1.886971,-5.132188,9.329921\H,0
 ,1.644016,-4.400053,10.101082\C,0,3.240629,-4.780663,8.672368\H,0,3.49
 6078,-5.532927,7.914981\H,0,4.01141,-4.859114,9.447182\C,0,3.29095,-3.
 401835,8.047883\C,0,3.46159,-2.277637,8.862046\H,0,3.550849,-2.407804,
 9.939623\C,0,3.567665,-1.007234,8.305192\H,0,3.737483,-0.144933,8.9435
 74\C,0,3.50788,-0.839933,6.922502\H,0,3.643551,0.148905,6.492953\C,0,3
 .329116,-1.949752,6.099928\H,0,3.315906,-1.806956,5.020709\C,0,3.21614
 9,-3.222032,6.664273\H,0,3.102618,-4.089869,6.016056\C,0,0.73545,-5.14
 6109,8.319905\O,0,-0.205348,-4.346402,8.392795\N,0,0.810558,-6.093786,
 7.358035\H,0,1.634007,-6.676111,7.364006\C,-1,-0.156716,-6.337386,6.28
 1497\H,0,-0.314064,-5.40863,5.721935\C,0,0.347436,-7.440996,5.349877\H
 ,0,0.664962,-8.302386,5.952954\H,0,-0.503997,-7.784004,4.751842\C,0,1.
 450736,-6.981736,4.428505\C,0,2.78844,-6.916103,4.829233\H,0,3.084819,
 -7.275467,5.812952\C,0,3.776386,-6.421664,3.986943\H,0,4.812039,-6.362
 096,4.306062\C,0,3.437241,-6.01205,2.697266\O,0,4.419957,-5.550092,1.8
 88598\H,0,4.107697,-5.486746,0.956722\C,0,2.113186,-6.101617,2.265932\
 H,0,1.861993,-5.832854,1.245752\C,0,1.136143,-6.561962,3.137024\H,0,0.
 105049,-6.611242,2.795658\H,0,-1.11561,-6.622994,6.731822\H,0,-2.63639
 1,-5.088624,9.906996\C,-1,-3.250258,-4.199928,10.09997\H,0,-4.100972,-
 4.486971,10.719083\C,0,-2.377905,-3.099208,10.734232\H,0,-2.996824,-2.
 438898,11.350496\H,0,-1.974731,-2.473891,9.932658\C,0,-1.194395,-3.626
 387,11.558144\H,0,-1.507851,-3.966133,12.547729\H,0,-0.741504,-4.47152
 8,11.02576\C,0,-0.134664,-2.543897,11.74732\O,0,0.102403,-2.024514,12.
 824268\N,0,0.501387,-2.196838,10.59247\H,0,0.335001,-2.684108,9.719154
 \H,0,1.215265,-1.484604,10.615596\C,0,-3.815385,-3.702122,8.736984\O,0
 ,-5.016756,-3.521634,8.556719\N,0,-2.89851,-3.441735,7.741191\H,0,-1.9
 24859,-3.679253,7.927718\C,-1,-3.142712,-2.499396,6.635492\H,0,-2.1872
 45,-2.330956,6.131965\H,0,-3.498968,-1.53802,7.016424\C,0,-4.166229,-2
 .931158,5.575418\O,0,-4.679988,-2.088591,4.850849\N,0,-4.419731,-4.260
 093,5.483525\H,0,-3.915681,-4.863753,6.119661\C,-1,-5.37072,-4.855309,
 4.553685\H,0,-5.80581,-4.023729,3.993054\C,0,-4.690892,-5.848372,3.599
 344\H,0,-4.378541,-6.728156,4.17998\H,0,-5.448124,-6.20451,2.893071\C,
 0,-3.476593,-5.293737,2.842685\H,0,-2.729817,-4.97372,3.58367\C,0,-2.8
 58581,-6.402612,1.987023\H,0,-1.934602,-6.060356,1.505716\H,0,-2.61595
 ,-7.289763,2.584303\H,0,-3.554352,-6.702519,1.193738\C,0,-3.831146,-4.
 087283,1.971362\H,0,-4.586503,-4.36564,1.225436\H,0,-4.203168,-3.24702
 3,2.567904\H,0,-2.947578,-3.735174,1.426114\C,0,-6.529182,-5.573619,5.
 300208\O,0,-7.278655,-6.319495,4.687959\N,0,-6.65699,-5.355515,6.64426
 5\H,0,-6.051729,-4.687019,7.11554\C,-1,-7.551648,-6.171413,7.460774\H,
 0,-7.526492,-7.205384,7.109234\H,0,-7.193719,-6.14105,8.492213\C,0,-9.
 045125,-5.771991,7.486081\O,0,-9.838482,-6.499128,8.062418\N,0,-9.3940
 49,-4.603797,6.881819\H,0,-8.662548,-4.085025,6.419803\C,-1,-10.768255
 ,-4.123407,6.816559\H,0,-10.844294,-3.111155,7.226042\H,0,-11.376275,-
 4.80416,7.414032\H,0,-11.138149,-4.125104,5.784335\H,0,-11.910976,-3.6
 27902,2.628775\C,-1,-12.27796,-3.215174,1.683169\H,0,-12.777333,-4.025
 398,1.140072\C,0,-13.29187,-2.084439,1.973472\H,0,-14.056848,-2.515458
 ,2.627971\H,0,-12.800417,-1.298487,2.562084\C,0,-13.99157,-1.452809,0.
 74632\H,0,-15.007444,-1.163123,1.035178\H,0,-14.100099,-2.224183,-0.02
 4721\C,0,-13.268607,-0.222783,0.151156\H,0,-12.220967,-0.266811,0.4518
 36\H,0,-13.682076,0.71103,0.551267\C,0,-13.30009,-0.199634,-1.377661\H
 ,0,-14.241085,0.178399,-1.782738\H,0,-13.114872,-1.198336,-1.771361\N,
 0,-12.202415,0.657506,-1.926939\H,0,-12.14939,0.676729,-2.991902\H,0,-
 11.295861,0.297615,-1.591664\H,0,-12.270269,1.620702,-1.57733\C,0,-11.
 1178,-2.737438,0.797921\O,0,-11.351779,-2.208941,-0.293109\N,0,-9.8431
 4,-2.851558,1.239067\H,0,-9.639039,-3.457778,2.02057\C,-1,-8.730128,-2
 .402975,0.393456\H,0,-8.874986,-1.332718,0.212241\C,0,-7.359128,-2.610
 368,1.059899\H,0,-7.225123,-3.686272,1.239254\C,0,-6.250046,-2.129121,
 0.114658\H,0,-6.152413,-2.76926,-0.767088\H,0,-6.448338,-1.103463,-0.2
 22698\H,0,-5.289622,-2.125776,0.636435\C,0,-7.278688,-1.855732,2.39176
 2\H,0,-7.355229,-0.774388,2.225712\H,0,-8.072128,-2.143199,3.090921\H,
 0,-6.321339,-2.034473,2.890972\C,0,-8.850657,-3.134007,-0.980415\O,0,-
 9.127398,-4.333734,-1.045035\N,0,-8.647236,-2.35696,-2.062709\H,0,-8.4
 49335,-1.372255,-1.915152\C,-1,-8.586437,-2.82673,-3.440864\H,0,-8.534
 481,-3.914298,-3.429576\C,0,-9.777195,-2.343707,-4.300109\H,0,-9.85108
 4,-3.010593,-5.167146\H,0,-9.550952,-1.347232,-4.69891\C,0,-11.105385,
 -2.231543,-3.552974\H,0,-11.824189,-1.735794,-4.215794\H,0,-10.956366,
 -1.578976,-2.688294\C,0,-11.685093,-3.533074,-2.999244\H,0,-11.059376,
 -3.933425,-2.2029\H,0,-12.659836,-3.343829,-2.539378\N,0,-11.868466,-4
 .545285,-4.030148\H,0,-12.498929,-4.2957,-4.778485\C,0,-11.000699,-5.5
 30911,-4.314728\N,0,-10.072721,-5.924239,-3.443695\H,0,-9.847742,-5.42
 4963,-2.581765\H,0,-9.395744,-6.594305,-3.800628\N,0,-11.115122,-6.200
 448,-5.469898\H,0,-11.633156,-5.750089,-6.209369\H,0,-10.224156,-6.671
 021,-5.762319\C,0,-7.272007,-2.244688,-4.02322\O,0,-6.825246,-1.182582
 ,-3.566378\N,0,-6.676256,-2.919975,-5.011326\H,0,-7.150807,-3.756465,-
 5.394762\C,-1,-5.320407,-2.589192,-5.459563\H,0,-5.228537,-1.5075,-5.5
 81793\C,0,-4.274407,-3.079103,-4.459482\H,0,-3.275267,-2.745726,-4.757
 81\H,0,-4.272912,-4.172253,-4.382214\H,0,-4.487766,-2.670141,-3.468189
 \H,0,-5.171656,-3.077582,-6.427805\H,0,6.650111,-0.718314,-9.801395\C,
 -1,5.621643,-0.514076,-10.118898\H,0,5.635707,-0.30963,-11.193854\C,0,
 4.702193,-1.692259,-9.796899\H,0,5.050423,-2.584352,-10.330669\H,0,3.6
 87704,-1.483821,-10.158315\C,0,4.652443,-2.00019,-8.300912\H,0,4.21178
 4,-1.158609,-7.749488\H,0,5.66611,-2.168136,-7.916677\S,0,3.666668,-3.
 500253,-7.988999\C,0,4.004394,-3.720022,-6.22181\H,0,5.08025,-3.687841
 ,-6.026102\H,0,3.489169,-2.975557,-5.60832\H,0,3.652611,-4.712306,-5.9
 34607\H,0,5.289675,0.3997,-9.610988\H,0,0.661809,1.929723,-8.303826\C,
 -1,-0.251478,1.410991,-8.624866\H,0,-0.2104,1.350914,-9.715396\C,0,-0.
 304099,-0.001747,-8.008221\H,0,-1.33373,-0.381028,-8.030857\H,0,0.2812
 17,-0.666759,-8.654627\C,0,0.254033,-0.114167,-6.602365\C,0,-0.526638,
 -0.555778,-5.530919\H,0,-1.575808,-0.801514,-5.692186\C,0,0.026625,-0.
 690107,-4.255056\H,0,-0.589544,-1.049602,-3.436277\C,0,1.36365,-0.3843
 22,-4.034484\H,0,1.800548,-0.485683,-3.046259\C,0,2.144471,0.077796,-5
 .093547\H,0,3.175905,0.364664,-4.912162\C,0,1.594651,0.207698,-6.36099
 6\H,0,2.206684,0.595768,-7.170197\C,0,-1.413797,2.349659,-8.332846\O,0
 ,-1.765076,3.201181,-9.135111\N,0,-2.029306,2.159697,-7.128882\H,0,-1.
 621055,1.471179,-6.511513\C,-1,-3.337826,2.668234,-6.754019\H,0,-3.277
 471,3.690252,-6.357363\C,0,-4.32711,2.613852,-7.947734\H,0,-3.935605,3
 .29323,-8.704727\H,0,-4.250508,1.60948,-8.378797\C,0,-5.805299,2.97161
 9,-7.713807\H,0,-5.885614,3.934875,-7.194557\H,0,-6.234048,3.125623,-8
 .709925\C,0,-6.728749,1.986118,-6.96198\H,0,-7.766092,2.204708,-7.2246
 63\H,0,-6.642289,2.115748,-5.879331\N,0,-6.457438,0.5833,-7.260277\H,0
 ,-5.524144,0.284297,-6.965781\C,0,-7.265695,-0.344113,-7.758933\N,0,-8
 .572808,-0.197931,-7.946563\H,0,-9.274634,0.339965,-7.384436\H,0,-9.02
 2854,-0.925323,-8.483983\N,0,-6.704466,-1.511102,-8.182256\H,0,-5.7008
 9,-1.595882,-8.111888\H,0,-7.210297,-2.364842,-7.983141\C,0,-3.851938,
 1.686816,-5.698307\O,0,-3.968538,0.486241,-5.991711\N,0,-4.199878,2.17
 5157,-4.503981\H,0,-4.178676,3.174541,-4.337365\C,-1,-4.982508,1.39734
 6,-3.558231\H,0,-5.290792,0.479042,-4.062324\C,0,-4.207799,0.998954,-2
 .283674\H,0,-4.921813,0.432463,-1.671543\C,0,-3.035631,0.089274,-2.647
 908\H,0,-2.293074,0.637677,-3.238245\H,0,-3.359232,-0.775626,-3.23272\
 H,0,-2.538485,-0.271098,-1.740543\C,0,-3.713365,2.200516,-1.482845\H,0
 ,-2.933108,2.740208,-2.033238\H,0,-3.278025,1.871074,-0.533691\H,0,-4.
 52156,2.901674,-1.264004\C,0,-6.232223,2.262968,-3.258456\O,0,-6.15175
 6,3.488545,-3.250606\N,0,-7.393779,1.589024,-3.063439\H,0,-7.371284,0.
 568937,-3.089052\C,-1,-8.636086,2.255106,-2.720162\H,0,-8.450224,3.330
 502,-2.747286\C,0,-9.827461,1.814345,-3.571391\H,0,-10.683688,2.436897
 ,-3.29094\H,0,-10.04302,0.794392,-3.250455\C,0,-9.75192,1.713102,-5.06
 8645\H,0,-8.823578,1.20641,-5.355567\H,0,-9.76587,2.684941,-5.575258\C
 ,0,-10.944004,0.853155,-5.560065\O,0,-11.886206,0.618217,-4.750154\O,0
 ,-10.852744,0.436397,-6.73642\C,0,-9.132824,1.763055,-1.344725\O,0,-9.
 131479,0.54665,-1.11654\N,0,-9.809913,2.616524,-0.54017\H,0,-9.594517,
 3.604732,-0.605118\C,-1,-10.283138,2.129775,0.755409\H,0,-10.880211,1.
 23426,0.561571\C,0,-9.12044,1.683735,1.673916\H,0,-8.698817,0.773418,1
 .240493\H,0,-9.544866,1.372567,2.635726\C,0,-7.992947,2.699476,1.91565
 8\H,0,-8.38893,3.715381,1.996193\H,0,-7.464943,2.470414,2.845701\S,0,-
 6.753451,2.681755,0.564142\C,0,-5.987392,4.307151,0.825779\H,0,-5.9384
 22,4.531983,1.894155\H,0,-4.967211,4.271948,0.438048\H,0,-6.535206,5.0
 94164,0.302363\C,0,-11.304127,3.137675,1.353382\O,0,-12.249156,3.50117
 4,0.659639\N,0,-11.123485,3.475029,2.652842\H,0,-10.235515,3.275985,3.
 098825\C,-1,-11.922861,4.410606,3.44829\H,0,-12.507426,5.026657,2.7543
 96\C,0,-12.879829,3.657589,4.403751\H,0,-12.252036,3.104921,5.115726\C
 ,0,-13.773103,4.622992,5.18768\H,0,-14.376241,5.236379,4.505037\H,0,-1
 4.466228,4.063551,5.823242\H,0,-13.195042,5.28927,5.833538\C,0,-13.731
 352,2.652917,3.622588\H,0,-14.311014,3.156422,2.840551\H,0,-13.110507,
 1.890781,3.142908\H,0,-14.429344,2.145201,4.296206\C,0,-10.882405,5.27
 0416,4.20833\O,0,-9.781935,4.786292,4.456669\N,0,-11.254321,6.513279,4
 .593375\H,0,-12.13349,6.867799,4.246248\C,-1,-10.324849,7.465758,5.211
 64\H,0,-9.495173,6.870828,5.594714\C,0,-9.819668,8.521857,4.21115\H,0,
 -9.829501,8.0617,3.214781\H,0,-10.512398,9.371017,4.173972\C,0,-8.4310
 19,8.993489,4.507404\C,0,-8.010354,10.25684,4.807143\H,0,-8.588012,11.
 161458,4.939357\N,0,-6.635178,10.286402,4.900269\H,0,-6.083797,11.0978
 91,5.122116\C,0,-6.139438,9.02374,4.663135\C,0,-4.822998,8.553444,4.63
 7066\H,0,-3.980807,9.216335,4.813062\C,0,-4.631725,7.205039,4.386231\H
 ,0,-3.621354,6.807979,4.359546\C,0,-5.722171,6.336942,4.182616\H,0,-5.
 545657,5.272736,4.052954\C,0,-7.022472,6.811054,4.192558\H,0,-7.855587
 ,6.121704,4.077664\C,0,-7.244511,8.178591,4.424496\H,0,-10.819124,7.93
 4677,6.067615\H,0,-11.335297,7.827553,-0.104878\C,-1,-10.664419,7.3614
 94,-0.832586\H,0,-10.655143,7.979709,-1.735601\C,0,-9.256034,7.235278,
 -0.26963\H,0,-8.564035,6.830526,-1.013225\H,0,-8.880955,8.208065,0.054
 405\S,0,-9.333081,6.113949,1.170107\H,0,-8.114115,6.355745,1.684584\H,
 0,-11.081517,6.382975,-1.096239\H,0,-4.984324,6.141863,-3.039214\C,-1,
 -3.99743,6.553092,-2.802562\H,0,-4.089092,7.644459,-2.74974\C,0,-3.463
 605,5.960421,-1.504722\H,0,-3.533182,4.870006,-1.57322\H,0,-4.111562,6
 .251976,-0.665936\C,0,-2.01404,6.323316,-1.16472\H,0,-1.397008,6.07410
 4,-2.037088\C,0,-1.826329,7.813203,-0.872313\H,0,-2.106344,8.439444,-1
 .726673\H,0,-2.432286,8.118086,-0.008822\H,0,-0.779092,8.027727,-0.628
 521\C,0,-1.54065,5.484159,0.018649\H,0,-1.680426,4.412605,-0.16882\H,0
 ,-2.116708,5.748003,0.914638\H,0,-0.482232,5.645385,0.246963\H,0,-3.32
 609,6.320659,-3.639249\H,0,0.944083,4.95849,-5.162167\C,-1,1.743838,4.
 486897,-4.583377\H,0,2.239785,5.248624,-3.969215\C,0,1.166624,3.364448
 ,-3.692353\H,0,0.786331,2.586178,-4.367211\C,0,2.235776,2.746557,-2.78
 7735\H,0,1.806458,1.930044,-2.197212\H,0,3.081089,2.334846,-3.346335\H
 ,0,2.624888,3.497284,-2.088117\C,0,0.006553,3.881239,-2.843263\H,0,-0.
 437053,3.067184,-2.256659\H,0,-0.783042,4.325793,-3.462683\H,0,0.35535
 6,4.639633,-2.131526\C,0,2.719973,3.864014,-5.592326\O,0,2.295268,3.23
 2927,-6.558847\N,0,4.05481,3.981284,-5.33259\H,0,4.375829,4.547856,-4.
 547148\C,-1,5.065536,3.293647,-6.139797\H,0,4.500273,2.692021,-6.85952
 \C,0,5.983729,4.263908,-6.906317\H,0,6.470658,4.906713,-6.161215\C,0,7
 .072064,3.481867,-7.64737\H,0,7.736303,4.155034,-8.195779\H,0,7.698022
 ,2.910693,-6.954729\H,0,6.628337,2.785052,-8.371649\C,0,5.153264,5.149
 282,-7.843645\H,0,4.328142,5.584132,-7.269597\H,0,4.691841,4.520877,-8
 .618279\C,0,5.951217,6.278265,-8.4948\H,0,6.449414,6.891902,-7.735402\
 H,0,5.292089,6.932628,-9.074859\H,0,6.721097,5.901044,-9.175919\C,0,5.
 883464,2.402403,-5.208589\O,0,6.587916,2.90133,-4.336835\N,0,5.803595,
 1.07102,-5.407518\H,0,5.293058,0.741538,-6.214085\C,-1,6.63699,0.12378
 8,-4.67889\H,0,6.95948,0.590563,-3.746444\C,0,5.929919,-1.186126,-4.41
 6453\H,0,5.455352,-1.579017,-5.323717\H,0,6.662984,-1.948031,-4.129475
 \C,0,4.880417,-1.126981,-3.333769\O,0,4.547203,-0.128383,-2.727372\O,0
 ,4.35268,-2.329064,-3.129229\H,0,3.726599,-2.297915,-2.359037\H,0,7.54
 6707,-0.071846,-5.26041\H,0,11.579348,-3.17461,-4.213825\C,-1,11.52208
 2,-4.165576,-4.678477\H,0,11.819808,-4.904315,-3.925768\C,0,10.11635,-
 4.451602,-5.204142\H,0,10.096816,-5.435402,-5.688372\H,0,9.852886,-3.7
 16613,-5.974684\C,0,9.059133,-4.423023,-4.100306\H,0,9.01009,-3.429293
 ,-3.637758\H,0,9.308493,-5.14508,-3.313263\S,0,7.433232,-4.859018,-4.7
 9958\C,0,6.431564,-4.978477,-3.29414\H,0,6.335234,-4.014762,-2.789484\
 H,0,5.434972,-5.300585,-3.603639\H,0,6.844144,-5.720551,-2.604622\H,0,
 12.25688,-4.195758,-5.488991\H,0,11.405973,-3.793764,0.011523\C,-1,10.
 548007,-3.25124,-0.393759\H,0,10.628978,-3.258488,-1.489283\C,0,9.2457
 11,-3.946956,0.032312\H,0,9.223223,-4.931185,-0.452346\H,0,9.253925,-4
 .132663,1.110397\C,0,7.941369,-3.224893,-0.334183\H,0,8.009426,-2.7771
 37,-1.335048\H,0,7.141795,-3.970027,-0.350639\S,0,7.43519,-1.940886,0.
 873758\C,0,5.636079,-2.174,0.803428\H,0,5.369507,-3.201804,1.071566\H,
 0,5.242621,-1.939128,-0.190567\H,0,5.168277,-1.505532,1.53511\C,0,10.6
 26014,-1.815298,0.142934\O,0,10.878836,-1.620611,1.327012\N,0,10.37574
 9,-0.820847,-0.74594\H,0,10.057632,-1.06506,-1.674632\C,-1,10.127507,0
 .582044,-0.397177\H,0,10.108049,0.650558,0.694061\C,0,11.17044,1.52451
 ,-0.99136\H,0,11.079197,1.504922,-2.081913\H,0,10.931011,2.545232,-0.6
 68795\C,0,12.595853,1.165731,-0.577585\H,0,12.67735,1.007968,0.503528\
 H,0,12.897072,0.237595,-1.077766\C,0,13.542287,2.26904,-1.012269\O,0,1
 3.519402,2.692636,-2.186795\N,0,14.363358,2.719237,-0.069176\H,0,14.26
 3533,2.395214,0.920148\H,0,14.903597,3.547008,-0.274766\C,0,8.74462,0.
 923578,-0.992113\O,0,8.476328,0.537587,-2.133376\N,0,7.925332,1.687236
 ,-0.239451\H,0,8.13153,1.781718,0.756658\C,-1,6.604311,2.112955,-0.699
 881\H,0,6.489407,1.737342,-1.718873\C,0,5.489376,1.572164,0.18204\H,0,
 4.51306,1.864108,-0.220449\H,0,5.564979,1.950502,1.203927\H,0,5.534436
 ,0.482111,0.200885\C,0,6.601753,3.654788,-0.710629\O,0,6.434484,4.3120
 54,0.32119\N,0,6.807334,4.247724,-1.899371\H,0,6.807845,3.683409,-2.74
 4361\C,-1,6.904119,5.692768,-2.057176\H,0,7.447424,6.091971,-1.195279\
 C,0,7.64261,6.035129,-3.361875\H,0,7.46708,7.095775,-3.575302\H,0,7.15
 7835,5.47088,-4.166132\C,0,9.131009,5.77308,-3.327939\C,0,9.664122,4.4
 7795,-3.314255\H,0,9.006974,3.613123,-3.346354\C,0,11.034769,4.264169,
 -3.27161\H,0,11.444345,3.261392,-3.241947\C,0,11.925166,5.345165,-3.24
 0161\O,0,13.257213,5.183051,-3.162783\H,0,13.458778,4.277469,-2.811296
 \C,0,11.406735,6.642425,-3.295687\H,0,12.093678,7.48309,-3.280478\C,0,
 10.031276,6.841807,-3.327929\H,0,9.648128,7.860778,-3.348932\C,0,5.471
 83,6.285154,-2.104778\O,0,4.736942,6.082502,-3.07611\N,0,5.092569,7.05
 711,-1.057437\H,0,5.638788,7.054887,-0.203026\C,-1,3.80717,7.731542,-0
 .9887\H,0,3.682189,8.309549,-1.913706\C,0,2.609237,6.740045,-0.89785\H
 ,0,1.674248,7.314875,-0.953169\H,0,2.65332,6.135869,-1.808191\C,0,2.60
 3389,5.861462,0.312296\C,0,3.316169,4.695952,0.460162\H,0,3.987582,4.2
 21325,-0.238295\N,0,3.11272,4.157094,1.694529\H,0,3.511678,3.291142,2.
 082651\C,0,2.249625,4.960394,2.386456\C,0,1.757145,4.811134,3.686122\H
 ,0,2.052288,3.950728,4.27941\C,0,0.922173,5.805199,4.164966\H,0,0.5303
 64,5.73299,5.175769\C,0,0.568871,6.911045,3.363166\H,0,-0.089957,7.673
 384,3.771082\C,0,1.053144,7.04613,2.072644\H,0,0.776685,7.907726,1.468
 186\C,0,1.91278,6.060889,1.558008\C,0,3.816479,8.692287,0.208117\O,0,4
 .666668,8.645478,1.07961\N,0,2.791269,9.599568,0.216021\H,0,2.08723,9.
 516251,-0.500754\C,-1,2.490758,10.455893,1.367019\H,0,2.612046,9.87043
 9,2.285205\C,0,3.388651,11.688026,1.394687\H,0,4.42807,11.371487,1.551
 221\H,0,3.098685,12.331181,2.23086\O,0,3.249412,12.462489,0.221097\H,0
 ,3.586501,11.918305,-0.501587\H,0,1.44448,10.760886,1.278401\H,0,-3.91
 8721,11.730612,-1.34686\C,-1,-4.463726,10.804914,-1.136269\H,0,-3.7237
 3,10.030926,-0.910888\C,0,-5.446572,11.000446,0.017408\H,0,-6.089706,1
 1.862804,-0.204948\H,0,-4.891748,11.26068,0.930492\C,0,-6.34614,9.7924
 3,0.32568\H,0,-6.876901,9.526969,-0.602466\C,0,-5.548054,8.569043,0.78
 2235\H,0,-4.980396,8.786742,1.695372\H,0,-6.212195,7.727419,1.01636\H,
 0,-4.845874,8.231746,0.014311\C,0,-7.379488,10.179786,1.384689\H,0,-6.
 878231,10.530787,2.293664\H,0,-8.03902,10.981088,1.030906\H,0,-8.00116
 6,9.327999,1.684191\H,0,-4.987198,10.508718,-2.053558\C,0,2.184908,-2.
 116269,-0.20702\O,0,2.818151,-2.776063,-1.06219\C,0,2.146766,-0.689369
 ,-0.225558\C,0,1.421781,0.002009,0.692687\C,0,-1.816261,2.372831,2.403
 932\C,0,-2.893712,1.676005,3.259622\C,0,-3.237116,0.326908,2.628851\C,
 0,-1.974551,-0.54025,2.505657\C,0,-1.712174,3.763602,3.029805\C,0,-3.1
 86363,4.097432,3.348689\C,0,-2.478223,1.47029,4.728646\H,0,-2.275265,2
 .504166,1.406955\H,0,-3.65961,0.494541,1.625793\H,0,-3.996338,-0.20218
 5,3.215778\H,0,-1.602298,-0.805497,3.504641\H,0,-2.246145,-1.485723,2.
 023947\H,0,-1.229144,4.497817,2.384951\H,0,2.823105,-0.183339,-0.91187
 8\H,0,-1.10578,3.720188,3.939885\H,0,-3.583505,4.879961,2.692922\H,0,-
 3.307546,4.459116,4.377576\H,0,-2.414355,2.410851,5.28738\H,0,-3.20708
 3,0.822087,5.230469\H,0,-1.498857,0.992097,4.816262\C,0,1.49699,-2.838
 887,0.912182\H,0,2.187037,-2.836503,1.768469\H,0,1.321651,-3.874457,0.
 612853\C,0,0.200385,-2.132924,1.281038\H,0,-0.271339,-2.651719,2.12110
 4\H,0,-0.498485,-2.19387,0.433144\C,0,1.61654,1.463331,0.8682\H,0,2.26
 5888,1.54079,1.763127\H,0,2.185541,1.882714,0.03402\C,0,0.335553,2.255
 186,1.115817\H,0,-0.245396,2.340736,0.183706\H,0,0.60009,3.272157,1.41
 6176\C,0,0.448089,-0.667067,1.635866\H,0,0.953005,-0.616407,2.615336\O
 ,0,-5.108848,2.647177,4.011808\H,0,-4.799453,2.668561,4.926569\C,0,-0.
 862525,0.15149,1.700045\H,0,-1.24332,0.240347,0.665401\C,0,-0.541629,1
 .583357,2.174285\H,0,0.031371,1.526174,3.112102\C,0,-3.976525,2.769833
 ,3.16695\H,0,-4.400496,2.719172,2.16061\\Version=ES64L-G16RevC.01\Stat
 e=1-A\HF=-17141.9878411\RMSD=1.052e-09\Dipole=-36.7135343,-3.072963,-9
 .8825817\Quadrupole=-225.2503734,168.5287681,56.7216053,-264.6243726,-
 115.3152731,33.675971\PG=C01 [X(C246H397N38O46S5)]\\@
 The archive entry for this job was punched.


 IF YOU WANT TO LEARN FROM THE THEORETICAL PHYSICISTS ABOUT THE
 METHODS WHICH THEY USE, I ADVISE YOU TO FOLLOW THIS PRINCIPLE VERY STRICTLY:
 DON'T LISTEN TO THEIR WORDS; PAY ATTENTION, INSTEAD, TO THEIR ACTIONS.
 -- A.EINSTEIN, 1934
 Job cpu time:       1 days 23 hours  6 minutes 52.5 seconds.
 Elapsed time:       0 days  0 hours 45 minutes 28.4 seconds.
 File lengths (MBytes):  RWF=  18253 Int=      0 D2E=      0 Chk=   1955 Scr=      1
 Normal termination of Gaussian 16 at Sun May 24 22:13:00 2026.
