 Entering Gaussian System, Link 0=g16
 Initial command:
 /cm/shared/apps/spack/cpu/opt/spack/linux-centos8-zen/gcc-8.3.1/gaussian-16.C.01-po5bqktfeugvmjyga3v7eigbecnokxng/g16/l1.exe "/scratch/hklem/job_32994863/Gau-3540634.inp" -scrdir="/scratch/hklem/job_32994863/"
 Entering Link 1 = /cm/shared/apps/spack/cpu/opt/spack/linux-centos8-zen/gcc-8.3.1/gaussian-16.C.01-po5bqktfeugvmjyga3v7eigbecnokxng/g16/l1.exe PID=   3540635.
  
 Copyright (c) 1988-2019, Gaussian, Inc.  All Rights Reserved.
  
 This is part of the Gaussian(R) 16 program.  It is based on
 the Gaussian(R) 09 system (copyright 2009, Gaussian, Inc.),
 the Gaussian(R) 03 system (copyright 2003, Gaussian, Inc.),
 the Gaussian(R) 98 system (copyright 1998, Gaussian, Inc.),
 the Gaussian(R) 94 system (copyright 1995, Gaussian, Inc.),
 the Gaussian 92(TM) system (copyright 1992, Gaussian, Inc.),
 the Gaussian 90(TM) system (copyright 1990, Gaussian, Inc.),
 the Gaussian 88(TM) system (copyright 1988, Gaussian, Inc.),
 the Gaussian 86(TM) system (copyright 1986, Carnegie Mellon
 University), and the Gaussian 82(TM) system (copyright 1983,
 Carnegie Mellon University). Gaussian is a federally registered
 trademark of Gaussian, Inc.
  
 This software contains proprietary and confidential information,
 including trade secrets, belonging to Gaussian, Inc.
  
 This software is provided under written license and may be
 used, copied, transmitted, or stored only in accord with that
 written license.
  
 The following legend is applicable only to US Government
 contracts under FAR:
  
                    RESTRICTED RIGHTS LEGEND
  
 Use, reproduction and disclosure by the US Government is
 subject to restrictions as set forth in subparagraphs (a)
 and (c) of the Commercial Computer Software - Restricted
 Rights clause in FAR 52.227-19.
  
 Gaussian, Inc.
 340 Quinnipiac St., Bldg. 40, Wallingford CT 06492
  
  
 ---------------------------------------------------------------
 Warning -- This program may not be used in any manner that
 competes with the business of Gaussian, Inc. or will provide
 assistance to any competitor of Gaussian, Inc.  The licensee
 of this program is prohibited from giving any competitor of
 Gaussian, Inc. access to this program.  By using this program,
 the user acknowledges that Gaussian, Inc. is engaged in the
 business of creating and licensing software in the field of
 computational chemistry and represents and warrants to the
 licensee that it is not a competitor of Gaussian, Inc. and that
 it will not use this program in any manner prohibited above.
 ---------------------------------------------------------------
  

 Cite this work as:
 Gaussian 16, Revision C.01,
 M. J. Frisch, G. W. Trucks, H. B. Schlegel, G. E. Scuseria, 
 M. A. Robb, J. R. Cheeseman, G. Scalmani, V. Barone, 
 G. A. Petersson, H. Nakatsuji, X. Li, M. Caricato, A. V. Marenich, 
 J. Bloino, B. G. Janesko, R. Gomperts, B. Mennucci, H. P. Hratchian, 
 J. V. Ortiz, A. F. Izmaylov, J. L. Sonnenberg, D. Williams-Young, 
 F. Ding, F. Lipparini, F. Egidi, J. Goings, B. Peng, A. Petrone, 
 T. Henderson, D. Ranasinghe, V. G. Zakrzewski, J. Gao, N. Rega, 
 G. Zheng, W. Liang, M. Hada, M. Ehara, K. Toyota, R. Fukuda, 
 J. Hasegawa, M. Ishida, T. Nakajima, Y. Honda, O. Kitao, H. Nakai, 
 T. Vreven, K. Throssell, J. A. Montgomery, Jr., J. E. Peralta, 
 F. Ogliaro, M. J. Bearpark, J. J. Heyd, E. N. Brothers, K. N. Kudin, 
 V. N. Staroverov, T. A. Keith, R. Kobayashi, J. Normand, 
 K. Raghavachari, A. P. Rendell, J. C. Burant, S. S. Iyengar, 
 J. Tomasi, M. Cossi, J. M. Millam, M. Klene, C. Adamo, R. Cammi, 
 J. W. Ochterski, R. L. Martin, K. Morokuma, O. Farkas, 
 J. B. Foresman, and D. J. Fox, Gaussian, Inc., Wallingford CT, 2019.
 
 ******************************************
 Gaussian 16:  ES64L-G16RevC.01  3-Jul-2019
                12-Aug-2024 
 ******************************************
 %nprocshared=24
 Will use up to   24 processors via shared memory.
 %mem=48GB
 --------------------------
 # wb97xd 6-31G(d) prop=efg
 --------------------------
 1/38=1,172=1/1;
 2/12=2,17=6,18=5,40=1/2;
 3/5=1,6=6,7=1,11=2,25=1,30=1,74=-58/1,2,3;
 4//1;
 5/5=2,38=5/2;
 6/7=2,8=2,9=2,10=2,14=1,28=1/1,2;
 99/5=1,9=1/99;
 ------------------------------------------
 19nt_mm_min_distance_cutoff5_ligand_conf_1
 ------------------------------------------
 Symbolic Z-matrix:
 Charge =  0 Multiplicity = 1
 C                     2.6756   -1.1325    1.2488 
 O                     3.7354   -1.4883    1.8087 
 C                     2.1658    0.1982    1.3946 
 C                     0.9086    0.524     0.9982 
 C                     0.0525   -0.4422    0.2143 
 C                     0.9206   -1.4774   -0.5047 
 C                     1.8811   -2.1431    0.4705 
 C                     0.2984    1.8034    1.4765 
 C                    -0.6872    2.4268    0.4916 
 C                    -1.7004    1.3732    0.0583 
 C                    -0.968     0.2532   -0.7107 
 C                    -2.8436    1.9134   -0.7839 
 C                    -3.8535    0.8067   -1.1548 
 C                    -3.1393   -0.2074   -2.0472 
 C                    -1.9088   -0.7936   -1.3422 
 C                    -3.719     3.0247   -0.2005 
 C                    -5.0032    2.9748   -1.0591 
 C                    -4.938     1.6477   -1.8563 
 C                    -4.441     0.1044    0.081 
 O                    -6.2217    1.0239   -1.9574 
 H                     2.7694    0.8935    1.9701 
 H                    -0.5506   -0.9496    0.9885 
 H                     1.4847   -0.9888   -1.3124 
 H                     0.302    -2.2478   -0.9742 
 H                     1.3111   -2.7353    1.2002 
 H                     2.5698   -2.8386   -0.0213 
 H                     1.0842    2.5067    1.7708 
 H                    -0.2383    1.5379    2.4036 
 H                    -0.1544    2.823    -0.3832 
 H                    -1.1852    3.2739    0.9728 
 H                    -2.1239    0.9549    0.9781 
 H                    -0.4171    0.7433   -1.5305 
 H                    -2.4169    2.2859   -1.7347 
 H                    -2.8286    0.2887   -2.9807 
 H                    -3.8127   -1.0333   -2.3225 
 H                    -2.247    -1.4908   -0.5649 
 H                    -1.3484   -1.3879   -2.0724 
 H                    -3.2386    4.0052   -0.2158 
 H                    -3.9411    2.8117    0.8483 
 H                    -5.069     3.8272   -1.7429 
 H                    -5.8999    2.9993   -0.4364 
 H                    -4.5957    1.8588   -2.8809 
 H                    -5.0731    0.7673    0.6754 
 H                    -5.053    -0.7459   -0.2248 
 H                    -3.6727   -0.2931    0.7436 
 H                    -6.2672    0.5976   -2.8437 
 
                          Input orientation:                          
 ---------------------------------------------------------------------
 Center     Atomic      Atomic             Coordinates (Angstroms)
 Number     Number       Type             X           Y           Z
 ---------------------------------------------------------------------
      1          6           0        2.675600   -1.132500    1.248800
      2          8           0        3.735400   -1.488300    1.808700
      3          6           0        2.165800    0.198200    1.394600
      4          6           0        0.908600    0.524000    0.998200
      5          6           0        0.052500   -0.442200    0.214300
      6          6           0        0.920600   -1.477400   -0.504700
      7          6           0        1.881100   -2.143100    0.470500
      8          6           0        0.298400    1.803400    1.476500
      9          6           0       -0.687200    2.426800    0.491600
     10          6           0       -1.700400    1.373200    0.058300
     11          6           0       -0.968000    0.253200   -0.710700
     12          6           0       -2.843600    1.913400   -0.783900
     13          6           0       -3.853500    0.806700   -1.154800
     14          6           0       -3.139300   -0.207400   -2.047200
     15          6           0       -1.908800   -0.793600   -1.342200
     16          6           0       -3.719000    3.024700   -0.200500
     17          6           0       -5.003200    2.974800   -1.059100
     18          6           0       -4.938000    1.647700   -1.856300
     19          6           0       -4.441000    0.104400    0.081000
     20          8           0       -6.221700    1.023900   -1.957400
     21          1           0        2.769400    0.893500    1.970100
     22          1           0       -0.550600   -0.949600    0.988500
     23          1           0        1.484700   -0.988800   -1.312400
     24          1           0        0.302000   -2.247800   -0.974200
     25          1           0        1.311100   -2.735300    1.200200
     26          1           0        2.569800   -2.838600   -0.021300
     27          1           0        1.084200    2.506700    1.770800
     28          1           0       -0.238300    1.537900    2.403600
     29          1           0       -0.154400    2.823000   -0.383200
     30          1           0       -1.185200    3.273900    0.972800
     31          1           0       -2.123900    0.954900    0.978100
     32          1           0       -0.417100    0.743300   -1.530500
     33          1           0       -2.416900    2.285900   -1.734700
     34          1           0       -2.828600    0.288700   -2.980700
     35          1           0       -3.812700   -1.033300   -2.322500
     36          1           0       -2.247000   -1.490800   -0.564900
     37          1           0       -1.348400   -1.387900   -2.072400
     38          1           0       -3.238600    4.005200   -0.215800
     39          1           0       -3.941100    2.811700    0.848300
     40          1           0       -5.069000    3.827200   -1.742900
     41          1           0       -5.899900    2.999300   -0.436400
     42          1           0       -4.595700    1.858800   -2.880900
     43          1           0       -5.073100    0.767300    0.675400
     44          1           0       -5.053000   -0.745900   -0.224800
     45          1           0       -3.672700   -0.293100    0.743600
     46          1           0       -6.267200    0.597600   -2.843700
 ---------------------------------------------------------------------
                    Distance matrix (angstroms):
                    1          2          3          4          5
     1  C    0.000000
     2  O    1.250303   0.000000
     3  C    1.432451   2.340813   0.000000
     4  C    2.434971   3.563293   1.357877   0.000000
     5  C    2.902991   4.147311   2.503848   1.510281   0.000000
     6  C    2.504744   3.643492   2.822322   2.502889   1.530424
     7  C    1.502762   2.378649   2.533121   2.887498   2.510474
     8  C    3.784499   4.770599   2.463850   1.495988   2.587728
     9  C    4.954835   6.051624   3.731176   2.534535   2.975771
    10  C    5.181235   6.387488   4.256034   2.900247   2.528373
    11  C    4.362984   5.612679   3.775714   2.552508   1.542928
    12  C    6.623515   7.847062   5.725545   4.380105   3.864279
    13  C    7.222668   8.464087   6.565187   5.233825   4.323311
    14  C    6.747777   7.985623   6.336765   5.118095   3.918814
    15  C    5.276823   6.501367   5.007605   3.892465   2.528413
    16  C    7.763613   8.942714   6.720440   5.394911   5.139617
    17  C    9.008900  10.222850   8.069988   6.722223   6.233582
    18  C    8.679750   9.924444   7.945651   6.602545   5.793113
    19  C    7.317081   8.507359   6.736776   5.443853   4.528585
    20  O    9.700089  10.937938   9.070162   7.734769   6.799361
    21  H    2.152614   2.575301   1.085806   2.131595   3.499782
    22  H    3.241847   4.396899   2.976775   2.073850   1.104794
    23  H    2.828186   3.880260   3.033268   2.821228   2.163511
    24  H    3.437965   4.484374   3.881737   3.455604   2.176000
    25  H    2.105514   2.793298   3.061654   3.290265   2.795421
    26  H    2.129583   2.555550   3.374929   3.886650   3.483538
    27  H    4.006097   4.794823   2.576928   2.135145   3.490431
    28  H    4.117695   5.030118   2.931309   2.078105   2.966209
    29  H    5.130137   6.206632   3.928546   2.885071   3.325860
    30  H    5.865008   6.898520   4.568046   3.456384   3.989564
    31  H    5.240775   6.402384   4.375796   3.063027   2.696664
    32  H    4.561571   5.776985   3.940142   2.863546   2.161079
    33  H    6.820578   8.040589   5.928925   4.651020   4.164021
    34  H    7.085527   8.317582   6.640442   5.463852   4.363826
    35  H    7.406893   8.616708   7.146740   5.978537   4.660957
    36  H    5.258315   6.436077   5.115190   4.057156   2.644696
    37  H    5.223808   6.396721   5.185114   4.263566   2.843566
    38  H    7.969867   9.105703   6.803982   5.549038   5.549387
    39  H    7.713484   8.851046   6.665062   5.364292   5.190247
    40  H    9.670973  10.880527   8.680776   7.359107   6.948969
    41  H    9.666999  10.863611   8.732367   7.385178   6.906403
    42  H    8.881109  10.129297   8.170396   6.864869   6.039919
    43  H    7.998774   9.163066   7.296766   5.995342   5.286519
    44  H    7.877323   9.051091   7.458207   6.216836   5.133339
    45  H    6.423452   7.579109   5.895189   4.660556   3.765568
    46  H    9.985764  11.227102   9.446597   8.139884   7.097264
                    6          7          8          9         10
     6  C    0.000000
     7  C    1.522081   0.000000
     8  C    3.882774   4.369421   0.000000
     9  C    4.338250   5.242194   1.526454   0.000000
    10  C    3.913123   5.036012   2.488285   1.524597   0.000000
    11  C    2.569868   3.905747   2.964917   2.499782   1.543428
    12  C    5.073921   6.352283   3.872166   2.557448   1.519218
    13  C    5.332145   6.650455   5.015518   3.919287   2.535424
    14  C    4.524930   5.940552   5.317665   4.404238   3.000310
    15  C    3.028943   4.412525   4.422806   3.902064   2.588407
    16  C    6.472042   7.649674   4.521438   3.166749   2.620911
    17  C    7.431073   8.713562   5.992362   4.618748   3.836951
    18  C    6.776154   8.141516   6.209000   4.918224   3.771352
    19  C    5.620666   6.721005   5.224551   4.433187   3.020142
    20  O    7.705796   9.032162   7.410195   6.212602   4.962581
    21  H    3.894081   3.501259   2.679067   4.060179   4.885100
    22  H    2.161631   2.757885   2.921978   3.415501   2.753672
    23  H    1.099690   2.160619   4.120880   4.431466   4.195560
    24  H    1.093898   2.142820   4.734782   4.997897   4.264657
    25  H    2.154411   1.099119   4.658508   5.580555   5.220425
    26  H    2.192351   1.095397   5.380597   6.212532   5.998350
    27  H    4.591048   4.893513   1.094863   2.186457   3.459982
    28  H    4.346641   4.666743   1.103654   2.155783   2.768627
    29  H    4.434391   5.434539   2.168662   1.098237   2.164938
    30  H    5.402985   6.244869   2.148756   1.094137   2.171267
    31  H    4.169384   5.088741   2.614554   2.113594   1.095609
    32  H    2.788049   4.197264   3.267691   2.644998   2.137269
    33  H    5.178246   6.553759   4.232903   2.822787   2.135707
    34  H    4.827648   6.325006   5.651467   4.605859   3.418259
    35  H    5.089769   6.438312   6.275381   5.446118   3.990146
    36  H    3.168200   4.305666   4.636607   4.347040   2.981551
    37  H    2.759358   4.179275   5.048865   4.643621   3.505347
    38  H    6.887765   8.030189   4.496907   3.082435   3.060819
    39  H    6.622923   7.654462   4.402802   3.295944   2.777430
    40  H    8.096124   9.425896   6.577939   5.114126   4.540254
    41  H    8.158721   9.370737   6.596081   5.325522   4.530423
    42  H    6.870671   8.318415   6.553031   5.193530   4.154211
    43  H    6.508130   7.541440   5.528859   4.692957   3.481815
    44  H    6.024727   7.107556   6.166914   5.444214   3.976262
    45  H    4.905020   5.860186   4.549955   4.046550   2.671359
    46  H    7.838432   9.213585   7.951427   6.753266   5.466152
                   11         12         13         14         15
    11  C    0.000000
    12  C    2.505893   0.000000
    13  C    2.971481   1.543454   0.000000
    14  C    2.590932   2.486193   1.528024   0.000000
    15  C    1.542623   2.917773   2.525458   1.534531   0.000000
    16  C    3.938212   1.530251   2.418326   3.767336   4.377181
    17  C    4.879685   2.422019   2.455937   3.817966   4.884291
    18  C    4.360955   2.367942   1.541273   2.590977   3.924321
    19  C    3.565201   2.563634   1.538045   2.514136   3.040385
    20  O    5.454320   3.685088   2.509923   3.320445   4.720475
    21  H    4.643795   6.334862   7.323615   7.229344   5.975215
    22  H    2.123260   4.073821   4.311319   4.058042   2.702074
    23  H    2.814311   5.237963   5.634273   4.746777   3.399240
    24  H    2.817327   5.219827   5.160501   4.142114   2.671658
    25  H    4.216274   6.542828   6.690656   6.061513   4.538915
    26  H    4.748740   7.243477   7.472069   6.604643   5.097515
    27  H    3.930347   4.722934   5.985818   6.307251   5.435145
    28  H    3.446996   4.133853   5.125089   5.592092   4.717783
    29  H    2.715340   2.867007   4.283010   4.567477   4.132481
    30  H    3.464964   2.772588   4.211126   5.005832   4.735755
    31  H    2.163454   2.131041   2.750044   3.396236   2.913299
    32  H    1.102615   2.795433   3.457458   2.929365   2.150044
    33  H    2.698102   1.106729   2.141994   2.614587   3.145718
    34  H    2.935301   2.732363   2.157001   1.101849   2.168430
    35  H    3.513588   3.462584   2.179630   1.100622   2.154827
    36  H    2.167633   3.463015   2.864844   2.154189   1.097571
    37  H    2.166135   3.846354   3.454531   2.145120   1.095643
    38  H    4.413395   2.203268   3.389723   4.594550   5.105451
    39  H    4.220868   2.162296   2.835508   4.259315   4.682598
    40  H    5.536887   3.087834   3.308583   4.482671   5.612416
    41  H    5.651543   3.262040   3.084047   4.527528   5.579914
    42  H    4.521938   2.733175   2.153415   2.661830   4.077040
    43  H    4.363189   2.900650   2.199684   3.478818   4.064470
    44  H    4.233382   3.502273   2.171236   2.696919   3.337192
    45  H    3.119108   2.808791   2.201402   2.842609   2.777122
    46  H    5.722746   4.206559   2.953312   3.326589   4.815142
                   16         17         18         19         20
    16  C    0.000000
    17  C    1.545592   0.000000
    18  C    2.474624   1.549507   0.000000
    19  C    3.021370   3.139282   2.526245   0.000000
    20  O    3.654231   2.469351   1.430816   2.858574   0.000000
    21  H    7.166090   8.597742   8.637949   7.495415   9.812346
    22  H    5.219918   6.278473   5.838504   4.131547   6.688378
    23  H    6.665058   7.607045   6.964053   6.184705   7.990969
    24  H    6.675800   7.444992   6.588674   5.398365   7.364059
    25  H    7.774411   8.807955   8.222173   6.511771   8.991390
    26  H    8.599965   9.603280   8.936508   7.604146   9.795808
    27  H    5.217766   6.729331   7.082417   6.257340   8.335127
    28  H    4.594255   6.062940   6.343972   5.011195   7.421832
    29  H    3.574973   4.898035   5.141418   5.097176   6.521273
    30  H    2.803369   4.335343   4.973112   4.630472   6.246191
    31  H    2.866621   4.064548   4.053758   2.626231   5.041219
    32  H    4.228029   5.121926   4.621972   4.381426   5.827037
    33  H    2.143609   2.760429   2.603465   3.486071   4.014815
    34  H    4.001002   3.954310   2.749677   3.465228   3.619501
    35  H    4.580287   4.367875   2.944725   2.732386   3.188832
    36  H    4.763330   5.270907   4.331210   2.788456   4.905203
    37  H    5.347410   5.780786   4.706038   4.053180   5.438663
    38  H    1.091970   2.210586   3.337215   4.092688   4.562916
    39  H    1.093014   2.189254   3.108628   2.857993   4.033524
    40  H    2.201251   1.094759   2.186376   4.192879   3.038621
    41  H    2.193768   1.091983   2.183619   3.282764   2.513802
    42  H    3.051634   2.174964   1.100699   3.445969   2.047874
    43  H    2.774282   2.808279   2.683815   1.091924   2.883880
    44  H    3.999696   3.813416   2.899024   1.091360   2.738604
    45  H    3.449821   3.962213   3.482408   1.089647   3.940468
    46  H    4.401209   3.230104   1.960725   3.483120   0.984545
                   21         22         23         24         25
    21  H    0.000000
    22  H    3.922111   0.000000
    23  H    3.996037   3.072153   0.000000
    24  H    4.962331   2.502887   1.760182   0.000000
    25  H    3.985922   2.588333   3.064891   2.446212   0.000000
    26  H    4.234865   3.784827   2.503226   2.529818   1.757003
    27  H    2.341374   3.902637   4.678145   5.545460   5.277843
    28  H    3.106354   2.878836   4.812650   5.102253   4.702026
    29  H    4.220142   4.033738   4.252044   5.125485   5.962344
    30  H    4.722264   4.270939   5.524592   6.040840   6.511045
    31  H    4.993217   2.470324   4.695355   4.466962   5.046398
    32  H    4.736089   3.037942   2.581585   3.126220   4.748058
    33  H    6.523958   4.622484   5.111211   5.340900   6.908261
    34  H    7.497587   4.741015   4.797894   4.501170   6.615256
    35  H    8.090922   4.648766   5.393026   4.497075   6.446669
    36  H    6.105357   2.362990   3.838795   2.690349   4.162263
    37  H    6.205068   3.193384   2.960293   2.160854   4.427001
    38  H    7.110338   5.764176   6.960756   7.225720   8.254645
    39  H    7.068857   5.065819   6.967907   6.850105   7.647133
    40  H    9.156062   7.119993   8.144334   8.145193   9.614256
    41  H    9.240260   6.799938   8.438284   8.141551   9.357490
    42  H    8.871793   6.262763   6.894946   6.669868   8.523580
    43  H    7.949653   4.847554   7.073894   6.379946   7.300797
    44  H    8.288254   4.667461   6.631998   5.611892   6.818365
    45  H    6.664306   3.199762   5.595526   4.750782   5.568760
    46  H   10.243064   7.054013   8.059373   7.399035   9.213684
                   26         27         28         29         30
    26  H    0.000000
    27  H    5.830168   0.000000
    28  H    5.737536   1.757275   0.000000
    29  H    6.293326   2.504774   3.069980   0.000000
    30  H    7.242300   2.524990   2.440800   1.761986   0.000000
    31  H    6.117210   3.650803   2.434631   3.036752   2.501789
    32  H    4.901965   4.032625   4.017524   2.389657   3.641487
    33  H    7.352783   4.959333   4.736172   2.689598   3.134292
    34  H    6.905127   6.542651   6.104166   4.507885   5.219420
    35  H    7.020750   7.298379   6.459367   5.658188   6.026170
    36  H    5.031265   5.703718   4.692536   4.798006   5.118037
    37  H    4.654442   5.987958   5.461429   4.691557   5.570660
    38  H    8.978471   4.987853   4.685149   3.307251   2.482745
    39  H    8.664520   5.118366   4.213342   3.981936   2.797162
    40  H   10.283388   7.207751   6.765354   5.197162   4.771275
    41  H   10.295106   7.341120   6.500385   5.748450   4.928453
    42  H    9.032567   7.370166   6.856811   5.185878   5.337136
    43  H    8.479494   6.491360   5.191897   5.435085   4.635435
    44  H    7.907458   7.226828   5.941849   6.062872   5.705516
    45  H    6.784795   5.614456   4.231225   4.833031   4.354731
    46  H    9.892724   8.887145   8.047730   6.955055   6.896012
                   31         32         33         34         35
    31  H    0.000000
    32  H    3.041548   0.000000
    33  H    3.035901   2.533873   0.000000
    34  H    4.075846   2.850451   2.389732   0.000000
    35  H    4.207011   3.913269   3.648404   1.774645   0.000000
    36  H    2.894383   3.045016   3.957368   3.056300   2.397891
    37  H    3.923731   2.388093   3.840904   2.413916   2.502212
    38  H    3.460099   4.508801   2.436851   4.650284   5.491289
    39  H    2.601302   4.728165   3.044920   4.718519   4.985427
    40  H    4.932298   5.585313   3.067459   4.367210   5.053582
    41  H    4.520902   6.028904   3.784945   4.822209   4.916873
    42  H    4.671050   4.530852   2.498671   2.365971   3.047809
    43  H    2.970623   5.152175   3.894885   4.316701   3.717280
    44  H    3.594345   5.041244   4.291926   3.689626   2.453831
    45  H    2.002817   4.104216   3.790811   3.862824   3.157288
    46  H    5.648075   5.997449   4.347994   3.455164   2.992667
                   36         37         38         39         40
    36  H    0.000000
    37  H    1.758018   0.000000
    38  H    5.595637   6.008773   0.000000
    39  H    4.835144   5.734913   1.746499   0.000000
    40  H    6.134533   6.414725   2.390415   3.002951   0.000000
    41  H    5.789749   6.529944   2.853597   2.350010   1.755778
    42  H    4.701071   4.662584   3.681238   3.904286   2.322424
    43  H    3.824160   5.105750   3.826699   2.343265   3.900151
    44  H    2.923043   4.189254   5.085772   3.878709   4.818519
    45  H    2.275803   3.811930   4.425412   3.118138   5.010909
    46  H    5.071129   5.360197   5.262130   4.893245   3.616319
                   41         42         43         44         45
    41  H    0.000000
    42  H    2.996207   0.000000
    43  H    2.627075   3.750540   0.000000
    44  H    3.845587   3.748127   1.760835   0.000000
    45  H    4.146410   4.315044   1.757902   1.745868   0.000000
    46  H    3.420258   2.094259   3.720045   3.184009   4.515916
                   46
    46  H    0.000000
 Stoichiometry    C18H26O2
 Framework group  C1[X(C18H26O2)]
 Deg. of freedom   132
 Full point group                 C1      NOp   1
 Largest Abelian subgroup         C1      NOp   1
 Largest concise Abelian subgroup C1      NOp   1
                         Standard orientation:                         
 ---------------------------------------------------------------------
 Center     Atomic      Atomic             Coordinates (Angstroms)
 Number     Number       Type             X           Y           Z
 ---------------------------------------------------------------------
      1          6           0        4.665747   -0.149065    0.129378
      2          8           0        5.900492   -0.039982    0.292975
      3          6           0        3.829267    1.003682   -0.023570
      4          6           0        2.476028    0.912289    0.041405
      5          6           0        1.776229   -0.425283    0.087574
      6          6           0        2.667738   -1.525297   -0.493269
      7          6           0        4.037101   -1.513379    0.171137
      8          6           0        1.666082    2.156368    0.226425
      9          6           0        0.284650    2.099065   -0.420434
     10          6           0       -0.422652    0.820652    0.015201
     11          6           0        0.358683   -0.397594   -0.521049
     12          6           0       -1.876207    0.731137   -0.417453
     13          6           0       -2.544831   -0.564765    0.088341
     14          6           0       -1.850761   -1.749462   -0.582194
     15          6           0       -0.345607   -1.749324   -0.283370
     16          6           0       -2.839413    1.834723    0.025264
     17          6           0       -4.237386    1.198937   -0.148805
     18          6           0       -3.998560   -0.317418   -0.360006
     19          6           0       -2.476505   -0.706781    1.618291
     20          8           0       -4.984998   -1.109740    0.308126
     21          1           0        4.325093    1.969491   -0.042159
     22          1           0        1.629163   -0.609887    1.166862
     23          1           0        2.775591   -1.378531   -1.577771
     24          1           0        2.214303   -2.510795   -0.352547
     25          1           0        3.933249   -1.787432    1.230464
     26          1           0        4.728219   -2.240003   -0.269623
     27          1           0        2.238146    3.029086   -0.104983
     28          1           0        1.548142    2.263811    1.318487
     29          1           0        0.373412    2.129379   -1.514659
     30          1           0       -0.286373    2.983304   -0.121787
     31          1           0       -0.392555    0.808548    1.110329
     32          1           0        0.450537   -0.257097   -1.610812
     33          1           0       -1.898262    0.689463   -1.523178
     34          1           0       -2.011080   -1.693032   -1.670857
     35          1           0       -2.277144   -2.703385   -0.236367
     36          1           0       -0.193396   -2.057519    0.758987
     37          1           0        0.126016   -2.516183   -0.907815
     38          1           0       -2.723405    2.761266   -0.540827
     39          1           0       -2.654453    2.092704    1.071168
     40          1           0       -4.773727    1.622899   -1.003845
     41          1           0       -4.862950    1.365293    0.730639
     42          1           0       -4.067561   -0.547300   -1.434217
     43          1           0       -3.075391    0.046968    2.133555
     44          1           0       -2.849173   -1.686451    1.922316
     45          1           0       -1.459499   -0.632673    2.002399
     46          1           0       -5.158484   -1.895064   -0.259763
 ---------------------------------------------------------------------
 Rotational constants (GHZ):           0.9153638           0.1760817           0.1559327
 Standard basis: 6-31G(d) (6D, 7F)
 There are   352 symmetry adapted cartesian basis functions of A   symmetry.
 There are   352 symmetry adapted basis functions of A   symmetry.
   352 basis functions,   664 primitive gaussians,   352 cartesian basis functions
    75 alpha electrons       75 beta electrons
       nuclear repulsion energy      1664.9032413111 Hartrees.
 NAtoms=   46 NActive=   46 NUniq=   46 SFac= 1.00D+00 NAtFMM=   60 NAOKFM=F Big=F
 Integral buffers will be    131072 words long.
 Raffenetti 2 integral format.
 Two-electron integral symmetry is turned on.
 Nuclear repulsion after empirical dispersion term =     1664.8547633451 Hartrees.
 One-electron integrals computed using PRISM.
 NBasis=   352 RedAO= T EigKep=  1.26D-03  NBF=   352
 NBsUse=   352 1.00D-06 EigRej= -1.00D+00 NBFU=   352
 ExpMin= 1.61D-01 ExpMax= 5.48D+03 ExpMxC= 8.25D+02 IAcc=3 IRadAn=         5 AccDes= 0.00D+00
 Harris functional with IExCor= 4639 and IRadAn=       5 diagonalized for initial guess.
 HarFok:  IExCor= 4639 AccDes= 0.00D+00 IRadAn=         5 IDoV= 1 UseB2=F ITyADJ=14
 ICtDFT=  3500011 ScaDFX=  1.000000  1.000000  1.000000  1.000000
 FoFCou: FMM=F IPFlag=           0 FMFlag=      100000 FMFlg1=           0
         NFxFlg=           0 DoJE=T BraDBF=F KetDBF=T FulRan=T
         wScrn=  0.000000 ICntrl=       500 IOpCl=  0 I1Cent=   200000004 NGrid=           0
         NMat0=    1 NMatS0=      1 NMatT0=    0 NMatD0=    1 NMtDS0=    0 NMtDT0=    0
 Petite list used in FoFCou.
 Requested convergence on RMS density matrix=1.00D-08 within 128 cycles.
 Requested convergence on MAX density matrix=1.00D-06.
 Requested convergence on             energy=1.00D-06.
 No special actions if energy rises.
 Integral accuracy reduced to 1.0D-05 until final iterations.
 Initial convergence to 1.0D-05 achieved.  Increase integral accuracy.
 SCF Done:  E(RwB97XD) =  -851.788492454     A.U. after   15 cycles
            NFock= 15  Conv=0.51D-08     -V/T= 2.0093

 **********************************************************************

            Population analysis using the SCF Density.

 **********************************************************************

 Orbital symmetries:
       Occupied  (A) (A) (A) (A) (A) (A) (A) (A) (A) (A) (A) (A)
                 (A) (A) (A) (A) (A) (A) (A) (A) (A) (A) (A) (A)
                 (A) (A) (A) (A) (A) (A) (A) (A) (A) (A) (A) (A)
                 (A) (A) (A) (A) (A) (A) (A) (A) (A) (A) (A) (A)
                 (A) (A) (A) (A) (A) (A) (A) (A) (A) (A) (A) (A)
                 (A) (A) (A) (A) (A) (A) (A) (A) (A) (A) (A) (A)
                 (A) (A) (A)
       Virtual   (A) (A) (A) (A) (A) (A) (A) (A) (A) (A) (A) (A)
                 (A) (A) (A) (A) (A) (A) (A) (A) (A) (A) (A) (A)
                 (A) (A) (A) (A) (A) (A) (A) (A) (A) (A) (A) (A)
                 (A) (A) (A) (A) (A) (A) (A) (A) (A) (A) (A) (A)
                 (A) (A) (A) (A) (A) (A) (A) (A) (A) (A) (A) (A)
                 (A) (A) (A) (A) (A) (A) (A) (A) (A) (A) (A) (A)
                 (A) (A) (A) (A) (A) (A) (A) (A) (A) (A) (A) (A)
                 (A) (A) (A) (A) (A) (A) (A) (A) (A) (A) (A) (A)
                 (A) (A) (A) (A) (A) (A) (A) (A) (A) (A) (A) (A)
                 (A) (A) (A) (A) (A) (A) (A) (A) (A) (A) (A) (A)
                 (A) (A) (A) (A) (A) (A) (A) (A) (A) (A) (A) (A)
                 (A) (A) (A) (A) (A) (A) (A) (A) (A) (A) (A) (A)
                 (A) (A) (A) (A) (A) (A) (A) (A) (A) (A) (A) (A)
                 (A) (A) (A) (A) (A) (A) (A) (A) (A) (A) (A) (A)
                 (A) (A) (A) (A) (A) (A) (A) (A) (A) (A) (A) (A)
                 (A) (A) (A) (A) (A) (A) (A) (A) (A) (A) (A) (A)
                 (A) (A) (A) (A) (A) (A) (A) (A) (A) (A) (A) (A)
                 (A) (A) (A) (A) (A) (A) (A) (A) (A) (A) (A) (A)
                 (A) (A) (A) (A) (A) (A) (A) (A) (A) (A) (A) (A)
                 (A) (A) (A) (A) (A) (A) (A) (A) (A) (A) (A) (A)
                 (A) (A) (A) (A) (A) (A) (A) (A) (A) (A) (A) (A)
                 (A) (A) (A) (A) (A) (A) (A) (A) (A) (A) (A) (A)
                 (A) (A) (A) (A) (A) (A) (A) (A) (A) (A) (A) (A)
                 (A)
 The electronic state is 1-A.
 Alpha  occ. eigenvalues --  -19.26906 -19.23147 -10.36619 -10.34467 -10.33033
 Alpha  occ. eigenvalues --  -10.31639 -10.30900 -10.30785 -10.30201 -10.30159
 Alpha  occ. eigenvalues --  -10.30039 -10.30015 -10.29875 -10.29741 -10.29644
 Alpha  occ. eigenvalues --  -10.29512 -10.29259 -10.29156 -10.29034 -10.28110
 Alpha  occ. eigenvalues --   -1.11408  -1.09901  -0.98042  -0.95497  -0.90727
 Alpha  occ. eigenvalues --   -0.90042  -0.87042  -0.84287  -0.82334  -0.81303
 Alpha  occ. eigenvalues --   -0.77668  -0.77121  -0.73578  -0.71873  -0.69562
 Alpha  occ. eigenvalues --   -0.67542  -0.65368  -0.65180  -0.62364  -0.61008
 Alpha  occ. eigenvalues --   -0.60267  -0.57873  -0.56802  -0.55252  -0.54895
 Alpha  occ. eigenvalues --   -0.54014  -0.53266  -0.52688  -0.51770  -0.50852
 Alpha  occ. eigenvalues --   -0.49833  -0.49629  -0.48341  -0.47563  -0.47409
 Alpha  occ. eigenvalues --   -0.46615  -0.46224  -0.46152  -0.44965  -0.44378
 Alpha  occ. eigenvalues --   -0.43643  -0.43497  -0.42858  -0.42129  -0.41689
 Alpha  occ. eigenvalues --   -0.40976  -0.40679  -0.40158  -0.39113  -0.38898
 Alpha  occ. eigenvalues --   -0.37705  -0.36244  -0.33562  -0.32330  -0.30688
 Alpha virt. eigenvalues --    0.02445   0.13227   0.13744   0.15363   0.16625
 Alpha virt. eigenvalues --    0.17199   0.17613   0.18726   0.19138   0.20394
 Alpha virt. eigenvalues --    0.20616   0.21132   0.22304   0.22734   0.23240
 Alpha virt. eigenvalues --    0.23468   0.24159   0.24392   0.25015   0.25443
 Alpha virt. eigenvalues --    0.25806   0.26052   0.26720   0.26997   0.27328
 Alpha virt. eigenvalues --    0.27983   0.28555   0.28963   0.29569   0.29837
 Alpha virt. eigenvalues --    0.30692   0.31261   0.31818   0.32392   0.33301
 Alpha virt. eigenvalues --    0.33758   0.34666   0.35170   0.35967   0.36432
 Alpha virt. eigenvalues --    0.37265   0.37736   0.38903   0.39399   0.40893
 Alpha virt. eigenvalues --    0.42046   0.42109   0.44615   0.45495   0.50032
 Alpha virt. eigenvalues --    0.51803   0.58283   0.58615   0.59516   0.60616
 Alpha virt. eigenvalues --    0.61332   0.61662   0.62241   0.62677   0.64960
 Alpha virt. eigenvalues --    0.65790   0.66325   0.66829   0.68229   0.69358
 Alpha virt. eigenvalues --    0.70620   0.71103   0.72284   0.73096   0.73537
 Alpha virt. eigenvalues --    0.73950   0.74487   0.75440   0.75985   0.76271
 Alpha virt. eigenvalues --    0.77478   0.77889   0.78649   0.80215   0.81315
 Alpha virt. eigenvalues --    0.82702   0.83026   0.84284   0.85577   0.86123
 Alpha virt. eigenvalues --    0.86707   0.87506   0.88985   0.89831   0.90151
 Alpha virt. eigenvalues --    0.91037   0.92319   0.93229   0.93476   0.94617
 Alpha virt. eigenvalues --    0.94752   0.95527   0.96153   0.96676   0.96945
 Alpha virt. eigenvalues --    0.97367   0.97728   0.97916   0.98557   0.98600
 Alpha virt. eigenvalues --    0.99347   1.00532   1.00662   1.01428   1.02633
 Alpha virt. eigenvalues --    1.03300   1.03946   1.04234   1.04568   1.04715
 Alpha virt. eigenvalues --    1.05576   1.05829   1.07225   1.07329   1.08075
 Alpha virt. eigenvalues --    1.09678   1.10143   1.10944   1.11476   1.13149
 Alpha virt. eigenvalues --    1.14153   1.15629   1.16361   1.18708   1.20188
 Alpha virt. eigenvalues --    1.20645   1.24821   1.25851   1.27273   1.28554
 Alpha virt. eigenvalues --    1.29605   1.31546   1.33776   1.35143   1.38187
 Alpha virt. eigenvalues --    1.40171   1.41902   1.43515   1.44529   1.47225
 Alpha virt. eigenvalues --    1.50051   1.51823   1.53509   1.57034   1.57778
 Alpha virt. eigenvalues --    1.61753   1.62987   1.64687   1.65894   1.66791
 Alpha virt. eigenvalues --    1.69432   1.70677   1.73277   1.75268   1.76803
 Alpha virt. eigenvalues --    1.78800   1.79822   1.80560   1.82503   1.83523
 Alpha virt. eigenvalues --    1.84844   1.86355   1.87103   1.88603   1.89389
 Alpha virt. eigenvalues --    1.89953   1.90931   1.91919   1.93928   1.94744
 Alpha virt. eigenvalues --    1.96137   1.96876   1.97298   1.98649   1.99709
 Alpha virt. eigenvalues --    1.99979   2.00810   2.01792   2.02205   2.03122
 Alpha virt. eigenvalues --    2.04141   2.05560   2.06041   2.06913   2.08614
 Alpha virt. eigenvalues --    2.09121   2.10092   2.10316   2.11387   2.12157
 Alpha virt. eigenvalues --    2.12819   2.14920   2.16518   2.17181   2.17925
 Alpha virt. eigenvalues --    2.19596   2.20083   2.21019   2.23289   2.24317
 Alpha virt. eigenvalues --    2.25829   2.27464   2.30122   2.30307   2.32019
 Alpha virt. eigenvalues --    2.34046   2.34894   2.36327   2.37509   2.39904
 Alpha virt. eigenvalues --    2.39988   2.41579   2.43020   2.44108   2.45312
 Alpha virt. eigenvalues --    2.47186   2.50135   2.50936   2.52315   2.52624
 Alpha virt. eigenvalues --    2.54822   2.58218   2.58288   2.60391   2.61781
 Alpha virt. eigenvalues --    2.62979   2.63864   2.66131   2.66277   2.67998
 Alpha virt. eigenvalues --    2.69386   2.70585   2.71385   2.75021   2.76069
 Alpha virt. eigenvalues --    2.78153   2.79178   2.81166   2.82555   2.84191
 Alpha virt. eigenvalues --    2.86813   2.89930   2.93539   2.97770   2.99178
 Alpha virt. eigenvalues --    3.00664   3.02730   3.07216   3.08672   3.09925
 Alpha virt. eigenvalues --    3.20674   3.27417   3.95921   4.07129   4.24134
 Alpha virt. eigenvalues --    4.27262   4.30496   4.34235   4.35516   4.38400
 Alpha virt. eigenvalues --    4.41370   4.42639   4.48086   4.54015   4.55907
 Alpha virt. eigenvalues --    4.64869   4.67023   4.73403   4.77130   4.80437
 Alpha virt. eigenvalues --    4.86649   4.91440
          Condensed to atoms (all electrons):
               1          2          3          4          5          6
     1  C    4.431887   0.517285   0.387460  -0.005144  -0.020248  -0.027318
     2  O    0.517285   8.126580  -0.060906   0.005191   0.000219   0.003273
     3  C    0.387460  -0.060906   5.269636   0.517709  -0.046700   0.008404
     4  C   -0.005144   0.005191   0.517709   4.885515   0.375494  -0.046143
     5  C   -0.020248   0.000219  -0.046700   0.375494   5.086779   0.353929
     6  C   -0.027318   0.003273   0.008404  -0.046143   0.353929   5.145969
     7  C    0.338753  -0.077986  -0.129295   0.000579  -0.036094   0.281249
     8  C    0.003767  -0.000102  -0.036636   0.359049  -0.064700   0.004630
     9  C   -0.000137   0.000000   0.002964  -0.034591  -0.011050  -0.000332
    10  C   -0.000008   0.000000   0.000422  -0.014409  -0.038964   0.003913
    11  C   -0.000079   0.000000   0.004001  -0.030327   0.364982  -0.046326
    12  C   -0.000000   0.000000   0.000003   0.000344   0.003695  -0.000125
    13  C   -0.000000   0.000000   0.000000   0.000006   0.000042  -0.000006
    14  C    0.000000  -0.000000   0.000001  -0.000091   0.003277   0.000253
    15  C   -0.000001  -0.000000  -0.000127   0.004432  -0.042546  -0.004242
    16  C   -0.000000  -0.000000   0.000000   0.000001  -0.000109   0.000001
    17  C    0.000000  -0.000000  -0.000000   0.000000   0.000001  -0.000000
    18  C    0.000000  -0.000000  -0.000000   0.000000   0.000004   0.000000
    19  C   -0.000000  -0.000000   0.000000   0.000003   0.000055   0.000000
    20  O   -0.000000   0.000000   0.000000   0.000000  -0.000000  -0.000000
    21  H   -0.029444   0.000994   0.360916  -0.045328   0.004560  -0.000442
    22  H    0.000659   0.000017  -0.005525  -0.046256   0.368006  -0.034430
    23  H   -0.002982   0.000020   0.003505  -0.004155  -0.041618   0.383710
    24  H    0.003453  -0.000068  -0.000262   0.004635  -0.032401   0.376134
    25  H   -0.026925  -0.000899   0.001764  -0.000911  -0.003914  -0.038118
    26  H   -0.024178   0.002070   0.004591  -0.000216   0.004014  -0.029303
    27  H    0.000283  -0.000002  -0.002796  -0.039083   0.003933  -0.000137
    28  H   -0.000137   0.000007  -0.008619  -0.038973   0.000834   0.000103
    29  H   -0.000000  -0.000000  -0.000190  -0.003509   0.000622   0.000003
    30  H    0.000001  -0.000000  -0.000085   0.004284   0.000051   0.000011
    31  H    0.000005   0.000000  -0.000278  -0.005130  -0.000690   0.000168
    32  H    0.000019  -0.000000  -0.000112  -0.003797  -0.040466  -0.004625
    33  H    0.000000   0.000000  -0.000001  -0.000067   0.000202   0.000000
    34  H    0.000000  -0.000000  -0.000000   0.000002   0.000041  -0.000019
    35  H   -0.000000   0.000000  -0.000000   0.000001  -0.000097   0.000001
    36  H    0.000003  -0.000000  -0.000014   0.000194  -0.003991  -0.001317
    37  H   -0.000009  -0.000000   0.000014  -0.000128  -0.005403   0.001222
    38  H    0.000000  -0.000000   0.000000  -0.000001   0.000001  -0.000000
    39  H    0.000000   0.000000  -0.000000  -0.000001   0.000002   0.000000
    40  H    0.000000  -0.000000   0.000000   0.000000  -0.000000   0.000000
    41  H    0.000000  -0.000000  -0.000000  -0.000000  -0.000000   0.000000
    42  H    0.000000  -0.000000  -0.000000   0.000000   0.000000  -0.000000
    43  H   -0.000000  -0.000000   0.000000   0.000000  -0.000004  -0.000000
    44  H    0.000000   0.000000  -0.000000  -0.000000  -0.000006   0.000000
    45  H    0.000000   0.000000  -0.000000  -0.000001   0.000156   0.000002
    46  H   -0.000000   0.000000  -0.000000   0.000000  -0.000000  -0.000000
               7          8          9         10         11         12
     1  C    0.338753   0.003767  -0.000137  -0.000008  -0.000079  -0.000000
     2  O   -0.077986  -0.000102   0.000000   0.000000   0.000000   0.000000
     3  C   -0.129295  -0.036636   0.002964   0.000422   0.004001   0.000003
     4  C    0.000579   0.359049  -0.034591  -0.014409  -0.030327   0.000344
     5  C   -0.036094  -0.064700  -0.011050  -0.038964   0.364982   0.003695
     6  C    0.281249   0.004630  -0.000332   0.003913  -0.046326  -0.000125
     7  C    5.354431  -0.000075   0.000037  -0.000098   0.004321   0.000002
     8  C   -0.000075   5.151102   0.335553  -0.042969  -0.015418   0.003996
     9  C    0.000037   0.335553   5.106821   0.366346  -0.042090  -0.041510
    10  C   -0.000098  -0.042969   0.366346   5.015046   0.372973   0.371581
    11  C    0.004321  -0.015418  -0.042090   0.372973   5.041385  -0.036738
    12  C    0.000002   0.003996  -0.041510   0.371581  -0.036738   5.111862
    13  C    0.000000  -0.000134   0.004388  -0.026726  -0.011556   0.345365
    14  C   -0.000002  -0.000011  -0.000093  -0.011806  -0.037848  -0.049681
    15  C    0.000105   0.000279   0.004355  -0.039358   0.362004  -0.017285
    16  C   -0.000000   0.000053  -0.004176  -0.033974   0.004267   0.355800
    17  C    0.000000  -0.000001   0.000168   0.003708  -0.000171  -0.055050
    18  C   -0.000000   0.000002  -0.000123   0.004013   0.000156  -0.065487
    19  C    0.000000  -0.000006   0.000335  -0.007843  -0.003001  -0.060473
    20  O    0.000000  -0.000000   0.000000  -0.000055  -0.000002   0.003442
    21  H    0.006268  -0.007306   0.000256   0.000001  -0.000079   0.000000
    22  H   -0.005207   0.001686  -0.000641  -0.005456  -0.047053  -0.000015
    23  H   -0.038603   0.000037  -0.000037   0.000062  -0.003524  -0.000001
    24  H   -0.030047  -0.000104  -0.000007  -0.000006  -0.007750  -0.000002
    25  H    0.367608  -0.000014  -0.000002   0.000001  -0.000014   0.000000
    26  H    0.369272   0.000008   0.000000   0.000001  -0.000063  -0.000000
    27  H    0.000005   0.378769  -0.030738   0.004253  -0.000162  -0.000113
    28  H   -0.000075   0.379150  -0.040750  -0.005964  -0.000647  -0.000003
    29  H   -0.000003  -0.034844   0.378467  -0.038885  -0.007762  -0.003298
    30  H   -0.000000  -0.032321   0.379284  -0.032592   0.004626  -0.007002
    31  H   -0.000011   0.000111  -0.053443   0.383023  -0.050356  -0.044898
    32  H   -0.000040   0.000394  -0.007189  -0.047274   0.375722  -0.004315
    33  H   -0.000000   0.000063  -0.004875  -0.043459  -0.006022   0.379088
    34  H   -0.000000   0.000000  -0.000024  -0.000355  -0.003101  -0.006567
    35  H   -0.000000  -0.000000   0.000010  -0.000104   0.004036   0.006401
    36  H   -0.000083   0.000001  -0.000037  -0.003031  -0.044772  -0.000258
    37  H    0.000040  -0.000011  -0.000112   0.004182  -0.029650   0.000068
    38  H    0.000000  -0.000008   0.001196  -0.001642  -0.000087  -0.025586
    39  H   -0.000000  -0.000049  -0.000660  -0.004396   0.000090  -0.039930
    40  H   -0.000000  -0.000000  -0.000006  -0.000056   0.000004   0.000865
    41  H   -0.000000  -0.000000   0.000001  -0.000125   0.000002   0.003728
    42  H   -0.000000  -0.000000   0.000006  -0.000164  -0.000014   0.000266
    43  H    0.000000  -0.000000  -0.000035  -0.000145   0.000056  -0.003402
    44  H    0.000000  -0.000000  -0.000002   0.000102   0.000103   0.005445
    45  H   -0.000000   0.000015   0.000030   0.000366  -0.000699  -0.007074
    46  H   -0.000000   0.000000  -0.000000   0.000002   0.000000  -0.000039
              13         14         15         16         17         18
     1  C   -0.000000   0.000000  -0.000001  -0.000000   0.000000   0.000000
     2  O    0.000000  -0.000000  -0.000000  -0.000000  -0.000000  -0.000000
     3  C    0.000000   0.000001  -0.000127   0.000000  -0.000000  -0.000000
     4  C    0.000006  -0.000091   0.004432   0.000001   0.000000   0.000000
     5  C    0.000042   0.003277  -0.042546  -0.000109   0.000001   0.000004
     6  C   -0.000006   0.000253  -0.004242   0.000001  -0.000000   0.000000
     7  C    0.000000  -0.000002   0.000105  -0.000000   0.000000  -0.000000
     8  C   -0.000134  -0.000011   0.000279   0.000053  -0.000001   0.000002
     9  C    0.004388  -0.000093   0.004355  -0.004176   0.000168  -0.000123
    10  C   -0.026726  -0.011806  -0.039358  -0.033974   0.003708   0.004013
    11  C   -0.011556  -0.037848   0.362004   0.004267  -0.000171   0.000156
    12  C    0.345365  -0.049681  -0.017285   0.355800  -0.055050  -0.065487
    13  C    5.093865   0.372220  -0.038216  -0.049602  -0.090101   0.361406
    14  C    0.372220   5.120612   0.351441   0.005786   0.006460  -0.039032
    15  C   -0.038216   0.351441   5.099374   0.000264  -0.000224   0.004280
    16  C   -0.049602   0.005786   0.000264   5.112775   0.337121  -0.063764
    17  C   -0.090101   0.006460  -0.000224   0.337121   5.172569   0.362247
    18  C    0.361406  -0.039032   0.004280  -0.063764   0.362247   4.838159
    19  C    0.346987  -0.065774  -0.002928  -0.003083  -0.006038  -0.052362
    20  O   -0.056318   0.001184   0.000009   0.002092  -0.042653   0.235720
    21  H   -0.000000  -0.000000   0.000001  -0.000000  -0.000000  -0.000000
    22  H   -0.000034   0.000072  -0.008363   0.000000   0.000000  -0.000000
    23  H    0.000000  -0.000033  -0.000874   0.000000   0.000000  -0.000000
    24  H   -0.000002   0.000041   0.003815   0.000000   0.000000   0.000000
    25  H    0.000000  -0.000000  -0.000028   0.000000   0.000000  -0.000000
    26  H   -0.000000  -0.000000  -0.000000   0.000000  -0.000000   0.000000
    27  H    0.000001  -0.000000   0.000008  -0.000002  -0.000000  -0.000000
    28  H    0.000004   0.000000  -0.000007  -0.000009  -0.000000   0.000000
    29  H   -0.000038  -0.000002   0.000096  -0.000385  -0.000015  -0.000001
    30  H    0.000048  -0.000004  -0.000124   0.004044  -0.000004  -0.000008
    31  H   -0.010727   0.000562  -0.002587  -0.004056  -0.000016   0.000099
    32  H   -0.001084   0.000296  -0.044102  -0.000052   0.000003  -0.000047
    33  H   -0.051930  -0.006341  -0.000950  -0.045481  -0.001000  -0.002704
    34  H   -0.039018   0.375134  -0.036051   0.000045   0.000091  -0.006183
    35  H   -0.035134   0.371320  -0.033659  -0.000230   0.000039  -0.002978
    36  H   -0.007255  -0.035797   0.382217  -0.000014   0.000001  -0.000054
    37  H    0.004662  -0.033227   0.379405   0.000007   0.000003  -0.000073
    38  H    0.004815  -0.000143  -0.000004   0.377646  -0.027840   0.003043
    39  H   -0.005574   0.000022  -0.000023   0.385335  -0.033590   0.001594
    40  H    0.004286  -0.000144   0.000003  -0.031292   0.377653  -0.026577
    41  H   -0.001565  -0.000103   0.000003  -0.027079   0.374677  -0.029935
    42  H   -0.063980  -0.009130   0.000140   0.002641  -0.043728   0.385196
    43  H   -0.029452   0.004679   0.000036   0.001514   0.002951  -0.005335
    44  H   -0.028749  -0.004741  -0.000652  -0.000236   0.000199  -0.005097
    45  H   -0.031619  -0.004959   0.002101  -0.000046  -0.000138   0.004805
    46  H    0.000773   0.001086  -0.000015  -0.000236   0.005963  -0.019001
              19         20         21         22         23         24
     1  C   -0.000000  -0.000000  -0.029444   0.000659  -0.002982   0.003453
     2  O   -0.000000   0.000000   0.000994   0.000017   0.000020  -0.000068
     3  C    0.000000   0.000000   0.360916  -0.005525   0.003505  -0.000262
     4  C    0.000003   0.000000  -0.045328  -0.046256  -0.004155   0.004635
     5  C    0.000055  -0.000000   0.004560   0.368006  -0.041618  -0.032401
     6  C    0.000000  -0.000000  -0.000442  -0.034430   0.383710   0.376134
     7  C    0.000000   0.000000   0.006268  -0.005207  -0.038603  -0.030047
     8  C   -0.000006  -0.000000  -0.007306   0.001686   0.000037  -0.000104
     9  C    0.000335   0.000000   0.000256  -0.000641  -0.000037  -0.000007
    10  C   -0.007843  -0.000055   0.000001  -0.005456   0.000062  -0.000006
    11  C   -0.003001  -0.000002  -0.000079  -0.047053  -0.003524  -0.007750
    12  C   -0.060473   0.003442   0.000000  -0.000015  -0.000001  -0.000002
    13  C    0.346987  -0.056318  -0.000000  -0.000034   0.000000  -0.000002
    14  C   -0.065774   0.001184  -0.000000   0.000072  -0.000033   0.000041
    15  C   -0.002928   0.000009   0.000001  -0.008363  -0.000874   0.003815
    16  C   -0.003083   0.002092  -0.000000   0.000000   0.000000   0.000000
    17  C   -0.006038  -0.042653  -0.000000   0.000000   0.000000   0.000000
    18  C   -0.052362   0.235720  -0.000000  -0.000000  -0.000000   0.000000
    19  C    5.209706   0.001084   0.000000  -0.000111  -0.000000  -0.000001
    20  O    0.001084   8.289724   0.000000  -0.000000   0.000000   0.000000
    21  H    0.000000   0.000000   0.532097  -0.000231  -0.000094   0.000012
    22  H   -0.000111  -0.000000  -0.000231   0.593915   0.005419  -0.003046
    23  H   -0.000000   0.000000  -0.000094   0.005419   0.556712  -0.031087
    24  H   -0.000001   0.000000   0.000012  -0.003046  -0.031087   0.553810
    25  H   -0.000000   0.000000  -0.000161   0.005336   0.004858  -0.004712
    26  H    0.000000  -0.000000  -0.000104  -0.000122  -0.003198  -0.002203
    27  H    0.000000   0.000000   0.005025  -0.000105  -0.000002   0.000002
    28  H   -0.000011  -0.000000   0.000172   0.001272   0.000003   0.000007
    29  H   -0.000006  -0.000000  -0.000007   0.000093  -0.000001   0.000002
    30  H   -0.000008   0.000000  -0.000008  -0.000005   0.000000   0.000000
    31  H    0.001573  -0.000001  -0.000002   0.005431   0.000006  -0.000000
    32  H    0.000048   0.000000  -0.000008   0.006097   0.004715   0.000010
    33  H    0.006377   0.000008  -0.000000   0.000003  -0.000001  -0.000000
    34  H    0.006054  -0.000060   0.000000   0.000004   0.000001   0.000008
    35  H   -0.006249   0.002252   0.000000  -0.000007   0.000000   0.000005
    36  H    0.003162  -0.000001  -0.000000   0.006747   0.000122   0.001011
    37  H    0.000029   0.000001   0.000000   0.000048   0.000595   0.001592
    38  H    0.000084  -0.000029  -0.000000   0.000000   0.000000  -0.000000
    39  H    0.002253  -0.000003   0.000000  -0.000002  -0.000000  -0.000000
    40  H    0.000069   0.002139   0.000000  -0.000000  -0.000000  -0.000000
    41  H    0.001149   0.001308  -0.000000  -0.000000  -0.000000   0.000000
    42  H    0.007167  -0.035236  -0.000000  -0.000000  -0.000000   0.000000
    43  H    0.380502   0.000257   0.000000   0.000002   0.000000   0.000000
    44  H    0.376142   0.006023   0.000000   0.000001   0.000000  -0.000000
    45  H    0.374108   0.000298  -0.000000   0.000277   0.000000  -0.000001
    46  H   -0.000499   0.239488   0.000000   0.000000   0.000000  -0.000000
              25         26         27         28         29         30
     1  C   -0.026925  -0.024178   0.000283  -0.000137  -0.000000   0.000001
     2  O   -0.000899   0.002070  -0.000002   0.000007  -0.000000  -0.000000
     3  C    0.001764   0.004591  -0.002796  -0.008619  -0.000190  -0.000085
     4  C   -0.000911  -0.000216  -0.039083  -0.038973  -0.003509   0.004284
     5  C   -0.003914   0.004014   0.003933   0.000834   0.000622   0.000051
     6  C   -0.038118  -0.029303  -0.000137   0.000103   0.000003   0.000011
     7  C    0.367608   0.369272   0.000005  -0.000075  -0.000003  -0.000000
     8  C   -0.000014   0.000008   0.378769   0.379150  -0.034844  -0.032321
     9  C   -0.000002   0.000000  -0.030738  -0.040750   0.378467   0.379284
    10  C    0.000001   0.000001   0.004253  -0.005964  -0.038885  -0.032592
    11  C   -0.000014  -0.000063  -0.000162  -0.000647  -0.007762   0.004626
    12  C    0.000000  -0.000000  -0.000113  -0.000003  -0.003298  -0.007002
    13  C    0.000000  -0.000000   0.000001   0.000004  -0.000038   0.000048
    14  C   -0.000000  -0.000000  -0.000000   0.000000  -0.000002  -0.000004
    15  C   -0.000028  -0.000000   0.000008  -0.000007   0.000096  -0.000124
    16  C    0.000000   0.000000  -0.000002  -0.000009  -0.000385   0.004044
    17  C    0.000000  -0.000000  -0.000000  -0.000000  -0.000015  -0.000004
    18  C   -0.000000   0.000000  -0.000000   0.000000  -0.000001  -0.000008
    19  C   -0.000000   0.000000   0.000000  -0.000011  -0.000006  -0.000008
    20  O    0.000000  -0.000000   0.000000  -0.000000  -0.000000   0.000000
    21  H   -0.000161  -0.000104   0.005025   0.000172  -0.000007  -0.000008
    22  H    0.005336  -0.000122  -0.000105   0.001272   0.000093  -0.000005
    23  H    0.004858  -0.003198  -0.000002   0.000003  -0.000001   0.000000
    24  H   -0.004712  -0.002203   0.000002   0.000007   0.000002   0.000000
    25  H    0.530755  -0.021482  -0.000000   0.000008   0.000000   0.000000
    26  H   -0.021482   0.503438   0.000000  -0.000001  -0.000000   0.000000
    27  H   -0.000000   0.000000   0.529958  -0.025717  -0.002579  -0.001770
    28  H    0.000008  -0.000001  -0.025717   0.550862   0.004847  -0.004748
    29  H    0.000000  -0.000000  -0.002579   0.004847   0.565692  -0.031236
    30  H    0.000000   0.000000  -0.001770  -0.004748  -0.031236   0.552954
    31  H   -0.000001   0.000000   0.000119   0.005785   0.005824  -0.002445
    32  H    0.000009  -0.000001  -0.000018   0.000088   0.006214   0.000062
    33  H   -0.000000   0.000000   0.000004   0.000003   0.003456  -0.000042
    34  H   -0.000000   0.000000   0.000000  -0.000000  -0.000004   0.000001
    35  H    0.000000   0.000000   0.000000  -0.000000  -0.000000  -0.000000
    36  H    0.000008   0.000001  -0.000000  -0.000002  -0.000000   0.000004
    37  H    0.000013   0.000001  -0.000000   0.000000  -0.000007   0.000002
    38  H    0.000000  -0.000000   0.000001   0.000004   0.000182   0.000752
    39  H   -0.000000   0.000000   0.000001   0.000003   0.000063   0.000626
    40  H   -0.000000   0.000000  -0.000000   0.000000   0.000000   0.000002
    41  H   -0.000000   0.000000   0.000000  -0.000000   0.000000   0.000002
    42  H   -0.000000   0.000000   0.000000  -0.000000  -0.000001  -0.000000
    43  H    0.000000  -0.000000  -0.000000   0.000000   0.000000   0.000000
    44  H    0.000000  -0.000000   0.000000   0.000000   0.000000  -0.000000
    45  H    0.000000   0.000000  -0.000000  -0.000012  -0.000003   0.000006
    46  H    0.000000   0.000000  -0.000000   0.000000   0.000000  -0.000000
              31         32         33         34         35         36
     1  C    0.000005   0.000019   0.000000   0.000000  -0.000000   0.000003
     2  O    0.000000  -0.000000   0.000000  -0.000000   0.000000  -0.000000
     3  C   -0.000278  -0.000112  -0.000001  -0.000000  -0.000000  -0.000014
     4  C   -0.005130  -0.003797  -0.000067   0.000002   0.000001   0.000194
     5  C   -0.000690  -0.040466   0.000202   0.000041  -0.000097  -0.003991
     6  C    0.000168  -0.004625   0.000000  -0.000019   0.000001  -0.001317
     7  C   -0.000011  -0.000040  -0.000000  -0.000000  -0.000000  -0.000083
     8  C    0.000111   0.000394   0.000063   0.000000  -0.000000   0.000001
     9  C   -0.053443  -0.007189  -0.004875  -0.000024   0.000010  -0.000037
    10  C    0.383023  -0.047274  -0.043459  -0.000355  -0.000104  -0.003031
    11  C   -0.050356   0.375722  -0.006022  -0.003101   0.004036  -0.044772
    12  C   -0.044898  -0.004315   0.379088  -0.006567   0.006401  -0.000258
    13  C   -0.010727  -0.001084  -0.051930  -0.039018  -0.035134  -0.007255
    14  C    0.000562   0.000296  -0.006341   0.375134   0.371320  -0.035797
    15  C   -0.002587  -0.044102  -0.000950  -0.036051  -0.033659   0.382217
    16  C   -0.004056  -0.000052  -0.045481   0.000045  -0.000230  -0.000014
    17  C   -0.000016   0.000003  -0.001000   0.000091   0.000039   0.000001
    18  C    0.000099  -0.000047  -0.002704  -0.006183  -0.002978  -0.000054
    19  C    0.001573   0.000048   0.006377   0.006054  -0.006249   0.003162
    20  O   -0.000001   0.000000   0.000008  -0.000060   0.002252  -0.000001
    21  H   -0.000002  -0.000008  -0.000000   0.000000   0.000000  -0.000000
    22  H    0.005431   0.006097   0.000003   0.000004  -0.000007   0.006747
    23  H    0.000006   0.004715  -0.000001   0.000001   0.000000   0.000122
    24  H   -0.000000   0.000010  -0.000000   0.000008   0.000005   0.001011
    25  H   -0.000001   0.000009  -0.000000  -0.000000   0.000000   0.000008
    26  H    0.000000  -0.000001   0.000000   0.000000   0.000000   0.000001
    27  H    0.000119  -0.000018   0.000004   0.000000   0.000000  -0.000000
    28  H    0.005785   0.000088   0.000003  -0.000000  -0.000000  -0.000002
    29  H    0.005824   0.006214   0.003456  -0.000004  -0.000000  -0.000000
    30  H   -0.002445   0.000062  -0.000042   0.000001  -0.000000   0.000004
    31  H    0.613491   0.006068   0.006220   0.000034  -0.000016   0.001245
    32  H    0.006068   0.606534   0.004842   0.002433  -0.000099   0.005408
    33  H    0.006220   0.004842   0.623723   0.005531   0.000045   0.000072
    34  H    0.000034   0.002433   0.005531   0.586593  -0.031765   0.005016
    35  H   -0.000016  -0.000099   0.000045  -0.031765   0.577085  -0.005296
    36  H    0.001245   0.005408   0.000072   0.005016  -0.005296   0.574748
    37  H   -0.000075  -0.006125  -0.000115  -0.005405  -0.001339  -0.032903
    38  H   -0.000159  -0.000001  -0.005907  -0.000003   0.000003   0.000000
    39  H    0.004381   0.000004   0.005347  -0.000006   0.000005  -0.000003
    40  H    0.000002  -0.000000   0.000657  -0.000018   0.000000   0.000000
    41  H   -0.000009  -0.000000  -0.000053  -0.000001   0.000001  -0.000000
    42  H   -0.000011  -0.000004   0.003611   0.006580   0.000173  -0.000000
    43  H    0.000237   0.000001  -0.000066  -0.000132  -0.000021  -0.000014
    44  H   -0.000021   0.000003  -0.000103   0.000063   0.004918   0.000562
    45  H    0.004108  -0.000024   0.000007  -0.000086  -0.000122   0.000759
    46  H    0.000000   0.000000  -0.000010  -0.000003   0.000409   0.000001
              37         38         39         40         41         42
     1  C   -0.000009   0.000000   0.000000   0.000000   0.000000   0.000000
     2  O   -0.000000  -0.000000   0.000000  -0.000000  -0.000000  -0.000000
     3  C    0.000014   0.000000  -0.000000   0.000000  -0.000000  -0.000000
     4  C   -0.000128  -0.000001  -0.000001   0.000000  -0.000000   0.000000
     5  C   -0.005403   0.000001   0.000002  -0.000000  -0.000000   0.000000
     6  C    0.001222  -0.000000   0.000000   0.000000   0.000000  -0.000000
     7  C    0.000040   0.000000  -0.000000  -0.000000  -0.000000  -0.000000
     8  C   -0.000011  -0.000008  -0.000049  -0.000000  -0.000000  -0.000000
     9  C   -0.000112   0.001196  -0.000660  -0.000006   0.000001   0.000006
    10  C    0.004182  -0.001642  -0.004396  -0.000056  -0.000125  -0.000164
    11  C   -0.029650  -0.000087   0.000090   0.000004   0.000002  -0.000014
    12  C    0.000068  -0.025586  -0.039930   0.000865   0.003728   0.000266
    13  C    0.004662   0.004815  -0.005574   0.004286  -0.001565  -0.063980
    14  C   -0.033227  -0.000143   0.000022  -0.000144  -0.000103  -0.009130
    15  C    0.379405  -0.000004  -0.000023   0.000003   0.000003   0.000140
    16  C    0.000007   0.377646   0.385335  -0.031292  -0.027079   0.002641
    17  C    0.000003  -0.027840  -0.033590   0.377653   0.374677  -0.043728
    18  C   -0.000073   0.003043   0.001594  -0.026577  -0.029935   0.385196
    19  C    0.000029   0.000084   0.002253   0.000069   0.001149   0.007167
    20  O    0.000001  -0.000029  -0.000003   0.002139   0.001308  -0.035236
    21  H    0.000000  -0.000000   0.000000   0.000000  -0.000000  -0.000000
    22  H    0.000048   0.000000  -0.000002  -0.000000  -0.000000  -0.000000
    23  H    0.000595   0.000000  -0.000000  -0.000000  -0.000000  -0.000000
    24  H    0.001592  -0.000000  -0.000000  -0.000000   0.000000   0.000000
    25  H    0.000013   0.000000  -0.000000  -0.000000  -0.000000  -0.000000
    26  H    0.000001  -0.000000   0.000000   0.000000   0.000000   0.000000
    27  H   -0.000000   0.000001   0.000001  -0.000000   0.000000   0.000000
    28  H    0.000000   0.000004   0.000003   0.000000  -0.000000  -0.000000
    29  H   -0.000007   0.000182   0.000063   0.000000   0.000000  -0.000001
    30  H    0.000002   0.000752   0.000626   0.000002   0.000002  -0.000000
    31  H   -0.000075  -0.000159   0.004381   0.000002  -0.000009  -0.000011
    32  H   -0.006125  -0.000001   0.000004  -0.000000  -0.000000  -0.000004
    33  H   -0.000115  -0.005907   0.005347   0.000657  -0.000053   0.003611
    34  H   -0.005405  -0.000003  -0.000006  -0.000018  -0.000001   0.006580
    35  H   -0.001339   0.000003   0.000005   0.000000   0.000001   0.000173
    36  H   -0.032903   0.000000  -0.000003   0.000000  -0.000000  -0.000000
    37  H    0.558888  -0.000000  -0.000000  -0.000000  -0.000000  -0.000007
    38  H   -0.000000   0.551664  -0.034811  -0.006485   0.002354  -0.000113
    39  H   -0.000000  -0.034811   0.566156   0.003814  -0.008722  -0.000157
    40  H   -0.000000  -0.006485   0.003814   0.547093  -0.028600  -0.008077
    41  H   -0.000000   0.002354  -0.008722  -0.028600   0.526027   0.004686
    42  H   -0.000007  -0.000113  -0.000157  -0.008077   0.004686   0.633102
    43  H   -0.000001   0.000020   0.001052  -0.000030   0.000422   0.000069
    44  H   -0.000035   0.000000   0.000007  -0.000003   0.000033   0.000055
    45  H    0.000060  -0.000016   0.000105  -0.000000   0.000016  -0.000094
    46  H   -0.000000   0.000004   0.000001  -0.000254  -0.000133  -0.010741
              43         44         45         46
     1  C   -0.000000   0.000000   0.000000  -0.000000
     2  O   -0.000000   0.000000   0.000000   0.000000
     3  C    0.000000  -0.000000  -0.000000  -0.000000
     4  C    0.000000  -0.000000  -0.000001   0.000000
     5  C   -0.000004  -0.000006   0.000156  -0.000000
     6  C   -0.000000   0.000000   0.000002  -0.000000
     7  C    0.000000   0.000000  -0.000000  -0.000000
     8  C   -0.000000  -0.000000   0.000015   0.000000
     9  C   -0.000035  -0.000002   0.000030  -0.000000
    10  C   -0.000145   0.000102   0.000366   0.000002
    11  C    0.000056   0.000103  -0.000699   0.000000
    12  C   -0.003402   0.005445  -0.007074  -0.000039
    13  C   -0.029452  -0.028749  -0.031619   0.000773
    14  C    0.004679  -0.004741  -0.004959   0.001086
    15  C    0.000036  -0.000652   0.002101  -0.000015
    16  C    0.001514  -0.000236  -0.000046  -0.000236
    17  C    0.002951   0.000199  -0.000138   0.005963
    18  C   -0.005335  -0.005097   0.004805  -0.019001
    19  C    0.380502   0.376142   0.374108  -0.000499
    20  O    0.000257   0.006023   0.000298   0.239488
    21  H    0.000000   0.000000  -0.000000   0.000000
    22  H    0.000002   0.000001   0.000277   0.000000
    23  H    0.000000   0.000000   0.000000   0.000000
    24  H    0.000000  -0.000000  -0.000001  -0.000000
    25  H    0.000000   0.000000   0.000000   0.000000
    26  H   -0.000000  -0.000000   0.000000   0.000000
    27  H   -0.000000   0.000000  -0.000000  -0.000000
    28  H    0.000000   0.000000  -0.000012   0.000000
    29  H    0.000000   0.000000  -0.000003   0.000000
    30  H    0.000000  -0.000000   0.000006  -0.000000
    31  H    0.000237  -0.000021   0.004108   0.000000
    32  H    0.000001   0.000003  -0.000024   0.000000
    33  H   -0.000066  -0.000103   0.000007  -0.000010
    34  H   -0.000132   0.000063  -0.000086  -0.000003
    35  H   -0.000021   0.004918  -0.000122   0.000409
    36  H   -0.000014   0.000562   0.000759   0.000001
    37  H   -0.000001  -0.000035   0.000060  -0.000000
    38  H    0.000020   0.000000  -0.000016   0.000004
    39  H    0.001052   0.000007   0.000105   0.000001
    40  H   -0.000030  -0.000003  -0.000000  -0.000254
    41  H    0.000422   0.000033   0.000016  -0.000133
    42  H    0.000069   0.000055  -0.000094  -0.010741
    43  H    0.529727  -0.023572  -0.029753   0.000007
    44  H   -0.023572   0.526902  -0.031262  -0.000013
    45  H   -0.029753  -0.031262   0.562580  -0.000019
    46  H    0.000007  -0.000013  -0.000019   0.376338
 Mulliken charges:
               1
     1  C    0.453037
     2  O   -0.515693
     3  C   -0.269841
     4  C    0.160821
     5  C   -0.181896
     6  C   -0.330093
     7  C   -0.405048
     8  C   -0.383956
     9  C   -0.307558
    10  C   -0.130132
    11  C   -0.113416
    12  C   -0.123100
    13  C    0.039954
    14  C   -0.315487
    15  C   -0.322005
    16  C   -0.325568
    17  C   -0.343287
    18  C    0.118036
    19  C   -0.508493
    20  O   -0.650670
    21  H    0.172912
    22  H    0.161524
    23  H    0.166442
    24  H    0.167163
    25  H    0.186824
    26  H    0.197475
    27  H    0.180861
    28  H    0.182525
    29  H    0.157214
    30  H    0.165642
    31  H    0.136443
    32  H    0.140415
    33  H    0.129868
    34  H    0.141168
    35  H    0.150413
    36  H    0.153559
    37  H    0.163794
    38  H    0.161064
    39  H    0.157067
    40  H    0.164955
    41  H    0.181918
    42  H    0.127764
    43  H    0.170430
    44  H    0.173936
    45  H    0.156130
    46  H    0.406890
 Sum of Mulliken charges =  -0.00000
 Mulliken charges with hydrogens summed into heavy atoms:
               1
     1  C    0.453037
     2  O   -0.515693
     3  C   -0.096929
     4  C    0.160821
     5  C   -0.020372
     6  C    0.003512
     7  C   -0.020749
     8  C   -0.020570
     9  C    0.015299
    10  C    0.006310
    11  C    0.026999
    12  C    0.006769
    13  C    0.039954
    14  C   -0.023905
    15  C   -0.004652
    16  C   -0.007437
    17  C    0.003585
    18  C    0.245800
    19  C   -0.007998
    20  O   -0.243780
 Electronic spatial extent (au):  <R**2>=           6861.7449
 Charge=              0.0000 electrons
 Dipole moment (field-independent basis, Debye):
    X=             -4.4678    Y=             -0.5231    Z=             -1.4595  Tot=              4.7291
 Quadrupole moment (field-independent basis, Debye-Ang):
   XX=           -164.9187   YY=           -112.4959   ZZ=           -119.4002
   XY=              1.0555   XZ=              4.7825   YZ=              2.2402
 Traceless Quadrupole moment (field-independent basis, Debye-Ang):
   XX=            -32.6471   YY=             19.7757   ZZ=             12.8714
   XY=              1.0555   XZ=              4.7825   YZ=              2.2402
 Octapole moment (field-independent basis, Debye-Ang**2):
  XXX=           -251.5967  YYY=            -10.6170  ZZZ=              1.5254  XYY=             -5.3770
  XXY=            -23.4365  XXZ=            -52.9780  XZZ=             -1.9825  YZZ=             -2.0726
  YYZ=             -1.8458  XYZ=             -9.9746
 Hexadecapole moment (field-independent basis, Debye-Ang**3):
 XXXX=          -9129.4315 YYYY=          -1399.9420 ZZZZ=           -419.9163 XXXY=             76.2067
 XXXZ=             68.0896 YYYX=             78.7682 YYYZ=              0.7262 ZZZX=              9.8595
 ZZZY=              1.7569 XXYY=          -1264.3910 XXZZ=          -1236.0911 YYZZ=           -309.8126
 XXYZ=             56.0629 YYXZ=             13.2014 ZZXY=             -4.9479
 N-N= 1.664854763345D+03 E-N=-5.306858797716D+03  KE= 8.439242774074D+02

 **********************************************************************

            Electrostatic Properties Using The SCF Density.

 **********************************************************************

       Atomic Center    1 is at   4.665747 -0.149065  0.129378
       Atomic Center    2 is at   5.900492 -0.039982  0.292975
       Atomic Center    3 is at   3.829267  1.003682 -0.023570
       Atomic Center    4 is at   2.476028  0.912289  0.041405
       Atomic Center    5 is at   1.776229 -0.425283  0.087574
       Atomic Center    6 is at   2.667738 -1.525297 -0.493269
       Atomic Center    7 is at   4.037101 -1.513379  0.171137
       Atomic Center    8 is at   1.666082  2.156368  0.226425
       Atomic Center    9 is at   0.284650  2.099065 -0.420434
       Atomic Center   10 is at  -0.422652  0.820652  0.015201
       Atomic Center   11 is at   0.358683 -0.397594 -0.521049
       Atomic Center   12 is at  -1.876207  0.731137 -0.417453
       Atomic Center   13 is at  -2.544831 -0.564765  0.088341
       Atomic Center   14 is at  -1.850761 -1.749462 -0.582194
       Atomic Center   15 is at  -0.345607 -1.749324 -0.283370
       Atomic Center   16 is at  -2.839413  1.834723  0.025264
       Atomic Center   17 is at  -4.237386  1.198937 -0.148805
       Atomic Center   18 is at  -3.998560 -0.317418 -0.360006
       Atomic Center   19 is at  -2.476505 -0.706781  1.618291
       Atomic Center   20 is at  -4.984998 -1.109740  0.308126
       Atomic Center   21 is at   4.325093  1.969491 -0.042159
       Atomic Center   22 is at   1.629163 -0.609887  1.166862
       Atomic Center   23 is at   2.775591 -1.378531 -1.577771
       Atomic Center   24 is at   2.214303 -2.510795 -0.352547
       Atomic Center   25 is at   3.933249 -1.787432  1.230464
       Atomic Center   26 is at   4.728219 -2.240003 -0.269623
       Atomic Center   27 is at   2.238146  3.029086 -0.104983
       Atomic Center   28 is at   1.548142  2.263811  1.318487
       Atomic Center   29 is at   0.373412  2.129379 -1.514659
       Atomic Center   30 is at  -0.286373  2.983304 -0.121787
       Atomic Center   31 is at  -0.392555  0.808548  1.110329
       Atomic Center   32 is at   0.450537 -0.257097 -1.610812
       Atomic Center   33 is at  -1.898262  0.689463 -1.523178
       Atomic Center   34 is at  -2.011080 -1.693032 -1.670857
       Atomic Center   35 is at  -2.277144 -2.703385 -0.236367
       Atomic Center   36 is at  -0.193396 -2.057519  0.758987
       Atomic Center   37 is at   0.126016 -2.516183 -0.907815
       Atomic Center   38 is at  -2.723405  2.761266 -0.540827
       Atomic Center   39 is at  -2.654453  2.092704  1.071168
       Atomic Center   40 is at  -4.773727  1.622899 -1.003845
       Atomic Center   41 is at  -4.862950  1.365293  0.730639
       Atomic Center   42 is at  -4.067561 -0.547300 -1.434217
       Atomic Center   43 is at  -3.075391  0.046968  2.133555
       Atomic Center   44 is at  -2.849173 -1.686451  1.922316
       Atomic Center   45 is at  -1.459499 -0.632673  2.002399
       Atomic Center   46 is at  -5.158484 -1.895064 -0.259763
 -----------------------------------------------------------------

              Electrostatic Properties (Atomic Units)

 -----------------------------------------------------------------
    Center     Electric         -------- Electric Field --------
               Potential          X             Y             Z
 -----------------------------------------------------------------
    1 Atom    -14.674419      0.005348     -0.001383      0.000043
    2 Atom    -22.356868      0.102466      0.009203      0.013267
    3 Atom    -14.749215     -0.009792     -0.000564      0.000616
    4 Atom    -14.710540      0.012684      0.001136     -0.001465
    5 Atom    -14.718473     -0.002798     -0.003244     -0.001676
    6 Atom    -14.732193     -0.000122     -0.001327     -0.000410
    7 Atom    -14.740661      0.000689     -0.000306     -0.001878
    8 Atom    -14.726743     -0.001900      0.002222     -0.001119
    9 Atom    -14.734388     -0.002215     -0.001684     -0.000214
   10 Atom    -14.733531     -0.001372      0.000302     -0.001138
   11 Atom    -14.725745     -0.001898      0.001011      0.000471
   12 Atom    -14.738698     -0.000192     -0.001558      0.003213
   13 Atom    -14.735159     -0.001301      0.001675     -0.002072
   14 Atom    -14.738298     -0.002040      0.003129      0.001609
   15 Atom    -14.735452     -0.000419      0.000144      0.000064
   16 Atom    -14.741665      0.001400     -0.000458     -0.000068
   17 Atom    -14.744137     -0.001738     -0.000834      0.001461
   18 Atom    -14.689118      0.017635      0.011126     -0.008445
   19 Atom    -14.753384     -0.001383     -0.001171     -0.000814
   20 Atom    -22.311991     -0.048501      0.027993      0.097649
   21 Atom     -1.107146      0.016937      0.029100     -0.000061
   22 Atom     -1.103932     -0.004376     -0.010524      0.030392
   23 Atom     -1.117570      0.002296      0.003990     -0.028718
   24 Atom     -1.118031     -0.013769     -0.026608      0.003097
   25 Atom     -1.106659     -0.000882     -0.009105      0.029177
   26 Atom     -1.115013      0.020433     -0.016600     -0.011248
   27 Atom     -1.109941      0.015259      0.024187     -0.009239
   28 Atom     -1.102789     -0.004838      0.007205      0.027960
   29 Atom     -1.118218      0.001755      0.002339     -0.030078
   30 Atom     -1.118618     -0.017457      0.024651      0.007343
   31 Atom     -1.121256     -0.000844     -0.000657      0.033463
   32 Atom     -1.120110      0.002923      0.003350     -0.030297
   33 Atom     -1.124063     -0.000340     -0.000179     -0.028678
   34 Atom     -1.121728     -0.004684     -0.000005     -0.028000
   35 Atom     -1.122108     -0.011961     -0.024203      0.007730
   36 Atom     -1.121231      0.004748     -0.010210      0.028221
   37 Atom     -1.120980      0.013328     -0.021173     -0.015061
   38 Atom     -1.125329      0.002942      0.025915     -0.017221
   39 Atom     -1.126560      0.004388      0.007771      0.031019
   40 Atom     -1.126441     -0.015337      0.011866     -0.021563
   41 Atom     -1.126920     -0.019927      0.000831      0.024451
   42 Atom     -1.122355      0.001002     -0.002819     -0.031221
   43 Atom     -1.125709     -0.018879      0.018894      0.015641
   44 Atom     -1.128818     -0.016147     -0.025763      0.008414
   45 Atom     -1.123688      0.028668      0.001790      0.012295
   46 Atom     -0.995532     -0.007460     -0.021204     -0.009733
 -----------------------------------------------------------------
 -----------------------------------------------------
    Center         ---- Electric Field Gradient ----
                     XX            YY            ZZ
 -----------------------------------------------------
    1 Atom     -493.275961   -493.182985   -493.939091
    2 Atom    -1217.230423  -1214.589584  -1217.648680
    3 Atom     -493.105890   -493.179268   -493.423549
    4 Atom     -493.166377   -493.276821   -493.842799
    5 Atom     -492.734635   -492.777384   -492.759158
    6 Atom     -492.609265   -492.578974   -492.586214
    7 Atom     -492.704565   -492.720833   -492.725604
    8 Atom     -492.585055   -492.631663   -492.609662
    9 Atom     -492.662473   -492.618736   -492.634947
   10 Atom     -492.767909   -492.794452   -492.768136
   11 Atom     -492.814544   -492.782335   -492.781501
   12 Atom     -492.909355   -492.923686   -492.921679
   13 Atom     -492.914083   -492.922468   -492.959573
   14 Atom     -492.713172   -492.679584   -492.694691
   15 Atom     -492.635783   -492.635453   -492.596650
   16 Atom     -492.652909   -492.604574   -492.579662
   17 Atom     -492.639936   -492.675857   -492.585709
   18 Atom     -492.805600   -492.757767   -492.718155
   19 Atom     -492.533043   -492.533388   -492.594635
   20 Atom    -1214.173856  -1215.324571  -1214.264001
   21 Atom       -1.698874     -1.965487     -1.591180
   22 Atom       -1.625580     -1.630361     -2.002264
   23 Atom       -1.621316     -1.621775     -2.023868
   24 Atom       -1.706420     -1.979127     -1.632814
   25 Atom       -1.602977     -1.625265     -1.992501
   26 Atom       -1.768410     -1.790121     -1.670271
   27 Atom       -1.739380     -1.892329     -1.653488
   28 Atom       -1.609275     -1.608491     -2.005956
   29 Atom       -1.624066     -1.620949     -2.042060
   30 Atom       -1.746028     -1.909237     -1.657096
   31 Atom       -1.648692     -1.646912     -2.069276
   32 Atom       -1.637081     -1.642801     -2.033458
   33 Atom       -1.639811     -1.635452     -2.033871
   34 Atom       -1.635458     -1.625511     -2.030815
   35 Atom       -1.687684     -1.937119     -1.661884
   36 Atom       -1.637101     -1.659518     -2.010248
   37 Atom       -1.712974     -1.840092     -1.766759
   38 Atom       -1.633231     -1.944246     -1.747874
   39 Atom       -1.642648     -1.652340     -2.031963
   40 Atom       -1.727561     -1.692723     -1.892700
   41 Atom       -1.754796     -1.621532     -1.899917
   42 Atom       -1.679420     -1.697156     -2.065473
   43 Atom       -1.735794     -1.819173     -1.708878
   44 Atom       -1.649675     -1.965151     -1.642396
   45 Atom       -2.015741     -1.619561     -1.677057
   46 Atom       -1.441790     -1.799916     -1.628573
 -----------------------------------------------------
 -----------------------------------------------------
    Center         ---- Electric Field Gradient ----
                     XY            XZ            YZ
 -----------------------------------------------------
    1 Atom       -0.008294      0.096712     -0.053815
    2 Atom       -0.193839      0.090178     -0.232593
    3 Atom       -0.005554     -0.012176     -0.011399
    4 Atom        0.001913     -0.031409      0.030212
    5 Atom       -0.022195     -0.009914     -0.007755
    6 Atom        0.030890     -0.001458     -0.027087
    7 Atom       -0.005059     -0.029318      0.003331
    8 Atom        0.028067     -0.018787     -0.009595
    9 Atom       -0.006553     -0.022990      0.017276
   10 Atom        0.002668      0.007812     -0.002775
   11 Atom       -0.008194     -0.015597     -0.009204
   12 Atom        0.014780     -0.007746      0.003637
   13 Atom        0.001888      0.002275      0.003606
   14 Atom       -0.010121     -0.008473     -0.013601
   15 Atom       -0.018360     -0.002263      0.017587
   16 Atom       -0.006255      0.001982     -0.013351
   17 Atom       -0.016810     -0.017730     -0.021694
   18 Atom       -0.166321      0.155397      0.142235
   19 Atom        0.009256     -0.009457      0.008120
   20 Atom       -1.394564      0.647299     -0.553638
   21 Atom       -0.177980      0.003919      0.008123
   22 Atom       -0.009336      0.053813      0.069349
   23 Atom       -0.002890      0.039739      0.055935
   24 Atom       -0.161731      0.023041      0.050378
   25 Atom       -0.012471      0.040108      0.102137
   26 Atom        0.178627      0.109294     -0.117498
   27 Atom       -0.177040      0.068391      0.106134
   28 Atom        0.006923      0.046103     -0.041135
   29 Atom       -0.002424      0.033641      0.010811
   30 Atom        0.182531      0.061415     -0.096855
   31 Atom       -0.002628     -0.011680      0.006895
   32 Atom       -0.004128      0.033444      0.051859
   33 Atom       -0.000202     -0.008171     -0.015563
   34 Atom        0.005475     -0.060596      0.021488
   35 Atom       -0.141504      0.050769      0.114063
   36 Atom        0.013364     -0.057745      0.113048
   37 Atom        0.128764      0.106217     -0.172125
   38 Atom       -0.040343      0.023800      0.196463
   39 Atom       -0.017283     -0.069848     -0.098136
   40 Atom        0.080818     -0.167177      0.130945
   41 Atom        0.038801      0.202287     -0.055559
   42 Atom       -0.015031     -0.020605     -0.081376
   43 Atom        0.172264      0.113167     -0.143214
   44 Atom       -0.137776      0.043460      0.109730
   45 Atom       -0.030626     -0.144744     -0.009963
   46 Atom       -0.101464     -0.040008     -0.271813
 -----------------------------------------------------
 -----------------------------------------------------
    Center         ---- Electric Field Gradient ----
                   ----       Eigenvalues       ----
 -----------------------------------------------------
    1 Atom     -493.956419   -493.265054   -493.176564
    2 Atom    -1217.679273  -1217.232399  -1214.557015
    3 Atom     -493.424564   -493.179073   -493.105069
    4 Atom     -493.845864   -493.275213   -493.164920
    5 Atom     -492.790737   -492.756362   -492.724077
    6 Atom     -492.632919   -492.596313   -492.545220
    7 Atom     -492.746234   -492.721799   -492.682969
    8 Atom     -492.644856   -492.619064   -492.562459
    9 Atom     -492.675662   -492.638558   -492.601937
   10 Atom     -492.795217   -492.775071   -492.760210
   11 Atom     -492.823720   -492.783056   -492.771605
   12 Atom     -492.936566   -492.919077   -492.899077
   13 Atom     -492.960015   -492.922629   -492.913480
   14 Atom     -492.721701   -492.694693   -492.671054
   15 Atom     -492.656113   -492.623685   -492.588088
   16 Atom     -492.653706   -492.609816   -492.573623
   17 Atom     -492.689450   -492.634439   -492.577613
   18 Atom     -493.074269   -492.614784   -492.592470
   19 Atom     -492.597455   -492.539671   -492.523940
   20 Atom    -1216.263490  -1214.735909  -1212.763028
   21 Atom       -2.054724     -1.609814     -1.591004
   22 Atom       -2.022293     -1.618334     -1.617578
   23 Atom       -2.035324     -1.618829     -1.612806
   24 Atom       -2.061473     -1.631254     -1.625635
   25 Atom       -2.023185     -1.600770     -1.596788
   26 Atom       -2.029837     -1.600669     -1.598296
   27 Atom       -2.049008     -1.623124     -1.613065
   28 Atom       -2.015507     -1.606290     -1.601924
   29 Atom       -2.045034     -1.622615     -1.619427
   30 Atom       -2.060200     -1.628036     -1.624124
   31 Atom       -2.069710     -1.650509     -1.644661
   32 Atom       -2.043022     -1.636064     -1.634253
   33 Atom       -2.034647     -1.639645     -1.634842
   34 Atom       -2.041065     -1.627809     -1.622910
   35 Atom       -2.042027     -1.623916     -1.620743
   36 Atom       -2.051967     -1.631109     -1.623791
   37 Atom       -2.059753     -1.632986     -1.627086
   38 Atom       -2.070705     -1.628638     -1.626008
   39 Atom       -2.068004     -1.630516     -1.628433
   40 Atom       -2.060898     -1.628451     -1.623634
   41 Atom       -2.052909     -1.612484     -1.610851
   42 Atom       -2.083990     -1.689506     -1.668553
   43 Atom       -2.051860     -1.611748     -1.600237
   44 Atom       -2.050934     -1.608706     -1.597582
   45 Atom       -2.071463     -1.623866     -1.617030
   46 Atom       -2.018573     -1.453343     -1.398363
 -----------------------------------------------------
 -----------------------------------------------------
    Center         ---- Electric Field Gradient ----
                       ( tensor representation )
                   3XX-RR        3YY-RR        3ZZ-RR
 -----------------------------------------------------
    1 Atom        0.190051      0.283027     -0.473079
    2 Atom       -0.740861      1.899979     -1.159118
    3 Atom        0.130346      0.056968     -0.187313
    4 Atom        0.262288      0.151845     -0.414133
    5 Atom        0.022424     -0.020325     -0.002099
    6 Atom       -0.017780      0.012510      0.005270
    7 Atom        0.012436     -0.003832     -0.008604
    8 Atom        0.023739     -0.022870     -0.000869
    9 Atom       -0.023754      0.019983      0.003771
   10 Atom        0.008923     -0.017619      0.008696
   11 Atom       -0.021751      0.010459      0.011292
   12 Atom        0.008885     -0.005446     -0.003439
   13 Atom        0.017958      0.009573     -0.027531
   14 Atom       -0.017356      0.016232      0.001125
   15 Atom       -0.013154     -0.012825      0.025979
   16 Atom       -0.040527      0.007808      0.032719
   17 Atom       -0.006102     -0.042023      0.048125
   18 Atom       -0.045093      0.002740      0.042353
   19 Atom        0.020645      0.020301     -0.040946
   20 Atom        0.413620     -0.737095      0.323475
   21 Atom        0.052974     -0.213640      0.160667
   22 Atom        0.127155      0.122374     -0.249529
   23 Atom        0.134337      0.133878     -0.268215
   24 Atom        0.066367     -0.206340      0.139973
   25 Atom        0.137270      0.114983     -0.252253
   26 Atom       -0.025476     -0.047187      0.072663
   27 Atom        0.022352     -0.130596      0.108244
   28 Atom        0.131966      0.132749     -0.264715
   29 Atom        0.138292      0.141409     -0.279702
   30 Atom        0.024759     -0.138450      0.113691
   31 Atom        0.139602      0.141381     -0.280983
   32 Atom        0.134032      0.128312     -0.262345
   33 Atom        0.129900      0.134260     -0.264160
   34 Atom        0.128470      0.138417     -0.266887
   35 Atom        0.074545     -0.174891      0.100345
   36 Atom        0.131855      0.109437     -0.241292
   37 Atom        0.060301     -0.066817      0.006516
   38 Atom        0.141886     -0.169129      0.027243
   39 Atom        0.133002      0.123310     -0.256312
   40 Atom        0.043434      0.078272     -0.121705
   41 Atom        0.003953      0.137216     -0.141169
   42 Atom        0.134597      0.116860     -0.251457
   43 Atom        0.018821     -0.064558      0.045737
   44 Atom        0.102733     -0.212744      0.110011
   45 Atom       -0.244955      0.151225      0.093729
   46 Atom        0.181636     -0.176490     -0.005147
 -----------------------------------------------------
 -----------------------------------------------------
    Center         ---- Electric Field Gradient ----
                       ( tensor representation )
                   ----       Eigenvalues       ----
 -----------------------------------------------------
    1 Atom       -0.490407      0.200958      0.289449
    2 Atom       -1.189711     -0.742837      1.932547
    3 Atom       -0.188328      0.057162      0.131166
    4 Atom       -0.417198      0.153452      0.263746
    5 Atom       -0.033678      0.000696      0.032982
    6 Atom       -0.041435     -0.004829      0.046264
    7 Atom       -0.029233     -0.004799      0.034032
    8 Atom       -0.036063     -0.010271      0.046334
    9 Atom       -0.036943      0.000161      0.036782
   10 Atom       -0.018384      0.001762      0.016622
   11 Atom       -0.030927      0.009738      0.021189
   12 Atom       -0.018326     -0.000838      0.019163
   13 Atom       -0.027973      0.009412      0.018561
   14 Atom       -0.025885      0.001123      0.024762
   15 Atom       -0.033485     -0.001056      0.034541
   16 Atom       -0.041325      0.002566      0.038759
   17 Atom       -0.055616     -0.000605      0.056221
   18 Atom       -0.313761      0.145724      0.168038
   19 Atom       -0.043767      0.014018      0.029749
   20 Atom       -1.676015     -0.148433      1.824448
   21 Atom       -0.302877      0.142034      0.160843
   22 Atom       -0.269558      0.134401      0.135157
   23 Atom       -0.279671      0.136824      0.142847
   24 Atom       -0.288685      0.141533      0.147152
   25 Atom       -0.282937      0.139478      0.143459
   26 Atom       -0.286903      0.142265      0.144638
   27 Atom       -0.287276      0.138608      0.148668
   28 Atom       -0.274267      0.134950      0.139316
   29 Atom       -0.282676      0.139744      0.142932
   30 Atom       -0.289413      0.142750      0.146663
   31 Atom       -0.281417      0.137784      0.143633
   32 Atom       -0.271909      0.135049      0.136860
   33 Atom       -0.264936      0.130066      0.134869
   34 Atom       -0.277137      0.136119      0.141018
   35 Atom       -0.279799      0.138313      0.141486
   36 Atom       -0.283011      0.137847      0.145165
   37 Atom       -0.286478      0.140289      0.146189
   38 Atom       -0.295588      0.146479      0.149109
   39 Atom       -0.292353      0.145135      0.147218
   40 Atom       -0.289904      0.142544      0.147360
   41 Atom       -0.294161      0.146264      0.147897
   42 Atom       -0.269974      0.124510      0.145463
   43 Atom       -0.297245      0.142867      0.154378
   44 Atom       -0.298527      0.143702      0.154825
   45 Atom       -0.300677      0.146920      0.153756
   46 Atom       -0.395147      0.170083      0.225063
 -----------------------------------------------------
 Unable to Open any file for archive entry.
 1\1\GINC-EXP-2-54\SP\RwB97XD\6-31G(d)\C18H26O2\HKLEM\12-Aug-2024\0\\# 
 wb97xd 6-31G(d) prop=efg\\19nt_mm_min_distance_cutoff5_ligand_conf_1\\
 0,1\C,0,2.6756,-1.1325,1.2488\O,0,3.7354,-1.4883,1.8087\C,0,2.1658,0.1
 982,1.3946\C,0,0.9086,0.524,0.9982\C,0,0.0525,-0.4422,0.2143\C,0,0.920
 6,-1.4774,-0.5047\C,0,1.8811,-2.1431,0.4705\C,0,0.2984,1.8034,1.4765\C
 ,0,-0.6872,2.4268,0.4916\C,0,-1.7004,1.3732,0.0583\C,0,-0.968,0.2532,-
 0.7107\C,0,-2.8436,1.9134,-0.7839\C,0,-3.8535,0.8067,-1.1548\C,0,-3.13
 93,-0.2074,-2.0472\C,0,-1.9088,-0.7936,-1.3422\C,0,-3.719,3.0247,-0.20
 05\C,0,-5.0032,2.9748,-1.0591\C,0,-4.938,1.6477,-1.8563\C,0,-4.441,0.1
 044,0.081\O,0,-6.2217,1.0239,-1.9574\H,0,2.7694,0.8935,1.9701\H,0,-0.5
 506,-0.9496,0.9885\H,0,1.4847,-0.9888,-1.3124\H,0,0.302,-2.2478,-0.974
 2\H,0,1.3111,-2.7353,1.2002\H,0,2.5698,-2.8386,-0.0213\H,0,1.0842,2.50
 67,1.7708\H,0,-0.2383,1.5379,2.4036\H,0,-0.1544,2.823,-0.3832\H,0,-1.1
 852,3.2739,0.9728\H,0,-2.1239,0.9549,0.9781\H,0,-0.4171,0.7433,-1.5305
 \H,0,-2.4169,2.2859,-1.7347\H,0,-2.8286,0.2887,-2.9807\H,0,-3.8127,-1.
 0333,-2.3225\H,0,-2.247,-1.4908,-0.5649\H,0,-1.3484,-1.3879,-2.0724\H,
 0,-3.2386,4.0052,-0.2158\H,0,-3.9411,2.8117,0.8483\H,0,-5.069,3.8272,-
 1.7429\H,0,-5.8999,2.9993,-0.4364\H,0,-4.5957,1.8588,-2.8809\H,0,-5.07
 31,0.7673,0.6754\H,0,-5.053,-0.7459,-0.2248\H,0,-3.6727,-0.2931,0.7436
 \H,0,-6.2672,0.5976,-2.8437\\Version=ES64L-G16RevC.01\State=1-A\HF=-85
 1.7884925\RMSD=5.122e-09\Dipole=-1.3767405,0.5863554,-1.1056849\Quadru
 pole=-20.2594877,9.4222815,10.8372062,9.5409913,-6.3311053,5.0029031\P
 G=C01 [X(C18H26O2)]\\@
 The archive entry for this job was punched.


 A DANDELION FROM A LOVER MEANS MORE THAN AN ORCHID FROM A FRIEND.
 Job cpu time:       0 days  0 hours 10 minutes 24.1 seconds.
 Elapsed time:       0 days  0 hours  0 minutes 27.5 seconds.
 File lengths (MBytes):  RWF=     71 Int=      0 D2E=      0 Chk=      8 Scr=      1
 Normal termination of Gaussian 16 at Mon Aug 12 07:11:23 2024.
