 Entering Gaussian System, Link 0=g16
 Input=cutoff7_wat_elecfield.com
 Output=cutoff7_wat_elecfield.log
 Initial command:
 /usr/local/packages/license/gaussian/g16-c01/g16/l1.exe "/work/arkanil/gauss_scratch/Gau-665170.inp" -scrdir="/work/arkanil/gauss_scratch/"
 Entering Link 1 = /usr/local/packages/license/gaussian/g16-c01/g16/l1.exe PID=    665178.
  
 Copyright (c) 1988-2019, Gaussian, Inc.  All Rights Reserved.
  
 This is part of the Gaussian(R) 16 program.  It is based on
 the Gaussian(R) 09 system (copyright 2009, Gaussian, Inc.),
 the Gaussian(R) 03 system (copyright 2003, Gaussian, Inc.),
 the Gaussian(R) 98 system (copyright 1998, Gaussian, Inc.),
 the Gaussian(R) 94 system (copyright 1995, Gaussian, Inc.),
 the Gaussian 92(TM) system (copyright 1992, Gaussian, Inc.),
 the Gaussian 90(TM) system (copyright 1990, Gaussian, Inc.),
 the Gaussian 88(TM) system (copyright 1988, Gaussian, Inc.),
 the Gaussian 86(TM) system (copyright 1986, Carnegie Mellon
 University), and the Gaussian 82(TM) system (copyright 1983,
 Carnegie Mellon University). Gaussian is a federally registered
 trademark of Gaussian, Inc.
  
 This software contains proprietary and confidential information,
 including trade secrets, belonging to Gaussian, Inc.
  
 This software is provided under written license and may be
 used, copied, transmitted, or stored only in accord with that
 written license.
  
 The following legend is applicable only to US Government
 contracts under FAR:
  
                    RESTRICTED RIGHTS LEGEND
  
 Use, reproduction and disclosure by the US Government is
 subject to restrictions as set forth in subparagraphs (a)
 and (c) of the Commercial Computer Software - Restricted
 Rights clause in FAR 52.227-19.
  
 Gaussian, Inc.
 340 Quinnipiac St., Bldg. 40, Wallingford CT 06492
  
  
 ---------------------------------------------------------------
 Warning -- This program may not be used in any manner that
 competes with the business of Gaussian, Inc. or will provide
 assistance to any competitor of Gaussian, Inc.  The licensee
 of this program is prohibited from giving any competitor of
 Gaussian, Inc. access to this program.  By using this program,
 the user acknowledges that Gaussian, Inc. is engaged in the
 business of creating and licensing software in the field of
 computational chemistry and represents and warrants to the
 licensee that it is not a competitor of Gaussian, Inc. and that
 it will not use this program in any manner prohibited above.
 ---------------------------------------------------------------
  

 Cite this work as:
 Gaussian 16, Revision C.01,
 M. J. Frisch, G. W. Trucks, H. B. Schlegel, G. E. Scuseria, 
 M. A. Robb, J. R. Cheeseman, G. Scalmani, V. Barone, 
 G. A. Petersson, H. Nakatsuji, X. Li, M. Caricato, A. V. Marenich, 
 J. Bloino, B. G. Janesko, R. Gomperts, B. Mennucci, H. P. Hratchian, 
 J. V. Ortiz, A. F. Izmaylov, J. L. Sonnenberg, D. Williams-Young, 
 F. Ding, F. Lipparini, F. Egidi, J. Goings, B. Peng, A. Petrone, 
 T. Henderson, D. Ranasinghe, V. G. Zakrzewski, J. Gao, N. Rega, 
 G. Zheng, W. Liang, M. Hada, M. Ehara, K. Toyota, R. Fukuda, 
 J. Hasegawa, M. Ishida, T. Nakajima, Y. Honda, O. Kitao, H. Nakai, 
 T. Vreven, K. Throssell, J. A. Montgomery, Jr., J. E. Peralta, 
 F. Ogliaro, M. J. Bearpark, J. J. Heyd, E. N. Brothers, K. N. Kudin, 
 V. N. Staroverov, T. A. Keith, R. Kobayashi, J. Normand, 
 K. Raghavachari, A. P. Rendell, J. C. Burant, S. S. Iyengar, 
 J. Tomasi, M. Cossi, J. M. Millam, M. Klene, C. Adamo, R. Cammi, 
 J. W. Ochterski, R. L. Martin, K. Morokuma, O. Farkas, 
 J. B. Foresman, and D. J. Fox, Gaussian, Inc., Wallingford CT, 2019.
 
 ******************************************
 Gaussian 16:  ES64L-G16RevC.01  3-Jul-2019
                19-May-2026 
 ******************************************
 %chk=19NT_md_min_distance_cutoff6.chk
 %nprocshared=64
 Will use up to   64 processors via shared memory.
 %mem=200GB
 --------------------------
 # wb97xd/6-31g(d) prop=efg
 --------------------------
 1/38=1,172=1/1;
 2/12=2,17=6,18=5,40=1/2;
 3/5=1,6=6,7=1,11=2,25=1,30=1,74=-58/1,2,3;
 4//1;
 5/5=2,38=5/2;
 6/7=2,8=2,9=2,10=2,14=1,28=1/1,2;
 99/5=1,9=1/99;
 ----------------------------
 19NT_md_min_distance_cutoff6
 ----------------------------
 Symbolic Z-matrix:
 Charge = -1 Multiplicity = 1
 H                     46.86806   33.67842   30.92331 
 C                     46.354    34.588    30.601 
 H                     45.84559   34.37511   29.66038 
 C                     45.33635   35.00584   31.66769 
 H                     44.66448   34.16014   31.83689 
 H                     45.83864   35.2111   32.61605 
 C                     44.5181   36.1971   31.24969 
 C                     43.45023   36.03394   30.3743 
 H                     43.23085   35.05209   29.98026 
 C                     42.6473   37.09837   30.02026 
 H                     41.80485   36.96136   29.35927 
 C                     42.89258   38.36165   30.55093 
 O                     42.07025   39.38236   30.20778 
 H                     42.21471   40.17961   30.81082 
 C                     43.97578   38.54358   31.403 
 H                     44.16912   39.52181   31.81888 
 C                     44.77894   37.46948   31.73877 
 H                     45.61063   37.62921   32.40914 
 C                     47.44182   35.62769   30.27838 
 O                     47.79677   35.82568   29.12846 
 N                     48.01162   36.26419   31.32217 
 H                     47.65469   36.10838   32.25056 
 C                     49.06     37.273    31.205 
 H                     48.60794   38.27105   31.191 
 C                     50.08423   37.1801   32.33717 
 H                     50.54802   36.1874   32.29439 
 C                     51.17227   38.22749   32.10253 
 H                     51.92095   38.17894   32.88907 
 H                     50.74669   39.22706   32.09301 
 H                     51.66713   38.05621   31.14889 
 C                     49.45595   37.3312   33.73282 
 H                     48.85168   36.44979   33.96258 
 H                     50.26825   37.34629   34.46269 
 C                     48.60009   38.57687   33.93052 
 H                     48.22576   38.59513   34.95028 
 H                     47.74182   38.58543   33.26394 
 H                     49.17037   39.48559   33.7639 
 H                     49.54188   37.10369   30.23892 
 H                     48.15967   38.16795   26.53544 
 C                     48.063    39.251    26.62 
 H                     47.30654   39.60422   25.92042 
 C                     47.64707   39.60855   28.05777 
 H                     48.4788   39.36602   28.72811 
 C                     47.33751   41.09781   28.18093 
 H                     48.15969   41.69965   27.80202 
 H                     46.4434   41.34003   27.61137 
 H                     47.16303   41.36284   29.22084 
 C                     46.43786   38.77337   28.46961 
 H                     46.12235   39.03186   29.47777 
 H                     46.6821   37.71504   28.45141 
 H                     45.60276   38.94815   27.79516 
 C                     49.38858   39.91381   26.23754 
 O                     49.43175   40.88267   25.48652 
 N                     50.50651   39.39459   26.7851 
 H                     50.43181   38.55339   27.3359 
 C                     51.864    39.888    26.503 
 H                     51.82925   40.98011   26.58221 
 C                     52.91397   39.31795   27.43808 
 H                     52.70655   39.57686   28.4761 
 H                     52.98748   38.23669   27.32375 
 C                     54.22489   39.98153   26.9664 
 O                     54.53111   41.08434   27.439 
 O                     54.82851   39.39161   26.03638 
 H                     52.11867   39.62732   25.46756 
 H                     43.26212   34.35743   24.5177 
 C                     42.526    34.831    25.164 
 H                     42.73294   34.53709   26.19084 
 C                     42.58176   36.3499   25.03049 
 H                     42.38143   36.61409   23.98479 
 C                     41.50772   36.98946   25.90687 
 H                     41.72561   36.80807   26.95665 
 H                     40.53179   36.56496   25.68149 
 H                     41.4519   38.06216   25.74522 
 C                     43.98469   36.8453   25.39491 
 H                     44.15818   36.68325   26.46091 
 H                     44.71809   36.2479   24.84782 
 C                     44.20765   38.31474   25.06542 
 H                     45.24425   38.58484   25.24882 
 H                     43.9828   38.50896   24.01801 
 H                     43.57132   38.94605   25.67779 
 H                     41.54136   34.45607   24.89269 
 H                     37.75823   33.21663   27.91142 
 C                     36.813    32.932    28.368 
 H                     36.97587   32.80578   29.43609 
 C                     35.75649   34.00893   28.12017 
 H                     35.59786   34.11928   27.04461 
 H                     34.81186   33.70579   28.57496 
 C                     36.22051   35.30955   28.70913 
 C                     37.17918   36.06655   28.05071 
 H                     37.54045   35.74604   27.08299 
 C                     37.6819   37.22248   28.61218 
 H                     38.43449   37.7947   28.09122 
 C                     37.22657   37.65094   29.85458 
 O                     37.69226   38.78029   30.43812 
 H                     38.35331   39.19644   29.85845 
 C                     36.26173   36.90016   30.52028 
 H                     35.90968   37.23604   31.48304 
 C                     35.77183   35.74275   29.94921 
 H                     35.02578   35.16672   30.47768 
 H                     36.49868   31.97748   27.94979 
 H                     33.42382   40.95861   32.02876 
 C                     34.276    41.437    31.542 
 H                     35.1837   41.03932   31.99606 
 C                     34.24432   41.17856   30.03631 
 H                     33.46666   41.82005   29.60899 
 C                     35.57838   41.55464   29.3968 
 H                     35.52918   41.44337   28.31465 
 H                     35.82272   42.58868   29.62291 
 H                     36.37093   40.91169   29.77458 
 C                     33.90701   39.71836   29.74462 
 H                     32.9425   39.45078   30.17061 
 H                     33.86711   39.54111   28.67104 
 H                     34.6644   39.06206   30.16757 
 C                     34.17982   42.94544   31.86289 
 O                     33.9136   43.78001   31.01132 
 N                     34.3795   43.26941   33.15425 
 H                     34.65516   42.55236   33.81846 
 C                     34.188    44.613    33.699 
 H                     33.516    45.14629   33.01711 
 C                     33.6083   44.54433   35.10998 
 H                     34.28777   43.9687   35.74098 
 H                     33.5583   45.55818   35.51428 
 C                     32.23171   43.90185   35.15762 
 H                     32.25178   42.92285   34.67294 
 H                     31.48075   44.51682   34.66024 
 C                     31.7397   43.63651   36.63399 
 O                     32.63785   43.57588   37.49353 
 O                     30.52769   43.49708   36.77532 
 C                     35.56518   45.32764   33.72498 
 O                     36.35772   45.13628   34.63752 
 N                     35.83394   46.15012   32.69099 
 H                     35.19546   46.17599   31.9084 
 C                     37.164    46.712    32.465 
 H                     37.66216   46.69198   33.43611 
 C                     37.93281   45.82198   31.4752 
 H                     37.36645   45.73002   30.546 
 H                     38.04103   44.82323   31.90593 
 C                     39.35507   46.33959   31.12606 
 O                     39.85213   47.22896   31.83831 
 O                     39.91179   45.79873   30.14747 
 C                     37.16789   48.13152   31.90148 
 O                     36.87993   48.34154   30.72173 
 N                     37.58848   49.12509   32.69028 
 C                     37.6455   50.48389   32.17107 
 H                     38.57382   50.61429   31.60248 
 H                     36.79463   50.66448   31.51253 
 C                     37.6449   51.35188   33.42064 
 H                     38.0838   52.33223   33.24752 
 H                     36.62495   51.46688   33.78608 
 C                     38.44773   50.50082   34.39907 
 H                     38.28735   50.77576   35.43973 
 H                     39.51341   50.57717   34.18258 
 C                     37.95     49.082    34.098 
 H                     38.7253   48.33653   34.28883 
 C                     36.69199   48.78704   34.96383 
 O                     35.60136   49.22916   34.65324 
 N                     36.92644   48.07547   36.07625 
 H                     37.85513   47.7065   36.24912 
 C                     35.909    47.832    37.091 
 H                     34.94485   47.74661   36.58276 
 C                     36.18819   46.58254   37.92286 
 H                     37.22511   46.60068   38.27037 
 H                     36.04147   45.69598   37.30716 
 C                     35.25222   46.58248   39.10058 
 C                     34.13871   45.75664   39.1428 
 H                     33.94243   45.05394   38.34773 
 C                     33.24742   45.8343   40.19947 
 H                     32.3808   45.1923   40.20361 
 C                     33.45348   46.73971   41.22488 
 H                     32.75124   46.80754   42.04505 
 C                     34.56314   47.56952   41.18977 
 H                     34.72661   48.29072   41.98108 
 C                     35.45556   47.48791   40.1365 
 H                     36.32047   48.13699   40.11659 
 H                     35.85846   48.70851   37.75168 
 H                     36.99158   43.96802   22.13772 
 C                     37.317    44.529    23.018 
 H                     37.07259   45.58106   22.87992 
 C                     36.60389   44.00077   24.27272 
 H                     36.83732   42.94515   24.42885 
 H                     35.52709   44.08749   24.11467 
 C                     37.0052   44.7992   25.48394 
 C                     36.48453   46.07386   25.66997 
 H                     35.77292   46.46695   24.9576 
 C                     36.85447   46.83042   26.7669 
 H                     36.4314   47.81163   26.91459 
 C                     37.75161   46.3166   27.68695 
 H                     38.03844   46.89466   28.54945 
 C                     38.27029   45.04486   27.51308 
 H                     38.94883   44.64946   28.25264 
 C                     37.9051   44.29109   26.41077 
 H                     38.30702   43.29399   26.281 
 C                     38.83735   44.40325   23.14142 
 O                     39.56378   45.39446   23.1621 
 N                     39.34066   43.16009   23.19168 
 H                     38.69414   42.38728   23.21386 
 C                     40.763    42.802    23.272 
 H                     41.22314   43.37279   24.08459 
 C                     40.91509   41.30141   23.49574 
 H                     40.27456   40.76533   22.79115 
 H                     41.94953   41.027    23.28034 
 C                     40.58739   40.90901   24.91012 
 C                     39.29705   40.58267   25.30775 
 H                     38.49023   40.58253   24.58756 
 C                     39.01964   40.22556   26.61282 
 H                     38.01277   39.9885   26.91818 
 C                     40.0515   40.14576   27.54564 
 O                     39.77147   39.73226   28.80004 
 H                     40.59695   39.61067   29.31865 
 C                     41.34576   40.47221   27.15539 
 H                     42.14836   40.38413   27.86979 
 C                     41.59929   40.87476   25.86013 
 H                     42.6048   41.14507   25.57277 
 H                     41.24005   43.09938   22.32966 
 H                     40.47608   46.27383   20.31491 
 C                     40.928    47.267    20.313 
 H                     41.24939   47.50006   19.2998 
 C                     39.93308   48.30445   20.86036 
 H                     39.95156   49.19976   20.24021 
 H                     40.24083   48.61369   21.8609 
 C                     38.49306   47.77564   20.9422 
 H                     37.96887   47.92896   19.99985 
 H                     38.49804   46.71272   21.18109 
 C                     37.77939   48.53421   22.05596 
 O                     37.15664   49.56109   21.86317 
 N                     37.94378   47.97974   23.26689 
 H                     38.57135   47.20017   23.39622 
 H                     37.65814   48.47838   24.09926 
 C                     42.18718   47.1952   21.19707 
 O                     43.31681   47.35808   20.72043 
 N                     42.01641   46.93266   22.49748 
 H                     41.08461   46.72499   22.84068 
 C                     43.019    47.115    23.555 
 H                     42.72467   46.47926   24.39491 
 H                     43.0063   48.15699   23.88662 
 C                     44.4473   46.75618   23.14961 
 O                     45.36574   47.56308   23.27679 
 N                     44.67043   45.49855   22.72724 
 H                     43.87734   44.87944   22.65521 
 C                     45.983    44.912    22.455 
 H                     46.72138   45.46219   23.04597 
 C                     45.95716   43.425    22.81739 
 H                     45.20669   42.94081   22.18527 
 H                     46.92442   42.98639   22.56791 
 C                     45.64057   43.13831   24.29036 
 H                     44.7523   43.70665   24.58602 
 C                     45.35047   41.64923   24.45613 
 H                     45.10882   41.42554   25.49145 
 H                     44.51571   41.33666   23.83225 
 H                     46.22431   41.06563   24.17576 
 C                     46.80048   43.53925   25.19395 
 H                     47.67972   42.93529   24.98252 
 H                     47.04622   44.58779   25.06471 
 H                     46.53125   43.38654   26.23445 
 C                     46.39257   45.04046   20.96843 
 O                     47.4376   44.50428   20.60071 
 N                     45.59212   45.69821   20.12418 
 H                     44.79389   46.23226   20.46553 
 C                     45.882    45.789    18.692 
 H                     45.80507   44.80168   18.23121 
 H                     45.17074   46.48109   18.24835 
 C                     47.33541   46.29308   18.44059 
 O                     48.15621   45.56037   17.87909 
 N                     47.6216   47.53583   18.82404 
 H                     47.03378   48.01725   19.51449 
 C                     48.878    48.229    18.53 
 H                     48.63401   49.20627   18.11676 
 H                     49.43315   47.65111   17.79576 
 H                     49.45119   48.36538   19.44409 
 H                     53.6824   46.17979   21.49492 
 C                     53.245    47.177    21.576 
 H                     54.05582   47.9053   21.59591 
 C                     52.36483   47.46522   20.36007 
 H                     51.78976   48.37296   20.55092 
 H                     53.03164   47.6732   19.51887 
 C                     51.4054   46.34849   19.94411 
 H                     50.93286   46.66518   19.01628 
 H                     50.62877   46.23345   20.69747 
 C                     52.08359   45.00123   19.68121 
 H                     52.23379   44.46077   20.61567 
 H                     53.06025   45.1628   19.2229 
 C                     51.2579   44.13244   18.73362 
 H                     51.72894   43.15182   18.64339 
 H                     51.2171   44.5873   17.7421 
 N                     49.88074   43.96795   19.24347 
 H                     49.22092   44.67406   18.83024 
 H                     49.87021   44.07764   20.32366 
 H                     49.48607   43.05818   19.01407 
 C                     52.58824   47.29384   22.9726 
 O                     52.9633   48.16709   23.7328 
 N                     51.64264   46.38813   23.32823 
 H                     51.39721   45.63308   22.70276 
 C                     51.26     46.169    24.731 
 H                     51.55755   47.06646   25.2802 
 C                     49.77448   45.88469   24.93919 
 H                     49.5242   44.93887   24.44796 
 C                     49.52051   45.75686   26.4402 
 H                     50.1178   44.95898   26.87267 
 H                     49.77493   46.68475   26.94716 
 H                     48.4784   45.53012   26.63508 
 C                     48.9426   47.0097   24.32717 
 H                     49.23581   47.96744   24.74752 
 H                     49.08822   47.05903   23.25133 
 H                     47.88395   46.85964   24.52587 
 C                     52.14139   44.99071   25.21085 
 O                     52.33567   44.00796   24.47521 
 N                     52.73364   45.11102   26.3899 
 H                     52.56749   45.95618   26.93902 
 C                     53.485    44.06     27.077 
 H                     53.42785   43.13828   26.50134 
 C                     54.93953   44.47525   27.34177 
 H                     55.51668   43.55982   27.47841 
 H                     54.98134   45.03417   28.27832 
 C                     55.5531   45.36023   26.25328 
 H                     56.56944   45.61642   26.56215 
 H                     54.98454   46.28731   26.16797 
 C                     55.60247   44.7144   24.86482 
 H                     54.60022   44.58387   24.4674 
 H                     56.14659   45.37481   24.18209 
 N                     56.27732   43.43488   24.89393 
 H                     57.21705   43.46878   25.26207 
 C                     55.70832   42.21839   24.86189 
 N                     54.45496   42.04714   24.44041 
 H                     53.77006   42.79958   24.394 
 H                     54.0979   41.10758   24.518 
 N                     56.43376   41.14104   25.10556 
 H                     57.35859   41.26165   25.48387 
 H                     55.8642   40.27644   25.4624 
 C                     52.7613   43.88532   28.44472 
 O                     52.16495   44.84155   28.92556 
 N                     52.84007   42.68377   29.00248 
 H                     53.41816   41.97511   28.5356 
 C                     52.152    42.334    30.246 
 H                     52.02439   43.23693   30.84585 
 C                     50.7951   41.70366   29.95242 
 H                     50.28366   41.48576   30.88474 
 H                     50.90398   40.78058   29.38765 
 H                     50.18329   42.39047   29.37254 
 H                     52.78824   41.637    30.79337 
 H                     45.3868   38.43832   40.45133 
 C                     46.435    38.561    40.187 
 H                     47.04102   38.28349   41.04534 
 C                     46.79123   37.69328   38.98494 
 H                     46.6308   36.64114   39.22909 
 H                     47.84697   37.81823   38.73541 
 C                     45.94481   38.0502   37.774 
 H                     46.14042   39.07334   37.44548 
 H                     44.88382   37.9327   38.00011 
 S                     46.31493   36.93161   36.37478 
 C                     44.86442   37.29017   35.34735 
 H                     43.96081   37.13308   35.92829 
 H                     44.9171   38.30906   34.9731 
 H                     44.87358   36.58937   34.52032 
 H                     46.61376   39.61152   39.96652 
 H                     49.29529   42.78222   37.74359 
 C                     50.213    42.685    37.162 
 H                     51.00489   42.34489   37.83512 
 C                     50.02517   41.66767   36.0346 
 H                     50.95683   41.53203   35.47851 
 H                     49.78765   40.70434   36.49857 
 C                     48.91075   42.02325   35.08536 
 C                     49.15105   42.16124   33.72451 
 H                     50.16044   42.07725   33.34297 
 C                     48.10974   42.41617   32.84678 
 H                     48.30972   42.5028   31.78842 
 C                     46.81906   42.56055   33.32249 
 H                     46.00411   42.76909   32.64439 
 C                     46.57083   42.444    34.68011 
 H                     45.56447   42.56823   35.04886 
 C                     47.608    42.16569   35.5511 
 H                     47.40795   42.08694   36.60771 
 C                     50.56225   44.11333   36.73896 
 O                     50.19328   45.07587   37.37927 
 N                     51.36374   44.26175   35.65293 
 H                     51.59621   43.47329   35.06518 
 C                     51.54     45.542    34.998 
 H                     50.76658   46.2172   35.37989 
 C                     52.93127   46.16478   35.24582 
 H                     53.01662   46.40594   36.30622 
 H                     53.70038   45.43274   34.99334 
 C                     53.09485   47.41757   34.3897 
 H                     53.12806   47.12321   33.33934 
 H                     52.22553   48.06221   34.54357 
 C                     54.34055   48.25965   34.66366 
 H                     55.25898   47.68587   34.52402 
 H                     54.31477   48.66774   35.68019 
 N                     54.40566   49.34341   33.70679 
 H                     52.66735   49.69068   32.91147 
 C                     55.03656   50.56164   31.80698 
 N                     56.34519   46.82514   30.74544 
 H                     56.88044   46.8304   29.88352 
 H                     56.73321   47.53217   31.36433 
 N                     55.44387   51.78058   31.93833 
 H                     55.9644   52.13997   32.74123 
 H                     55.23444   52.46331   31.22009 
 C                     51.37352   45.29605   33.48544 
 O                     51.75521   44.25653   32.9769 
 N                     50.78963   46.29085   32.79581 
 H                     50.55689   47.14835   33.27531 
 C                     50.84     46.417    31.354 
 H                     51.32156   45.52485   30.94879 
 C                     49.44285   46.58071   30.72395 
 H                     49.59923   46.88105   29.68245 
 C                     48.7074   45.24704   30.75768 
 H                     48.59517   44.90705   31.78429 
 H                     49.26534   44.50022   30.19969 
 H                     47.72036   45.34641   30.31396 
 C                     48.64032   47.66617   31.43366 
 H                     48.36607   47.34858   32.43685 
 H                     47.72784   47.87231   30.88098 
 H                     49.21017   48.58931   31.49132 
 C                     51.6946   47.65936   31.01351 
 O                     51.7509   48.61234   31.78899 
 N                     52.33459   47.62165   29.84473 
 H                     52.2418   46.78953   29.2686 
 C                     53.236    48.657    29.347 
 H                     53.08787   49.54187   29.96973 
 C                     54.71095   48.20251   29.42234 
 H                     55.32537   49.07064   29.67149 
 H                     55.02684   47.81807   28.44823 
 C                     54.95012   47.11202   30.48414 
 H                     54.46598   46.18095   30.1687 
 H                     54.49656   47.42016   31.42659 
 C                     55.41376   49.58705   32.8412 
 O                     56.4762   48.97365   32.83218 
 O                     53.26971   50.14025   33.54956 
 C                     52.85101   48.89985   27.87389 
 O                     52.54862   47.94543   27.16939 
 N                     52.89812   50.1643   27.43594 
 H                     53.23082   50.91257   28.03179 
 C                     52.401    50.618    26.143 
 H                     52.97224   50.13451   25.33944 
 C                     50.92309   50.23793   25.96993 
 H                     50.86145   49.15073   26.02229 
 H                     50.58845   50.53719   24.97745 
 C                     50.00576   50.84028   27.02956 
 H                     50.31707   51.84265   27.31524 
 H                     48.98098   50.88407   26.6636 
 S                     49.97677   49.81975   28.56291 
 C                     50.49394   51.03423   29.80011 
 H                     51.39424   51.53605   29.46027 
 H                     49.69527   51.75496   29.95288 
 H                     50.69461   50.48961   30.71737 
 C                     52.63535   52.15846   26.05958 
 O                     53.38414   52.6987   26.86196 
 N                     52.00263   52.8156   25.07221 
 H                     51.34154   52.32346   24.47105 
 C                     52.113    54.245    24.763 
 H                     52.95851   54.63817   25.33711 
 C                     52.35457   54.41644   23.25256 
 H                     51.5239   53.92981   22.73295 
 C                     52.39366   55.89188   22.86246 
 H                     53.17848   56.41417   23.40753 
 H                     52.60161   55.98523   21.79945 
 H                     51.44273   56.3782   23.06407 
 C                     53.65662   53.72554   22.8547 
 H                     54.50223   54.17959   23.36804 
 H                     53.62404   52.66994   23.1093 
 H                     53.81464   53.8163   21.7831 
 C                     50.80606   54.97398   25.17209 
 O                     49.7157   54.46422   24.96219 
 N                     50.95161   56.20002   25.70575 
 H                     51.88534   56.5407   25.87558 
 C                     49.863    57.09     26.119 
 H                     48.93155   56.56774   25.89399 
 C                     49.91439   57.4123   27.62048 
 H                     50.38167   56.56732   28.12793 
 H                     50.51261   58.30791   27.79969 
 C                     48.53645   57.5814   28.17189 
 C                     47.87218   58.73434   28.46998 
 H                     48.20895   59.75156   28.39775 
 N                     46.61415   58.44675   28.92754 
 H                     45.92551   59.123    29.20804 
 C                     46.43783   57.09211   28.92592 
 C                     45.34457   56.32134   29.30322 
 H                     44.43485   56.7777   29.66318 
 C                     45.46629   54.95325   29.1971 
 H                     44.64068   54.32056   29.48355 
 C                     46.64263   54.36321   28.7249 
 H                     46.68998   53.28974   28.64346 
 C                     47.72795   55.12029   28.35073 
 H                     48.62767   54.65201   27.98188 
 C                     47.63473   56.50769   28.45297 
 H                     49.91077   58.00376   25.52122 
 H                     54.07778   53.44279   29.40357 
 C                     53.834    54.416    29.825 
 H                     54.7524   54.98625   29.95706 
 C                     52.9101   55.14069   28.86868 
 H                     52.67292   56.14861   29.20998 
 H                     53.35508   55.17938   27.87599 
 S                     51.34442   54.23575   28.63225 
 H                     50.85024   54.46404   29.85165 
 H                     53.35727   54.28173   30.79541 
 H                     50.76703   51.14121   34.32775 
 C                     49.755    50.767    34.187 
 H                     49.31807   50.58889   35.1654 
 C                     48.92778   51.76023   33.38089 
 H                     49.45164   51.96924   32.44521 
 H                     48.85042   52.69727   33.93278 
 C                     47.51683   51.2576   33.05831 
 H                     47.59393   50.25486   32.62531 
 C                     46.65743   51.17555   34.31572 
 H                     47.101    50.51009   35.05019 
 H                     46.55227   52.1638   34.76084 
 H                     45.66912   50.79952   34.06479 
 C                     46.84652   52.17278   32.03576 
 H                     47.41871   52.20891   31.11136 
 H                     46.7655   53.18634   32.423 
 H                     45.8438   51.81972   31.80999 
 H                     49.81895   49.8183   33.65871 
 H                     47.26851   46.75443   37.49071 
 C                     46.253    46.438    37.253 
 H                     45.53384   47.17358   37.612 
 C                     46.11822   46.22525   35.73831 
 H                     46.81976   45.43189   35.45582 
 C                     44.70414   45.78121   35.37096 
 H                     44.62538   45.64108   34.29531 
 H                     44.45178   44.83891   35.84985 
 H                     43.97633   46.53097   35.67579 
 C                     46.48084   47.50224   34.98618 
 H                     46.42398   47.33774   33.91262 
 H                     47.49004   47.82387   35.23535 
 H                     45.78672   48.29981   35.23941 
 C                     46.02699   45.08617   37.95003 
 O                     46.82053   44.1674   37.84203 
 N                     44.88826   44.94548   38.67462 
 H                     44.22475   45.70872   38.74546 
 C                     44.549    43.701    39.371 
 H                     45.39752   43.02853   39.20758 
 C                     44.34047   43.93744   40.87622 
 H                     43.53107   44.66576   40.98668 
 C                     43.92169   42.62991   41.54558 
 H                     43.77113   42.7785   42.61105 
 H                     42.98773   42.26618   41.12431 
 H                     44.68794   41.86801   41.40854 
 C                     45.61373   44.51405   41.50247 
 H                     46.01827   45.27809   40.83627 
 H                     46.36251   43.72322   41.58873 
 C                     45.36754   45.14029   42.86967 
 H                     44.62252   45.92919   42.79474 
 H                     46.28797   45.57277   43.25565 
 H                     45.01433   44.40224   43.58569 
 C                     43.26476   43.13024   38.74518 
 O                     42.18562   43.67368   38.91227 
 N                     43.41796   42.00517   38.03185 
 H                     44.34748   41.63438   37.90691 
 C                     42.317    41.201    37.522 
 H                     41.47134   41.85424   37.29065 
 C                     42.72957   40.36697   36.32016 
 H                     43.73605   39.96658   36.47097 
 H                     42.04117   39.53219   36.19631 
 C                     42.72478   41.17565   35.03684 
 O                     43.25061   42.25196   34.91099 
 O                     42.09277   40.53484   34.07619 
 H                     42.10234   41.05081   33.21704 
 H                     41.98855   40.52501   38.32351 
 H                     38.35302   37.0923   38.13787 
 C                     38.331    36.071    37.764 
 H                     37.51288   35.9828   37.05211 
 C                     39.65661   35.70926   37.10524 
 H                     39.62612   34.6754   36.75435 
 H                     40.46648   35.78664   37.83373 
 C                     39.9587   36.61934   35.92571 
 H                     40.06515   37.65707   36.24653 
 H                     39.17366   36.55325   35.17104 
 S                     41.52316   36.11284   35.12421 
 C                     41.45075   37.15554   33.64226 
 H                     41.53119   38.20337   33.91675 
 H                     42.29102   36.87027   33.01865 
 H                     40.51958   36.96227   33.1168 
 H                     38.1311   35.40622   38.60008 
 H                     35.54166   38.57464   34.75161 
 C                     36.5      39.053    34.953 
 H                     37.00157   38.52758   35.76842 
 C                     37.36308   39.0137   33.68812 
 H                     37.52373   37.96912   33.40332 
 H                     36.82448   39.49306   32.86927 
 C                     38.72392   39.68129   33.85157 
 H                     39.14506   39.48338   34.83675 
 H                     39.41804   39.32515   33.09148 
 S                     38.69882   41.50044   33.69498 
 C                     38.82621   41.63265   31.88897 
 H                     38.02062   41.07263   31.42747 
 H                     39.79404   41.25659   31.56818 
 H                     38.73834   42.68399   31.63563 
 C                     36.21265   40.51008   35.35054 
 O                     35.32994   41.13527   34.79118 
 N                     36.97571   41.01909   36.33283 
 H                     37.72801   40.47548   36.73114 
 C                     36.95     42.397    36.82 
 H                     36.30972   42.97688   36.1522 
 C                     36.43826   42.43934   38.26038 
 H                     37.13708   41.90302   38.90673 
 H                     36.39232   43.47801   38.59174 
 C                     35.0544   41.80143   38.35828 
 H                     34.35417   42.31376   37.70091 
 H                     35.11369   40.75193   38.06007 
 C                     34.53126   41.84939   39.78678 
 O                     35.13691   41.3602   40.72723 
 N                     33.33913   42.44474   39.89322 
 H                     32.90176   42.88658   39.07563 
 H                     32.93068   42.55628   40.80628 
 C                     38.41389   42.88852   36.74737 
 O                     39.30781   42.19012   37.20655 
 N                     38.62765   44.08026   36.17129 
 H                     37.86343   44.55535   35.69774 
 C                     39.963    44.652    35.992 
 H                     40.67335   43.92447   36.39603 
 C                     40.2547   44.93432   34.52746 
 H                     41.30229   45.20058   34.40828 
 H                     39.64225   45.75516   34.16499 
 H                     40.04273   44.04715   33.93673 
 C                     40.01859   45.94808   36.83231 
 O                     39.53698   47.00177   36.42898 
 N                     40.59613   45.84838   38.03501 
 H                     41.05287   44.98525   38.31717 
 C                     40.667    46.954    38.984 
 H                     39.73788   47.53055   38.90144 
 C                     40.84622   46.40623   40.40357 
 H                     41.26626   47.1939   41.03286 
 H                     41.55559   45.57963   40.35926 
 C                     39.53025   45.94503   40.96426 
 C                     39.03364   44.6735   40.69475 
 H                     39.61884   43.9868   40.10164 
 C                     37.80107   44.27928   41.17639 
 H                     37.4011   43.29759   40.98187 
 C                     37.03292   45.15952   41.93349 
 O                     35.82578   44.74123   42.3858 
 H                     35.31062   45.49485   42.70011 
 C                     37.53148   46.4243   42.22278 
 H                     36.9487   47.10686   42.82639 
 C                     38.76569   46.80906   41.73501 
 H                     39.1399   47.79889   41.96054 
 C                     41.85785   47.87892   38.60892 
 O                     43.01259   47.5275   38.80049 
 N                     41.53838   49.08812   38.10583 
 H                     40.59069   49.30188   37.81928 
 C                     42.518    50.112    37.763 
 H                     43.18192   50.23742   38.62966 
 C                     43.38444   49.68477   36.55342 
 H                     44.22427   50.37705   36.45602 
 H                     43.78699   48.70034   36.80056 
 C                     42.64895   49.61789   35.25411 
 C                     41.87855   48.58408   34.78766 
 H                     41.5948   47.68278   35.29341 
 N                     41.4493   48.83557   33.52277 
 H                     40.86555   48.2264   32.94979 
 C                     41.94035   50.04053   33.13156 
 C                     41.83108   50.69936   31.91283 
 H                     41.27155   50.25757   31.10461 
 C                     42.46652   51.91405   31.77896 
 H                     42.43524   52.43534   30.8346 
 C                     43.17499   52.48349   32.84238 
 H                     43.64845   53.44611   32.70431 
 C                     43.29141   51.83556   34.05097 
 H                     43.84466   52.28892   34.86039 
 C                     42.69329   50.58445   34.20649 
 C                     41.7904   51.4352   37.47007 
 O                     40.58703   51.50386   37.35486 
 N                     42.61761   52.50482   37.36303 
 H                     43.60944   52.34914   37.4485 
 C                     42.195    53.859    37.015 
 H                     41.22533   53.78036   36.52036 
 C                     42.05571   54.7402   38.26216 
 H                     41.29688   54.30821   38.92644 
 H                     41.73636   55.74043   37.96403 
 O                     43.2769   54.91292   38.94413 
 H                     43.54904   54.05963   39.29957 
 H                     42.9274   54.28865   36.33016 
 H                     48.828    54.6472   36.00159 
 C                     49.23     55.22     35.169 
 H                     49.9558   54.59937   34.64988 
 C                     48.10446   55.66029   34.23818 
 H                     47.39366   56.25656   34.81528 
 H                     47.57086   54.78287   33.86762 
 C                     48.58042   56.49202   33.04111 
 H                     49.25462   57.27347   33.41225 
 C                     49.33348   55.64309   32.01844 
 H                     48.68573   54.85859   31.63347 
 H                     49.64615   56.26527   31.18142 
 H                     50.21418   55.18404   32.46211 
 C                     47.38905   57.16241   32.35958 
 H                     46.70508   56.41143   31.97058 
 H                     46.8483   57.79546   33.05973 
 H                     47.72333   57.77636   31.52645 
 H                     49.74929   56.08752   35.57215 
 O                     41.22109   46.37586   27.88283 
 H                     41.29916   47.34719   27.90314 
 H                     40.71306   46.14921   28.70075 
 O                     45.00743   50.18151   24.28142 
 H                     45.13804   49.27044   23.96992 
 H                     45.50367   50.24689   25.1234 
 O                     42.42046   44.75067   25.99373 
 H                     42.0443   45.38738   26.63429 
 H                     42.26138   43.89344   26.39321 
 O                     42.86799   52.31059   27.8276 
 H                     43.70877   52.71722   27.56745 
 H                     42.65614   51.72439   27.06744 
 O                     42.53245   50.76408   25.64572 
 H                     43.37407   50.65393   25.18251 
 H                     41.99238   51.36615   25.08596 
 O                     41.29621   49.05284   27.53367 
 H                     41.66223   49.53601   26.77994 
 H                     40.98003   49.71565   28.15964 
 O                     40.57831   51.29618   29.01107 
 H                     41.4881   51.61502   28.93795 
 H                     40.03861   52.09359   29.22932 
 O                     46.66285   48.77936   21.10977 
 H                     46.29528   48.25542   21.83618 
 H                     45.89709   49.30247   20.75684 
 O                     47.69855   50.37855   23.18126 
 H                     47.50459   49.87942   22.37176 
 H                     46.84262   50.65486   23.53261 
 O                     38.0315   49.66731   28.55648 
 H                     37.5373   49.18715   29.24841 
 H                     38.86671   49.91997   28.96472 
 O                     40.2962   47.06946   25.36848 
 H                     40.50293   46.78454   26.27867 
 H                     39.9468   46.30053   24.91149 
 O                     39.82414   51.76945   26.33893 
 H                     40.19411   51.64415   27.22656 
 H                     39.51924   50.88702   26.07131 
 O                     44.46118   49.89779   20.20626 
 H                     44.13512   50.55195   20.8588 
 H                     43.91337   49.10778   20.30863 
 O                     41.40086   54.56876   27.66126 
 H                     41.58611   55.03899   28.48366 
 H                     41.87311   53.7107   27.74197 
 O                     41.51813   52.34346   23.74329 
 H                     42.13018   52.05039   23.04813 
 H                     40.68018   51.86388   23.59969 
 O                     38.74724   49.28822   25.81153 
 H                     39.36807   48.53765   25.74159 
 H                     38.41465   49.27457   26.72613 
 O                     39.24263   53.58394   29.1293 
 H                     39.74649   53.98609   28.39879 
 H                     38.42523   53.22708   28.70779 
 O                     49.79044   44.27853   21.84454 
 H                     48.82455   44.37019   21.80324 
 H                     49.99497   43.47063   22.38358 
 O                     43.73175   51.51348   22.26625 
 H                     44.16481   52.37956   22.41051 
 H                     44.11332   50.96317   22.97046 
 O                     44.85858   53.68343   23.40644 
 H                     44.13663   54.31168   23.51741 
 H                     44.94235   53.26953   24.28874 
 O                     50.54653   42.25746   23.33652 
 H                     50.09772   41.76974   24.04775 
 H                     51.22221   42.79786   23.78013 
 O                     42.56569   54.5037   25.14559 
 H                     42.06424   53.80853   24.68587 
 H                     42.03921   54.71246   25.93546 
 O                     39.47628   50.61839   23.35301 
 H                     39.23009   50.22579   24.20343 
 H                     38.6495   50.77157   22.88552 
 O                     37.46629   52.26796   27.66233 
 H                     38.15339   52.22445   26.97026 
 H                     37.41749   51.36478   28.01736 
 O                     46.88087   54.9378   25.20069 
 H                     46.53078   54.68752   24.33717 
 H                     47.8154   54.69227   25.20037 
 O                     44.77403   53.33321   26.13723 
 H                     43.98244   53.85368   25.86576 
 H                     45.51165   53.95844   26.18533 
 O                     49.84447   52.10462   23.37821 
 H                     49.10216   51.48106   23.28545 
 H                     49.48911   52.87926   23.8369 
 O                     41.27201   54.98803   30.4866 
 H                     40.41322   54.60236   30.25621 
 H                     41.59476   54.48024   31.23408 
 C                     42.699    42.55064   31.09475 
 O                     42.32984   41.50259   31.67716 
 C                     42.77095   43.81615   31.72109 
 C                     43.1168   44.95018   31.05129 
 C                     43.63901   44.89522   29.64835 
 C                     44.10309   43.48751   29.2811 
 C                     43.02257   42.48295   29.62796 
 C                     42.87665   46.28595   31.6441 
 C                     43.85648   47.38408   31.22857 
 C                     44.15693   47.32336   29.73243 
 C                     44.75258   45.93592   29.44373 
 C                     45.13458   48.40574   29.30119 
 C                     45.58206   48.24791   27.84178 
 C                     46.31976   46.92823   27.69198 
 C                     45.38492   45.77858   28.05515 
 C                     44.69222   49.86678   29.36252 
 C                     45.7298   50.58831   28.4827 
 C                     46.47623   49.49361   27.69994 
 C                     44.42908   48.31466   26.84208 
 O                     46.71284   49.91319   26.36263 
 H                     42.45879   43.86558   32.7537 
 H                     42.80202   45.16997   28.99242 
 H                     45.0157   43.24733   29.83411 
 H                     44.32254   43.42371   28.21522 
 H                     42.10309   42.71765   29.08095 
 H                     43.3369   41.4708   29.36561 
 H                     42.82706   46.2169   32.73136 
 H                     41.86542   46.57388   31.31298 
 H                     44.79003   47.2705   31.788 
 H                     43.43511   48.35435   31.48869 
 H                     43.2178   47.44191   29.19095 
 H                     45.53784   45.7528   30.18805 
 H                     46.03293   48.30767   29.92208 
 H                     47.19542   46.9192   28.34481 
 H                     46.6626   46.80199   26.66204 
 H                     44.60098   45.69822   27.30226 
 H                     45.96574   44.85471   28.03708 
 H                     44.68712   50.25406   30.37881 
 H                     43.68787   49.97133   28.95972 
 H                     46.43232   51.14858   29.09477 
 H                     45.27275   51.27581   27.77542 
 H                     47.44384   49.28847   28.17387 
 H                     44.04578   49.32332   26.78166 
 H                     44.77967   48.0015   25.86188 
 H                     43.61373   47.66381   27.12773 
 H                     47.26841   49.2536   25.93274 
 
 Stoichiometry    C246H453N38O74S5(1-)
 Framework group  C1[X(C246H453N38O74S5)]
 Deg. of freedom  2442
 Full point group                 C1      NOp   1
 Largest Abelian subgroup         C1      NOp   1
 Largest concise Abelian subgroup C1      NOp   1
                         Standard orientation:                         
 ---------------------------------------------------------------------
 Center     Atomic      Atomic             Coordinates (Angstroms)
 Number     Number       Type             X           Y           Z
 ---------------------------------------------------------------------
      1          1           0       -3.172565   11.085999   -4.496156
      2          6           0       -3.014187   10.314891   -3.737359
      3          1           0       -2.914146   10.806793   -2.769582
      4          6           0       -4.211628    9.358890   -3.721734
      5          1           0       -5.112683    9.955854   -3.557473
      6          1           0       -4.323447    8.869894   -4.692398
      7          6           0       -4.111218    8.325641   -2.632854
      8          6           0       -4.434094    8.662800   -1.323139
      9          1           0       -4.732350    9.675419   -1.092782
     10          6           0       -4.407503    7.721041   -0.315455
     11          1           0       -4.682556    7.982707    0.695132
     12          6           0       -4.064212    6.403176   -0.603628
     13          8           0       -4.074373    5.493717    0.400674
     14          1           0       -4.021086    4.553464    0.035693
     15          6           0       -3.709655    6.060636   -1.903398
     16          1           0       -3.444256    5.038682   -2.132352
     17          6           0       -3.729103    7.018469   -2.900226
     18          1           0       -3.458725    6.730896   -3.905621
     19          6           0       -1.650878    9.665930   -4.035043
     20          8           0       -0.651734    9.998881   -3.419926
     21          7           0       -1.607369    8.758837   -5.032341
     22          1           0       -2.463282    8.475851   -5.480579
     23          6           0       -0.403578    8.049911   -5.455226
     24          1           0       -0.346474    7.084998   -4.939142
     25          6           0       -0.357736    7.835377   -6.968950
     26          1           0       -0.371360    8.819860   -7.451633
     27          6           0        0.957475    7.144365   -7.327608
     28          1           0        1.022124    6.986418   -8.401106
     29          1           0        1.031654    6.180262   -6.832299
     30          1           0        1.804635    7.753971   -7.020439
     31          6           0       -1.565753    7.047658   -7.503367
     32          1           0       -2.466678    7.662869   -7.434910
     33          1           0       -1.398329    6.864278   -8.566901
     34          6           0       -1.830031    5.713832   -6.814647
     35          1           0       -2.686184    5.234302   -7.280929
     36          1           0       -2.058529    5.843679   -5.760152
     37          1           0       -0.980083    5.043634   -6.899406
     38          1           0        0.442188    8.660746   -5.130063
     39          1           0        1.998218    8.969219   -1.356134
     40          6           0        2.286406    7.941267   -1.133085
     41          1           0        2.280107    7.787741   -0.054761
     42          6           0        1.284727    6.981763   -1.799421
     43          1           0        1.403940    7.058099   -2.885653
     44          6           0        1.549546    5.539084   -1.378192
     45          1           0        2.589330    5.268915   -1.544387
     46          1           0        1.326600    5.413477   -0.321303
     47          1           0        0.918626    4.858191   -1.944265
     48          6           0       -0.141184    7.391947   -1.441830
     49          1           0       -0.857862    6.708542   -1.891373
     50          1           0       -0.352184    8.393140   -1.806712
     51          1           0       -0.285909    7.378044   -0.364022
     52          6           0        3.714409    7.692700   -1.624807
     53          8           0        4.546405    7.122450   -0.926820
     54          7           0        4.007514    8.111163   -2.873063
     55          1           0        3.317161    8.641118   -3.382127
     56          6           0        5.336511    7.980554   -3.491554
     57          1           0        5.675892    6.955807   -3.304753
     58          6           0        5.336161    8.280167   -4.978840
     59          1           0        4.680280    7.600635   -5.522521
     60          1           0        5.049249    9.314912   -5.164760
     61          6           0        6.805747    8.064318   -5.397235
     62          8           0        7.166454    6.923907   -5.717682
     63          8           0        7.560291    9.059469   -5.264462
     64          1           0        6.024320    8.667728   -2.981983
     65          1           0       -1.794793   12.488618    2.619319
     66          6           0       -2.523716   11.692117    2.753888
     67          1           0       -3.081911   11.579147    1.826921
     68          6           0       -1.834921   10.379731    3.116088
     69          1           0       -1.272151   10.528102    4.045988
     70          6           0       -2.879052    9.290675    3.349322
     71          1           0       -3.400390    9.068404    2.421306
     72          1           0       -3.611759    9.618584    4.083527
     73          1           0       -2.422125    8.376467    3.717236
     74          6           0       -0.848295    9.996101    2.008915
     75          1           0       -1.403830    9.743207    1.103296
     76          1           0       -0.225569   10.864615    1.780966
     77          6           0        0.056504    8.831689    2.387106
     78          1           0        0.799366    8.669288    1.610621
     79          1           0        0.576273    9.040369    3.320722
     80          1           0       -0.521391    7.920977    2.509959
     81          1           0       -3.217369   11.992212    3.536502
     82          1           0       -8.168196   11.342491    3.704551
     83          6           0       -9.222688   11.276285    3.962607
     84          1           0       -9.773636   10.988566    3.069892
     85          6           0       -9.436124   10.242883    5.068925
     86          1           0       -8.883732   10.548576    5.960886
     87          1           0      -10.496102   10.194235    5.324130
     88          6           0       -8.954850    8.900715    4.599067
     89          6           0       -7.595753    8.622169    4.569951
     90          1           0       -6.892882    9.352388    4.947421
     91          6           0       -7.124966    7.427651    4.064345
     92          1           0       -6.063933    7.230552    4.039949
     93          6           0       -8.014828    6.476079    3.577412
     94          8           0       -7.593588    5.291250    3.075844
     95          1           0       -6.623132    5.245071    3.123590
     96          6           0       -9.380283    6.745166    3.606782
     97          1           0      -10.067832    6.004400    3.229690
     98          6           0       -9.836789    7.946776    4.110237
     99          1           0      -10.898903    8.145301    4.124121
    100          1           0       -9.565123   12.259625    4.279769
    101          1           0      -10.779551    2.047108    5.271286
    102          6           0       -9.701812    1.936151    5.136464
    103          1           0       -9.460347    2.250514    4.121031
    104          6           0       -8.946355    2.766117    6.173452
    105          1           0       -9.017898    2.239981    7.131014
    106          6           0       -7.470563    2.880789    5.800616
    107          1           0       -6.918688    3.405967    6.578736
    108          1           0       -7.037043    1.891713    5.682939
    109          1           0       -7.360028    3.430237    4.867816
    110          6           0       -9.569019    4.152969    6.314821
    111          1           0      -10.613238    4.080673    6.611028
    112          1           0       -9.040221    4.735803    7.067319
    113          1           0       -9.515134    4.691208    5.371078
    114          6           0       -9.390782    0.429137    5.277114
    115          8           0       -8.774040   -0.025803    6.228536
    116          7           0       -9.875764   -0.349433    4.291692
    117          1           0      -10.332587    0.075386    3.490332
    118          6           0       -9.825636   -1.810928    4.304934
    119          1           0       -9.713591   -2.121772    5.349820
    120          6           0      -11.090127   -2.398688    3.682647
    121          1           0      -11.183106   -2.028110    2.660285
    122          1           0      -10.980175   -3.484663    3.633550
    123          6           0      -12.352611   -2.042514    4.450310
    124          1           0      -12.424316   -0.960462    4.583630
    125          1           0      -12.374122   -2.512699    5.434176
    126          6           0      -13.665776   -2.465333    3.682869
    127          8           0      -13.540262   -2.619123    2.454150
    128          8           0      -14.674891   -2.576989    4.373945
    129          6           0       -8.578402   -2.261669    3.499170
    130          8           0       -8.609052   -2.334158    2.277997
    131          7           0       -7.474124   -2.552805    4.215864
    132          1           0       -7.470079   -2.359424    5.207507
    133          6           0       -6.171805   -2.771850    3.589893
    134          1           0       -6.384513   -3.066765    2.560622
    135          6           0       -5.376107   -1.456643    3.593074
    136          1           0       -5.279073   -1.087363    4.616235
    137          1           0       -5.923883   -0.708869    3.013834
    138          6           0       -3.952308   -1.572691    2.983201
    139          8           0       -3.673472   -2.587102    2.320951
    140          8           0       -3.184915   -0.609549    3.191971
    141          6           0       -5.307768   -3.830482    4.272061
    142          8           0       -4.750660   -3.592716    5.345348
    143          7           0       -5.089446   -4.981147    3.628169
    144          6           0       -4.235665   -5.994583    4.230805
    145          1           0       -3.186215   -5.746690    4.032590
    146          1           0       -4.398843   -6.022454    5.309163
    147          6           0       -4.636367   -7.278570    3.519721
    148          1           0       -3.850524   -8.030631    3.542779
    149          1           0       -5.541571   -7.681085    3.973216
    150          6           0       -4.945881   -6.779041    2.112296
    151          1           0       -5.563323   -7.467081    1.538154
    152          1           0       -4.022348   -6.602224    1.560740
    153          6           0       -5.663284   -5.449886    2.377080
    154          1           0       -5.495028   -4.735655    1.567882
    155          6           0       -7.185309   -5.716880    2.554346
    156          8           0       -7.625476   -6.156089    3.600648
    157          7           0       -7.930403   -5.482068    1.464180
    158          1           0       -7.499504   -5.078307    0.639687
    159          6           0       -9.346070   -5.819073    1.383590
    160          1           0       -9.778347   -5.683272    2.378514
    161          6           0      -10.097945   -4.979015    0.354000
    162          1           0       -9.544988   -4.978938   -0.589686
    163          1           0      -10.179070   -3.953252    0.711531
    164          6           0      -11.458093   -5.589057    0.151708
    165          6           0      -12.596521   -5.025482    0.708526
    166          1           0      -12.540007   -4.101869    1.263689
    167          6           0      -13.824830   -5.650844    0.577482
    168          1           0      -14.693866   -5.201420    1.031351
    169          6           0      -13.932016   -6.848291   -0.106863
    170          1           0      -14.890101   -7.342068   -0.200002
    171          6           0      -12.799006   -7.418870   -0.665329
    172          1           0      -12.870058   -8.362622   -1.191914
    173          6           0      -11.573344   -6.791131   -0.538244
    174          1           0      -10.693703   -7.240912   -0.978358
    175          1           0       -9.437207   -6.883216    1.125489
    176          1           0       -1.323028    3.806217   10.476859
    177          6           0       -1.389180    2.996128    9.745511
    178          1           0       -1.089794    2.062956   10.220044
    179          6           0       -2.831816    2.866490    9.231837
    180          1           0       -3.150961    3.794037    8.751208
    181          1           0       -3.484295    2.689974   10.089229
    182          6           0       -2.946373    1.720881    8.262276
    183          6           0       -2.951097    0.415640    8.738508
    184          1           0       -2.902615    0.237858    9.803608
    185          6           0       -3.037572   -0.651178    7.862773
    186          1           0       -3.059886   -1.661045    8.241243
    187          6           0       -3.118324   -0.419301    6.500757
    188          1           0       -3.195560   -1.243525    5.811539
    189          6           0       -3.121007    0.878141    6.017841
    190          1           0       -3.210034    1.042215    4.955361
    191          6           0       -3.026919    1.945292    6.894743
    192          1           0       -3.036258    2.959221    6.514675
    193          6           0       -0.411187    3.288149    8.604999
    194          8           0        0.473528    2.491948    8.298473
    195          7           0       -0.544537    4.467986    7.979309
    196          1           0       -1.314424    5.061481    8.245317
    197          6           0        0.300460    4.972722    6.888913
    198          1           0        0.374569    4.200930    6.116461
    199          6           0       -0.283941    6.263637    6.325911
    200          1           0       -0.537953    6.933934    7.150714
    201          1           0        0.484554    6.752646    5.724218
    202          6           0       -1.490267    6.005083    5.465808
    203          6           0       -2.775179    5.948498    5.990575
    204          1           0       -2.938650    6.115310    7.046546
    205          6           0       -3.868390    5.709177    5.181055
    206          1           0       -4.861560    5.651074    5.597563
    207          6           0       -3.696212    5.563496    3.806141
    208          8           0       -4.783048    5.395014    3.023000
    209          1           0       -4.534657    5.421554    2.072867
    210          6           0       -2.412714    5.617625    3.273527
    211          1           0       -2.282077    5.532287    2.206779
    212          6           0       -1.325355    5.808351    4.101352
    213          1           0       -0.331141    5.828988    3.679703
    214          1           0        1.304361    5.151189    7.294297
    215          1           0        3.117800    2.969306    9.877090
    216          6           0        3.818319    2.139266    9.772544
    217          1           0        4.726937    2.380907   10.320464
    218          6           0        3.172142    0.833434   10.265516
    219          1           0        3.882590    0.273790   10.872621
    220          1           0        2.928694    0.200428    9.410267
    221          6           0        1.886728    1.063633   11.074656
    222          1           0        2.114035    1.222586   12.127930
    223          1           0        1.351885    1.930572   10.688318
    224          6           0        1.009337   -0.173883   10.919904
    225          8           0        1.058072   -1.119063   11.683917
    226          7           0        0.215462   -0.130980    9.838822
    227          1           0        0.300060    0.616529    9.166240
    228          1           0       -0.287183   -0.957008    9.541982
    229          6           0        4.185870    2.039821    8.280138
    230          8           0        5.339325    2.251763    7.887180
    231          7           0        3.207871    1.732766    7.420848
    232          1           0        2.257905    1.644211    7.765677
    233          6           0        3.384955    1.295803    6.029990
    234          1           0        2.445259    1.491642    5.505710
    235          1           0        3.574647    0.218954    6.012858
    236          6           0        4.516382    1.995938    5.279784
    237          8           0        5.408453    1.352692    4.730911
    238          7           0        4.450233    3.335564    5.175663
    239          1           0        3.687143    3.805679    5.638433
    240          6           0        5.335141    4.171243    4.363521
    241          1           0        5.731122    3.548180    3.555963
    242          6           0        4.546844    5.367903    3.825236
    243          1           0        4.190870    5.945879    4.683394
    244          1           0        5.224964    6.008993    3.260101
    245          6           0        3.354209    4.992002    2.937316
    246          1           0        2.754998    4.226945    3.442375
    247          6           0        2.488776    6.229470    2.716645
    248          1           0        1.628357    5.982455    2.101025
    249          1           0        2.131697    6.636295    3.660446
    250          1           0        3.062945    7.000068    2.207435
    251          6           0        3.816482    4.442268    1.593177
    252          1           0        4.346812    5.204580    1.027352
    253          1           0        4.463076    3.582095    1.729406
    254          1           0        2.959834    4.124857    1.006796
    255          6           0        6.543293    4.709624    5.166419
    256          8           0        7.309600    5.497802    4.612947
    257          7           0        6.703843    4.331766    6.438258
    258          1           0        6.130142    3.592967    6.843160
    259          6           0        7.779848    4.864604    7.275934
    260          1           0        7.621130    5.930135    7.456218
    261          1           0        7.784734    4.309145    8.210360
    262          6           0        9.164226    4.726456    6.572990
    263          8           0        9.807539    5.736199    6.268989
    264          7           0        9.614916    3.492039    6.357418
    265          1           0        8.970280    2.693012    6.362010
    266          6           0       10.952993    3.170365    5.855875
    267          1           0       11.384560    2.414725    6.510186
    268          1           0       11.563253    4.069245    5.885032
    269          1           0       10.886363    2.767954    4.847741
    270          1           0       11.925463    4.559787    0.094278
    271          6           0       11.937552    3.559884    0.532866
    272          1           0       12.784790    3.014448    0.117003
    273          6           0       12.117778    3.652721    2.047849
    274          1           0       11.933080    2.669342    2.483695
    275          1           0       13.166200    3.900092    2.235274
    276          6           0       11.247582    4.685355    2.766888
    277          1           0       11.565125    4.698454    3.807779
    278          1           0       10.205936    4.372526    2.734649
    279          6           0       11.383370    6.110515    2.224090
    280          1           0       10.745276    6.248953    1.351429
    281          1           0       12.415297    6.293431    1.921276
    282          6           0       11.011987    7.151055    3.279473
    283          1           0       11.035728    8.144636    2.827960
    284          1           0       11.730021    7.129190    4.101434
    285          7           0        9.660011    6.890275    3.815895
    286          1           0        9.689593    6.317697    4.696791
    287          1           0        9.065588    6.358369    3.079219
    288          1           0        9.166639    7.745750    4.062496
    289          6           0       10.695552    2.798522    0.010146
    290          8           0       10.852418    1.761292   -0.606865
    291          7           0        9.466031    3.334387    0.215210
    292          1           0        9.368790    4.230312    0.672825
    293          6           0        8.291947    2.915507   -0.564702
    294          1           0        8.524673    1.928997   -0.974861
    295          6           0        6.992146    2.867297    0.234751
    296          1           0        6.741647    3.881496    0.562139
    297          6           0        5.888101    2.345871   -0.683444
    298          1           0        5.767714    2.984425   -1.554163
    299          1           0        6.125697    1.342238   -1.028382
    300          1           0        4.937620    2.317254   -0.162719
    301          6           0        7.170623    1.969364    1.457089
    302          1           0        7.497788    0.979097    1.153335
    303          1           0        7.919765    2.375901    2.131311
    304          1           0        6.234809    1.867377    2.001699
    305          6           0        8.206013    3.921792   -1.737512
    306          8           0        8.404515    5.133466   -1.544777
    307          7           0        7.993038    3.431035   -2.949610
    308          1           0        7.871565    2.422471   -3.056767
    309          6           0        7.740620    4.220016   -4.155874
    310          1           0        7.687631    5.275006   -3.894338
    311          6           0        8.792287    3.956378   -5.243389
    312          1           0        8.785192    4.816326   -5.914375
    313          1           0        8.488008    3.083258   -5.823324
    314          6           0       10.200547    3.682056   -4.708590
    315          1           0       10.850610    3.479131   -5.563126
    316          1           0       10.188385    2.792369   -4.077456
    317          6           0       10.800705    4.827806   -3.887357
    318          1           0       10.259535    4.954506   -2.954316
    319          1           0       11.838523    4.584301   -3.638413
    320          7           0       10.789764    6.074655   -4.621320
    321          1           0       11.266532    6.037692   -5.510761
    322          6           0        9.940572    7.102735   -4.458431
    323          7           0        9.216894    7.238298   -3.346771
    324          1           0        9.032513    6.473654   -2.699665
    325          1           0        8.560966    8.003828   -3.349226
    326          7           0        9.917376    8.088634   -5.338087
    327          1           0       10.410069    7.966947   -6.207238
    328          1           0        8.973932    8.643110   -5.379818
    329          6           0        6.357539    3.723871   -4.671453
    330          8           0        6.007089    2.577699   -4.417067
    331          7           0        5.638423    4.599996   -5.361606
    332          1           0        6.060626    5.513901   -5.563793
    333          6           0        4.287442    4.317136   -5.848402
    334          1           0        4.185994    3.241836   -6.005970
    335          6           0        3.242118    4.801453   -4.849683
    336          1           0        2.249099    4.549939   -5.208744
    337          1           0        3.302091    5.878175   -4.708378
    338          1           0        3.395986    4.320025   -3.886962
    339          1           0        4.166267    4.824407   -6.806637
    340          1           0       -7.992088    2.755824   -9.293471
    341          6           0       -7.035946    2.907202   -9.789985
    342          1           0       -7.202048    2.906371  -10.863968
    343          6           0       -6.406156    4.225203   -9.352932
    344          1           0       -7.059362    5.055531   -9.629023
    345          1           0       -5.452331    4.369752   -9.864578
    346          6           0       -6.178654    4.258954   -7.850498
    347          1           0       -5.461915    3.493791   -7.544207
    348          1           0       -7.119855    4.116225   -7.317202
    349         16           0       -5.518500    5.884662   -7.333472
    350          6           0       -5.832969    5.753282   -5.552464
    351          1           0       -6.881805    5.528305   -5.385077
    352          1           0       -5.194367    4.988826   -5.117973
    353          1           0       -5.608920    6.718670   -5.113130
    354          1           0       -6.383887    2.071634   -9.543398
    355          1           0       -1.964705    0.491857   -9.142874
    356          6           0       -1.000907    0.949254   -9.370436
    357          1           0       -0.948732    1.106789  -10.451318
    358          6           0       -0.863335    2.291383   -8.648603
    359          1           0        0.081255    2.775438   -8.911398
    360          1           0       -1.666588    2.942105   -9.010587
    361          6           0       -0.981873    2.181783   -7.150814
    362          6           0        0.034628    2.636032   -6.320712
    363          1           0        0.953235    3.015348   -6.749419
    364          6           0       -0.110569    2.599897   -4.943267
    365          1           0        0.681654    2.973852   -4.310686
    366          6           0       -1.264193    2.086281   -4.379040
    367          1           0       -1.379561    2.046301   -3.305474
    368          6           0       -2.276477    1.612738   -5.197186
    369          1           0       -3.170330    1.202575   -4.753374
    370          6           0       -2.139134    1.672098   -6.571748
    371          1           0       -2.927430    1.291699   -7.201460
    372          6           0        0.033956   -0.121725   -9.019554
    373          8           0       -0.242766   -1.303216   -9.030674
    374          7           0        1.299519    0.297384   -8.761555
    375          1           0        1.512623    1.280005   -8.660444
    376          6           0        2.288733   -0.572976   -8.159090
    377          1           0        1.762419   -1.451932   -7.771331
    378          6           0        3.382622   -1.027052   -9.150118
    379          1           0        2.918303   -1.655643   -9.911159
    380          1           0        3.809206   -0.148968   -9.638133
    381          6           0        4.469337   -1.794179   -8.401960
    382          1           0        4.993365   -1.103730   -7.738882
    383          1           0        3.994921   -2.568831   -7.793855
    384          6           0        5.525413   -2.478846   -9.269044
    385          1           0        6.053631   -1.766625   -9.906203
    386          1           0        5.069169   -3.257572   -9.890303
    387          7           0        6.536124   -3.067595   -8.416859
    388          1           0        5.874799   -3.324471   -6.608132
    389          6           0        8.553886   -3.316988   -7.251600
    390          7           0        8.710846    0.682591   -8.134491
    391          1           0        9.600180    1.101928   -7.884179
    392          1           0        8.896746   -0.145929   -8.693491
    393          7           0        9.229597   -4.411122   -7.375101
    394          1           0        9.273451   -4.978773   -8.223982
    395          1           0        9.752729   -4.773418   -6.587104
    396          6           0        2.955609    0.228262   -7.023604
    397          8           0        3.135961    1.428703   -7.129974
    398          7           0        3.309207   -0.483787   -5.940048
    399          1           0        3.184801   -1.485693   -5.950354
    400          6           0        4.231287   -0.014942   -4.926530
    401          1           0        4.479014    1.025892   -5.144057
    402          6           0        3.651032   -0.120670   -3.502482
    403          1           0        4.482331    0.046708   -2.809428
    404          6           0        2.599439    0.962257   -3.297252
    405          1           0        1.793760    0.843300   -4.017563
    406          1           0        3.045737    1.944041   -3.428890
    407          1           0        2.182580    0.901744   -2.295469
    408          6           0        3.067328   -1.505929   -3.245015
    409          1           0        2.166771   -1.660060   -3.834685
    410          1           0        2.807754   -1.608389   -2.194921
    411          1           0        3.791974   -2.278752   -3.485586
    412          6           0        5.512891   -0.875011   -5.013157
    413          8           0        5.460836   -2.038157   -5.409508
    414          7           0        6.640072   -0.278661   -4.624718
    415          1           0        6.595313    0.690133   -4.320751
    416          6           0        7.969062   -0.881707   -4.673119
    417          1           0        7.832712   -1.952874   -4.836663
    418          6           0        8.818676   -0.279914   -5.814919
    419          1           0        9.443474   -1.072719   -6.232444
    420          1           0        9.468484    0.503902   -5.415084
    421          6           0        7.963987    0.318589   -6.948538
    422          1           0        7.448082    1.214285   -6.584734
    423          1           0        7.204575   -0.404170   -7.248191
    424          6           0        7.858394   -2.791677   -8.435675
    425          8           0        8.399675   -2.074194   -9.270745
    426          8           0        6.107419   -3.895681   -7.377367
    427          6           0        8.639067   -0.571086   -3.319658
    428          8           0        8.471735    0.528208   -2.807570
    429          7           0        9.402992   -1.533084   -2.786896
    430          1           0        9.577875   -2.397995   -3.283877
    431          6           0        9.966590   -1.501888   -1.443007
[...]
 714,30.1996857382\H,0,47.7203603231,45.3464128876,30.3139612057\C,0,48
 .6403233459,47.6661653362,31.4336566507\H,0,48.3660652913,47.348584173
 5,32.436848955\H,0,47.7278424902,47.8723097344,30.8809768893\H,0,49.21
 01651216,48.5893105104,31.4913195901\C,0,51.6945979852,47.6593614118,3
 1.0135055366\O,0,51.7508985807,48.6123380806,31.7889912101\N,0,52.3345
 876266,47.621651938,29.844726124\H,0,52.2417959219,46.789531473,29.268
 5962976\C,0,53.2359999827,48.6569998374,29.3470000551\H,0,53.087867334
 9,49.5418709591,29.9697326149\C,0,54.7109481789,48.2025132755,29.42234
 4689\H,0,55.3253722867,49.0706422999,29.6714942897\H,0,55.0268376495,4
 7.8180716672,28.4482276379\C,0,54.9501221726,47.112018899,30.484139100
 2\H,0,54.4659832093,46.1809495181,30.1686996711\H,0,54.4965631526,47.4
 20161529,31.4265891028\C,0,55.4137597399,49.5870527687,32.8411988589\O
 ,0,56.4761951156,48.9736532343,32.8321815418\O,0,53.2697116259,50.1402
 547044,33.5495622103\C,0,52.8510079695,48.8998495199,27.8738902419\O,0
 ,52.5486152717,47.9454274453,27.1693910265\N,0,52.8981168026,50.164299
 8792,27.4359360371\H,0,53.2308219291,50.9125702791,28.0317909858\C,0,5
 2.4009996012,50.6180000468,26.1430000015\H,0,52.9722370745,50.13451437
 53,25.3394448436\C,0,50.9230886007,50.2379275016,25.9699322969\H,0,50.
 8614479217,49.1507309833,26.0222873146\H,0,50.5884514763,50.5371904762
 ,24.9774487341\C,0,50.0057606663,50.8402754131,27.0295610102\H,0,50.31
 70682326,51.8426474975,27.3152398243\H,0,48.9809821457,50.8840731911,2
 6.6635987364\S,0,49.9767668561,49.8197532136,28.562914312\C,0,50.49394
 28364,51.034226713,29.8001060247\H,0,51.3942406337,51.5360539891,29.46
 02711399\H,0,49.695265133,51.7549614076,29.9528778739\H,0,50.694606559
 5,50.4896110828,30.7173725421\C,0,52.6353507494,52.1584578501,26.05957
 50485\O,0,53.3841428542,52.6986989763,26.8619618482\N,0,52.0026308611,
 52.815600902,25.0722144768\H,0,51.3415366295,52.3234558908,24.47105290
 94\C,0,52.1129993846,54.2449988514,24.7630003881\H,0,52.9585143686,54.
 6381669877,25.3371148057\C,0,52.3545653624,54.4164448504,23.252560723\
 H,0,51.523901374,53.9298060484,22.7329525204\C,0,52.393658451,55.89188
 0695,22.862462982\H,0,53.1784790425,56.4141690586,23.4075278609\H,0,52
 .6016109141,55.9852334,21.7994544813\H,0,51.4427256277,56.3782032662,2
 3.0640743058\C,0,53.6566194688,53.7255376674,22.8547049135\H,0,54.5022
 257344,54.1795882621,23.3680381292\H,0,53.6240362601,52.6699412909,23.
 1092976913\H,0,53.8146394803,53.8163015499,21.7831029246\C,0,50.806059
 2329,54.9739779593,25.1720898705\O,0,49.7156963561,54.4642211876,24.96
 21945301\N,0,50.9516108337,56.2000196944,25.7057511748\H,0,51.88534118
 91,56.5407029307,25.8755840208\C,0,49.8629995817,57.0899993032,26.1190
 001229\H,0,48.9315503505,56.5677416754,25.8939872022\C,0,49.9143898036
 ,57.4123020839,27.6204847365\H,0,50.3816710417,56.5673233226,28.127931
 0542\H,0,50.512611806,58.3079136487,27.7996876722\C,0,48.5364495302,57
 .5814041299,28.1718867268\C,0,47.8721773474,58.7343363441,28.469975145
 7\H,0,48.2089546931,59.7515594438,28.3977515457\N,0,46.614149076,58.44
 67536807,28.9275360979\H,0,45.925514707,59.1230033235,29.2080394753\C,
 0,46.4378290594,57.0921100373,28.9259242253\C,0,45.3445650608,56.32134
 45153,29.3032160851\H,0,44.4348499909,56.7777015094,29.6631756036\C,0,
 45.4662907461,54.9532465904,29.1971000447\H,0,44.6406784919,54.3205640
 346,29.4835507\C,0,46.6426304489,54.363211054,28.7249025633\H,0,46.689
 9772454,53.2897396636,28.6434599549\C,0,47.7279462836,55.1202928438,28
 .3507273519\H,0,48.6276740797,54.652005937,27.9818764478\C,0,47.634728
 1227,56.5076946789,28.4529733907\H,0,49.9107670438,58.0037632241,25.52
 12158998\H,0,54.0777778623,53.4427896477,29.4035670231\C,0,53.83399998
 58,54.4159999155,29.8249999963\H,0,54.7523951493,54.9862492494,29.9570
 621879\C,0,52.9101009019,55.1406905941,28.868682956\H,0,52.6729171664,
 56.1486069034,29.2099792396\H,0,53.3550802698,55.1793775617,27.8759874
 94\S,0,51.3444239143,54.235747164,28.632247171\H,0,50.8502417245,54.46
 40434556,29.8516455747\H,0,53.3572704541,54.2817327533,30.7954144997\H
 ,0,50.7670323539,51.1412148215,34.3277512104\C,0,49.7550000072,50.7669
 998662,34.1869999779\H,0,49.3180704813,50.5888867442,35.1654031925\C,0
 ,48.927782478,51.7602344481,33.3808866533\H,0,49.4516442294,51.9692437
 085,32.4452086207\H,0,48.8504198471,52.6972707306,33.932778987\C,0,47.
 5168292089,51.2576047346,33.0583079283\H,0,47.5939294839,50.2548565235
 ,32.6253058102\C,0,46.6574336968,51.1755528362,34.3157188156\H,0,47.10
 10032129,50.5100945483,35.0501853197\H,0,46.5522739732,52.16380492,34.
 7608436011\H,0,45.6691169828,50.7995173408,34.0647918493\C,0,46.846522
 7892,52.172779661,32.0357609695\H,0,47.4187096959,52.2089110842,31.111
 3620111\H,0,46.7655038417,53.1863407865,32.4230014802\H,0,45.843803426
 4,51.8197169194,31.8099897106\H,0,49.8189540077,49.8182998511,33.65870
 80766\H,0,47.2685072259,46.7544291278,37.4907066735\C,0,46.2529999954,
 46.4379999869,37.2530000046\H,0,45.5338353266,47.1735815692,37.6119996
 207\C,0,46.1182189149,46.2252466278,35.7383063009\H,0,46.819756401,45.
 4318949483,35.455815524\C,0,44.7041445591,45.7812057099,35.3709647376\
 H,0,44.6253834891,45.6410830324,34.2953114695\H,0,44.4517847246,44.838
 9054624,35.8498546228\H,0,43.976325277,46.5309719497,35.675787795\C,0,
 46.4808395217,47.5022411045,34.9861807468\H,0,46.4239762305,47.3377353
 82,33.9126175672\H,0,47.4900400748,47.8238735217,35.235353015\H,0,45.7
 867184092,48.299806369,35.2394050981\C,0,46.0269941187,45.086169389,37
 .9500306169\O,0,46.8205305445,44.1673980066,37.8420322373\N,0,44.88825
 59798,44.9454773903,38.6746235224\H,0,44.2247502695,45.7087160077,38.7
 454616266\C,0,44.5490000082,43.7009999834,39.3710000025\H,0,45.3975178
 736,43.0285278522,39.2075797929\C,0,44.3404676815,43.9374358781,40.876
 2244479\H,0,43.5310719143,44.6657559551,40.9866819012\C,0,43.921691492
 8,42.6299084151,41.5455843283\H,0,43.771125039,42.7784977985,42.611046
 7046\H,0,42.9877316681,42.2661793197,41.1243091481\H,0,44.687941112,41
 .8680115365,41.4085395595\C,0,45.6137347315,44.5140484314,41.502471725
 7\H,0,46.0182716025,45.2780918824,40.8362740899\H,0,46.3625054449,43.7
 232218814,41.5887319482\C,0,45.3675409014,45.1402870727,42.869665999\H
 ,0,44.6225199821,45.9291850139,42.7947399765\H,0,46.2879746216,45.5727
 667046,43.2556520936\H,0,45.0143335958,44.4022398235,43.5856919295\C,0
 ,43.2647617654,43.1302354739,38.7451827972\O,0,42.1856217754,43.673677
 5047,38.9122729861\N,0,43.4179583653,42.0051728755,38.0318521952\H,0,4
 4.3474752243,41.6343827148,37.9069108526\C,0,42.317000013,41.200999993
 8,37.5220000223\H,0,41.4713422603,41.8542423628,37.2906492902\C,0,42.7
 295701686,40.366970024,36.3201623049\H,0,43.7360515283,39.9665825233,3
 6.4709732586\H,0,42.0411659776,39.532188162,36.1963125193\C,0,42.72477
 73156,41.1756508784,35.0368380326\O,0,43.2506124884,42.2519568922,34.9
 109943748\O,0,42.0927743073,40.5348359395,34.0761893406\H,0,42.1023384
 061,41.0508126611,33.2170373591\H,0,41.988554316,40.525010503,38.32351
 08128\H,0,38.3530165963,37.092297198,38.1378707231\C,0,38.3309999877,3
 6.0710000121,37.7640000071\H,0,37.5128757794,35.9827961691,37.05210755
 89\C,0,39.6566099128,35.7092583813,37.1052427608\H,0,39.6261242818,34.
 6753995337,36.7543534393\H,0,40.4664752289,35.7866419632,37.8337345524
 \C,0,39.9587003695,36.6193385294,35.9257140615\H,0,40.0651521112,37.65
 70739576,36.2465335628\H,0,39.1736632213,36.5532495237,35.1710376298\S
 ,0,41.5231647268,36.1128350595,35.1242116786\C,0,41.4507528276,37.1555
 428045,33.6422632519\H,0,41.5311947012,38.2033736781,33.9167465097\H,0
 ,42.291018491,36.8702687256,33.0186536457\H,0,40.5195828548,36.9622729
 292,33.1168022292\H,0,38.1311024211,35.4062233911,38.6000804108\H,0,35
 .5416554595,38.574635944,34.7516071738\C,0,36.5000000351,39.0529999231
 ,34.9529999969\H,0,37.0015718807,38.5275840912,35.7684179283\C,0,37.36
 30849349,39.0137015692,33.6881194793\H,0,37.5237290417,37.9691153222,3
 3.4033213654\H,0,36.8244762462,39.4930625191,32.8692659972\C,0,38.7239
 168968,39.6812903388,33.8515690169\H,0,39.1450642474,39.4833790825,34.
 8367452552\H,0,39.4180385102,39.3251464022,33.0914802861\S,0,38.698820
 3715,41.5004431401,33.6949831836\C,0,38.8262084388,41.6326522412,31.88
 89709329\H,0,38.0206209754,41.0726292148,31.4274744806\H,0,39.79403708
 86,41.2565923814,31.5681793753\H,0,38.7383435004,42.6839854843,31.6356
 318362\C,0,36.2126496297,40.5100764143,35.3505350671\O,0,35.3299427446
 ,41.1352680057,34.7911778129\N,0,36.9757120321,41.0190937527,36.332831
 7981\H,0,37.7280060731,40.4754845337,36.7311366808\C,0,36.9499999908,4
 2.3970000507,36.8199999924\H,0,36.3097198514,42.9768786017,36.15219556
 12\C,0,36.4382554113,42.439339704,38.2603758601\H,0,37.1370767208,41.9
 030240427,38.9067265956\H,0,36.392321379,43.4780148033,38.5917377122\C
 ,0,35.0544033979,41.801433459,38.358284276\H,0,34.3541705005,42.313760
 941,37.7009117407\H,0,35.1136887168,40.7519335918,38.0600654113\C,0,34
 .5312608103,41.8493895533,39.7867802133\O,0,35.1369092179,41.360204430
 7,40.727225959\N,0,33.3391301326,42.4447358659,39.8932197672\H,0,32.90
 1761654,42.8865817508,39.075630269\H,0,32.9306764638,42.5562807371,40.
 8062796307\C,0,38.4138904023,42.8885180825,36.7473695983\O,0,39.307812
 9848,42.190117776,37.206547697\N,0,38.6276525553,44.0802649101,36.1712
 904719\H,0,37.8634276818,44.5553465007,35.697736923\C,0,39.9629999956,
 44.6519999818,35.9919999997\H,0,40.6733485556,43.9244666622,36.3960332
 232\C,0,40.2547029051,44.9343234306,34.5274608982\H,0,41.302293514,45.
 2005827363,34.4082752297\H,0,39.6422521842,45.7551610363,34.1649921268
 \H,0,40.0427255725,44.0471526253,33.9367307051\C,0,40.0185923671,45.94
 80796617,36.8323123989\O,0,39.5369783597,47.0017684588,36.428983866\N,
 0,40.5961288553,45.8483848087,38.0350131457\H,0,41.0528658393,44.98524
 80878,38.3171662183\C,0,40.6669999351,46.9539999304,38.9840000541\H,0,
 39.7378755322,47.530550847,38.9014350717\C,0,40.8462234837,46.40622768
 75,40.4035749693\H,0,41.2662556813,47.1938982654,41.0328556055\H,0,41.
 5555895161,45.5796263902,40.3592613862\C,0,39.5302489217,45.9450280619
 ,40.964257252\C,0,39.0336362478,44.6734966092,40.6947491182\H,0,39.618
 8444096,43.9867982111,40.1016403955\C,0,37.8010650609,44.2792782375,41
 .1763901699\H,0,37.4011010446,43.297590981,40.9818729169\C,0,37.032916
 8722,45.1595227634,41.9334885678\O,0,35.8257796718,44.7412315209,42.38
 57982898\H,0,35.3106175463,45.4948503099,42.700111636\C,0,37.531476498
 3,46.4242990465,42.2227783114\H,0,36.9486991172,47.1068552583,42.82639
 49242\C,0,38.7656870137,46.8090572613,41.7350142081\H,0,39.1398991645,
 47.7988931271,41.9605378684\C,0,41.857846826,47.8789160699,38.60892417
 05\O,0,43.0125871152,47.5274963124,38.8004915961\N,0,41.5383750443,49.
 0881234194,38.10583104\H,0,40.5906864545,49.3018804277,37.8192795774\C
 ,0,42.5179999254,50.1120001891,37.762999725\H,0,43.1819175814,50.23742
 08675,38.6296602039\C,0,43.3844443081,49.6847729683,36.5534199258\H,0,
 44.224268752,50.3770546246,36.4560246509\H,0,43.7869865731,48.70033561
 73,36.8005609122\C,0,42.6489517799,49.6178929274,35.2541144937\C,0,41.
 8785484443,48.5840818334,34.7876638451\H,0,41.5947960793,47.6827760033
 ,35.2934057589\N,0,41.4492983323,48.8355690838,33.5227706728\H,0,40.86
 55475771,48.2264001889,32.9497862996\C,0,41.9403520126,50.0405290461,3
 3.1315566263\C,0,41.8310761617,50.6993616436,31.912826333\H,0,41.27154
 51449,50.2575675853,31.1046063976\C,0,42.4665209441,51.9140531646,31.7
 789585344\H,0,42.4352407445,52.4353389921,30.8346033557\C,0,43.1749860
 14,52.4834887541,32.842381138\H,0,43.6484532047,53.4461092329,32.70430
 7347\C,0,43.2914106091,51.8355568556,34.0509748662\H,0,43.8446552848,5
 2.28891758,34.8603897985\C,0,42.6932863416,50.5844501659,34.206492588\
 C,0,41.7904035707,51.4351981453,37.470074921\O,0,40.5870258957,51.5038
 588357,37.3548560211\N,0,42.6176088777,52.5048234486,37.363027151\H,0,
 43.60943829,52.3491410066,37.448498277\C,0,42.195000001,53.8589998906,
 37.0150000382\H,0,41.2253297683,53.7803647615,36.5203590508\C,0,42.055
 7069125,54.7402047523,38.2621639532\H,0,41.296880059,54.3082105503,38.
 9264415503\H,0,41.7363563673,55.7404333674,37.9640342839\O,0,43.276902
 3811,54.9129235672,38.9441340549\H,0,43.5490444369,54.0596331729,39.29
 95717724\H,0,42.9273954601,54.2886453833,36.3301591618\H,0,48.82800208
 34,54.6471996983,36.0015904942\C,0,49.2299999462,55.2199999614,35.1689
 999707\H,0,49.9557957937,54.5993690497,34.6498801173\C,0,48.1044634768
 ,55.6602929033,34.2381781074\H,0,47.393661146,56.2565558236,34.8152792
 637\H,0,47.5708614561,54.7828687464,33.8676155029\C,0,48.5804153308,56
 .4920194102,33.0411105107\H,0,49.2546235174,57.2734667262,33.412247687
 8\C,0,49.3334823556,55.6430883463,32.0184357069\H,0,48.6857281964,54.8
 585892204,31.6334682074\H,0,49.6461473748,56.2652718899,31.1814221094\
 H,0,50.2141792056,55.1840448328,32.4621097679\C,0,47.3890491349,57.162
 4055028,32.3595762993\H,0,46.70508286,56.4114297873,31.9705766989\H,0,
 46.8482968666,57.7954596074,33.0597348038\H,0,47.7233301938,57.7763649
 053,31.5264497512\H,0,49.7492876648,56.0875160695,35.5721470905\O,0,41
 .2210912287,46.3758551278,27.8828331684\H,0,41.2991600846,47.347194939
 1,27.9031378014\H,0,40.7130559176,46.149213011,28.7007530457\O,0,45.00
 74289018,50.1815083653,24.2814206789\H,0,45.1380415676,49.2704439126,2
 3.9699157523\H,0,45.5036690684,50.2468938423,25.1233978282\O,0,42.4204
 63305,44.7506664436,25.9937322038\H,0,42.0443045855,45.3873783038,26.6
 34285125\H,0,42.2613776149,43.8934445953,26.3932133751\O,0,42.86799352
 56,52.3105852404,27.8276007235\H,0,43.7087735274,52.7172237515,27.5674
 453752\H,0,42.6561435878,51.7243908889,27.0674391434\O,0,42.5324475679
 ,50.7640762725,25.6457188169\H,0,43.3740682814,50.6539334175,25.182511
 2301\H,0,41.992378661,51.3661546738,25.0859638968\O,0,41.2962141405,49
 .0528418044,27.5336705081\H,0,41.6622310084,49.5360094459,26.779943534
 6\H,0,40.9800282516,49.7156482048,28.1596434917\O,0,40.5783055804,51.2
 961770299,29.0110695714\H,0,41.4880971664,51.6150234451,28.9379455374\
 H,0,40.0386139344,52.0935937242,29.2293206583\O,0,46.6628549104,48.779
 3627958,21.1097746502\H,0,46.2952820334,48.255422148,21.8361779916\H,0
 ,45.8970896445,49.3024722193,20.7568354487\O,0,47.6985479791,50.378554
 5732,23.1812556494\H,0,47.5045949699,49.8794180589,22.3717586383\H,0,4
 6.8426225635,50.6548603946,23.5326129098\O,0,38.0315024526,49.66731453
 66,28.5564845111\H,0,37.5372957232,49.1871515525,29.2484062992\H,0,38.
 8667069106,49.9199711871,28.9647156984\O,0,40.296195626,47.0694585816,
 25.3684779954\H,0,40.5029288394,46.7845421852,26.2786657307\H,0,39.946
 7964795,46.3005304069,24.9114929682\O,0,39.8241410109,51.7694544281,26
 .3389270244\H,0,40.1941096882,51.6441539576,27.2265577768\H,0,39.51924
 37191,50.8870195793,26.0713108271\O,0,44.4611805755,49.8977886726,20.2
 062579273\H,0,44.1351196388,50.5519525674,20.8588034171\H,0,43.9133657
 928,49.1077802587,20.3086331786\O,0,41.4008555812,54.56876419,27.66125
 51608\H,0,41.5861105859,55.0389866741,28.4836630908\H,0,41.8731090973,
 53.7107027612,27.7419713029\O,0,41.5181301269,52.3434583419,23.7432855
 695\H,0,42.1301814213,52.0503925955,23.0481275196\H,0,40.6801753939,51
 .863875119,23.5996908074\O,0,38.7472441446,49.2882198165,25.811527118\
 H,0,39.3680694437,48.5376546586,25.7415936277\H,0,38.4146513152,49.274
 5745049,26.7261274159\O,0,39.2426328914,53.5839362425,29.1293013418\H,
 0,39.7464900821,53.986093797,28.3987915838\H,0,38.4252254682,53.227080
 5376,28.7077851464\O,0,49.7904441281,44.2785273464,21.8445436015\H,0,4
 8.8245471857,44.3701926578,21.8032403642\H,0,49.9949713384,43.47063077
 97,22.383580769\O,0,43.73175092,51.5134835387,22.2662508707\H,0,44.164
 8089385,52.3795595153,22.4105128179\H,0,44.1133153104,50.9631665114,22
 .9704569871\O,0,44.8585754283,53.6834337476,23.4064383207\H,0,44.13663
 24278,54.3116832702,23.5174119852\H,0,44.9423477634,53.2695320878,24.2
 887360376\O,0,50.5465331961,42.2574556009,23.3365182059\H,0,50.0977177
 568,41.7697406182,24.0477483142\H,0,51.2222050083,42.7978608579,23.780
 1305024\O,0,42.5656933855,54.5037037548,25.1455949075\H,0,42.064235882
 5,53.8085283071,24.6858741068\H,0,42.0392122472,54.7124565337,25.93546
 42762\O,0,39.4762832593,50.6183888036,23.3530073067\H,0,39.230088307,5
 0.2257893078,24.203428253\H,0,38.6494969417,50.7715663223,22.885521958
 9\O,0,37.466294215,52.2679590469,27.6623292163\H,0,38.1533870851,52.22
 44495213,26.9702557249\H,0,37.4174940853,51.364775487,28.0173556021\O,
 0,46.8808665716,54.937797997,25.2006901167\H,0,46.530780132,54.6875163
 657,24.337167244\H,0,47.8153996778,54.6922650081,25.2003735653\O,0,44.
 7740279595,53.333214026,26.1372295585\H,0,43.9824375232,53.8536841156,
 25.8657632064\H,0,45.5116524697,53.9584373196,26.1853302501\O,0,49.844
 4674702,52.1046155195,23.3782082784\H,0,49.1021551994,51.4810597915,23
 .2854524896\H,0,49.4891129939,52.8792647733,23.8369024928\O,0,41.27200
 7358,54.988030337,30.4866047018\H,0,40.4132154553,54.6023560766,30.256
 2086947\H,0,41.5947573511,54.4802427816,31.2340758367\C,0,42.699000487
 ,42.5506427125,31.0947536498\O,0,42.3298444997,41.5025900387,31.677163
 6201\C,0,42.7709542587,43.8161540337,31.7210909254\C,0,43.1167991771,4
 4.9501833301,31.0512917642\C,0,43.6390051764,44.8952174992,29.64834596
 11\C,0,44.1030935908,43.4875085062,29.2810973932\C,0,43.0225673576,42.
 4829456964,29.6279611657\C,0,42.8766457397,46.2859504313,31.6441033193
 \C,0,43.856480763,47.384080971,31.2285715507\C,0,44.1569301244,47.3233
 572432,29.7324307606\C,0,44.7525834593,45.9359201951,29.4437348341\C,0
 ,45.1345849714,48.4057392725,29.3011892384\C,0,45.5820559995,48.247909
 7189,27.8417833438\C,0,46.3197623266,46.9282310462,27.6919826324\C,0,4
 5.3849204835,45.7785753036,28.0551525893\C,0,44.6922210896,49.86678126
 99,29.3625168705\C,0,45.729795948,50.5883122758,28.4826951747\C,0,46.4
 762291596,49.4936122704,27.6999430594\C,0,44.42908311,48.3146627645,26
 .8420806848\O,0,46.7128364571,49.9131929453,26.3626313595\H,0,42.45878
 74363,43.8655788827,32.7537049337\H,0,42.8020167753,45.1699706077,28.9
 924232205\H,0,45.0156981368,43.2473323705,29.8341088635\H,0,44.3225388
 807,43.4237095638,28.2152216609\H,0,42.1030899964,42.7176526044,29.080
 952532\H,0,43.3368952239,41.4708012068,29.3656114408\H,0,42.8270637694
 ,46.216901631,32.7313603687\H,0,41.8654232235,46.5738781075,31.3129844
 295\H,0,44.7900274039,47.2705037666,31.7880011227\H,0,43.435107874,48.
 3543479105,31.4886930557\H,0,43.2177978004,47.4419099059,29.1909528416
 \H,0,45.5378443558,45.7527986287,30.1880494093\H,0,46.0329283849,48.30
 76729871,29.9220800642\H,0,47.1954221815,46.9191999338,28.3448073696\H
 ,0,46.6626007801,46.8019893307,26.6620441589\H,0,44.6009778094,45.6982
 16162,27.3022626773\H,0,45.9657419979,44.8547121254,28.0370780841\H,0,
 44.687115658,50.2540578477,30.3788080012\H,0,43.6878652058,49.97133085
 01,28.959717563\H,0,46.4323221102,51.1485781185,29.0947675666\H,0,45.2
 727519349,51.2758058626,27.775424026\H,0,47.443841886,49.2884669554,28
 .1738653393\H,0,44.0457804587,49.3233213822,26.7816603786\H,0,44.77966
 77188,48.0014961659,25.8618831069\H,0,43.6137256486,47.6638077311,27.1
 2773173\H,0,47.2684118391,49.2536043218,25.9327398346\\Version=ES64L-G
 16RevC.01\State=1-A\HF=-19281.436166\RMSD=1.455e-09\Dipole=28.2901608,
 0.5191169,-21.1543398\Quadrupole=-300.268961,177.2889128,122.9800483,2
 6.0512316,160.9883966,126.1909563\PG=C01 [X(C246H453N38O74S5)]\\@
 The archive entry for this job was punched.


 THE FIRST AND LAST THING REQUIRED OF GENIUS IS THE LOVE OF TRUTH.

                          -- GOETHE
 Job cpu time:       2 days 13 hours 19 minutes 53.5 seconds.
 Elapsed time:       0 days  0 hours 59 minutes  8.8 seconds.
 File lengths (MBytes):  RWF=  21730 Int=      0 D2E=      0 Chk=   2327 Scr=      1
 Normal termination of Gaussian 16 at Tue May 19 15:42:38 2026.
