 Entering Gaussian System, Link 0=g16
 Initial command:
 /cm/shared/apps/spack/cpu/opt/spack/linux-centos8-zen/gcc-8.3.1/gaussian-16.C.01-po5bqktfeugvmjyga3v7eigbecnokxng/g16/l1.exe "/scratch/hklem/job_32994898/Gau-3713991.inp" -scrdir="/scratch/hklem/job_32994898/"
 Entering Link 1 = /cm/shared/apps/spack/cpu/opt/spack/linux-centos8-zen/gcc-8.3.1/gaussian-16.C.01-po5bqktfeugvmjyga3v7eigbecnokxng/g16/l1.exe PID=   3713992.
  
 Copyright (c) 1988-2019, Gaussian, Inc.  All Rights Reserved.
  
 This is part of the Gaussian(R) 16 program.  It is based on
 the Gaussian(R) 09 system (copyright 2009, Gaussian, Inc.),
 the Gaussian(R) 03 system (copyright 2003, Gaussian, Inc.),
 the Gaussian(R) 98 system (copyright 1998, Gaussian, Inc.),
 the Gaussian(R) 94 system (copyright 1995, Gaussian, Inc.),
 the Gaussian 92(TM) system (copyright 1992, Gaussian, Inc.),
 the Gaussian 90(TM) system (copyright 1990, Gaussian, Inc.),
 the Gaussian 88(TM) system (copyright 1988, Gaussian, Inc.),
 the Gaussian 86(TM) system (copyright 1986, Carnegie Mellon
 University), and the Gaussian 82(TM) system (copyright 1983,
 Carnegie Mellon University). Gaussian is a federally registered
 trademark of Gaussian, Inc.
  
 This software contains proprietary and confidential information,
 including trade secrets, belonging to Gaussian, Inc.
  
 This software is provided under written license and may be
 used, copied, transmitted, or stored only in accord with that
 written license.
  
 The following legend is applicable only to US Government
 contracts under FAR:
  
                    RESTRICTED RIGHTS LEGEND
  
 Use, reproduction and disclosure by the US Government is
 subject to restrictions as set forth in subparagraphs (a)
 and (c) of the Commercial Computer Software - Restricted
 Rights clause in FAR 52.227-19.
  
 Gaussian, Inc.
 340 Quinnipiac St., Bldg. 40, Wallingford CT 06492
  
  
 ---------------------------------------------------------------
 Warning -- This program may not be used in any manner that
 competes with the business of Gaussian, Inc. or will provide
 assistance to any competitor of Gaussian, Inc.  The licensee
 of this program is prohibited from giving any competitor of
 Gaussian, Inc. access to this program.  By using this program,
 the user acknowledges that Gaussian, Inc. is engaged in the
 business of creating and licensing software in the field of
 computational chemistry and represents and warrants to the
 licensee that it is not a competitor of Gaussian, Inc. and that
 it will not use this program in any manner prohibited above.
 ---------------------------------------------------------------
  

 Cite this work as:
 Gaussian 16, Revision C.01,
 M. J. Frisch, G. W. Trucks, H. B. Schlegel, G. E. Scuseria, 
 M. A. Robb, J. R. Cheeseman, G. Scalmani, V. Barone, 
 G. A. Petersson, H. Nakatsuji, X. Li, M. Caricato, A. V. Marenich, 
 J. Bloino, B. G. Janesko, R. Gomperts, B. Mennucci, H. P. Hratchian, 
 J. V. Ortiz, A. F. Izmaylov, J. L. Sonnenberg, D. Williams-Young, 
 F. Ding, F. Lipparini, F. Egidi, J. Goings, B. Peng, A. Petrone, 
 T. Henderson, D. Ranasinghe, V. G. Zakrzewski, J. Gao, N. Rega, 
 G. Zheng, W. Liang, M. Hada, M. Ehara, K. Toyota, R. Fukuda, 
 J. Hasegawa, M. Ishida, T. Nakajima, Y. Honda, O. Kitao, H. Nakai, 
 T. Vreven, K. Throssell, J. A. Montgomery, Jr., J. E. Peralta, 
 F. Ogliaro, M. J. Bearpark, J. J. Heyd, E. N. Brothers, K. N. Kudin, 
 V. N. Staroverov, T. A. Keith, R. Kobayashi, J. Normand, 
 K. Raghavachari, A. P. Rendell, J. C. Burant, S. S. Iyengar, 
 J. Tomasi, M. Cossi, J. M. Millam, M. Klene, C. Adamo, R. Cammi, 
 J. W. Ochterski, R. L. Martin, K. Morokuma, O. Farkas, 
 J. B. Foresman, and D. J. Fox, Gaussian, Inc., Wallingford CT, 2019.
 
 ******************************************
 Gaussian 16:  ES64L-G16RevC.01  3-Jul-2019
                12-Aug-2024 
 ******************************************
 %nprocshared=24
 Will use up to   24 processors via shared memory.
 %mem=48GB
 --------------------------
 # wb97xd 6-31G(d) prop=efg
 --------------------------
 1/38=1,172=1/1;
 2/12=2,17=6,18=5,40=1/2;
 3/5=1,6=6,7=1,11=2,25=1,30=1,74=-58/1,2,3;
 4//1;
 5/5=2,38=5/2;
 6/7=2,8=2,9=2,10=2,14=1,28=1/1,2;
 99/5=1,9=1/99;
 ----------------------------------------------------
 19nt_mm_min_distance_cutoff3_nowat_xtb_ligand_conf_1
 ----------------------------------------------------
 Symbolic Z-matrix:
 Charge =  0 Multiplicity = 1
 C                     42.5817   42.3968   31.0934 
 O                     42.6039   41.2143   31.4991 
 C                     42.9529   43.496    31.9061 
 C                     42.9117   44.7882   31.4792 
 C                     42.5886   45.1498   30.0772 
 C                     42.7756   43.9466   29.151 
 C                     42.0731   42.7224   29.7176 
 C                     43.0419   45.89     32.4559 
 C                     43.8492   47.073    31.9323 
 C                     43.2654   47.5282   30.6 
 C                     43.362    46.3872   29.5752 
 C                     43.9906   48.7374   30.0251 
 C                     43.335    49.2351   28.7287 
 C                     43.4567   48.1258   27.6881 
 C                     42.8298   46.8263   28.203 
 C                     44.1226   49.9986   30.879 
 C                     44.4062   51.1135   29.8571 
 C                     44.1885   50.4963   28.4528 
 C                     41.8686   49.6433   28.8982 
 O                     43.6617   51.4068   27.521 
 H                     43.2179   43.2799   32.9329 
 H                     41.5115   45.4434   30.0882 
 H                     43.8453   43.7359   29.041 
 H                     42.3676   44.1589   28.1634 
 H                     41.0054   42.9442   29.8238 
 H                     42.174    41.8582   29.0582 
 H                     43.435    45.5286   33.4061 
 H                     42.0022   46.2259   32.6148 
 H                     44.897    46.7827   31.8052 
 H                     43.8087   47.8882   32.6561 
 H                     42.214    47.7663   30.7674 
 H                     44.422    46.1154   29.4673 
 H                     45.0077   48.4141   29.7612 
 H                     44.5127   47.953    27.4639 
 H                     42.9716   48.4201   26.755 
 H                     41.7473   46.9328   28.2766 
 H                     43.0384   46.0482   27.4664 
 H                     44.9271   49.9131   31.6056 
 H                     43.2008   50.1887   31.4256 
 H                     45.4208   51.5001   29.9528 
 H                     43.7248   51.955    29.9944 
 H                     45.1481   50.194    28.0197 
 H                     41.7647   50.4507   29.6188 
 H                     41.4654   49.9661   27.9378 
 H                     41.2634   48.8103   29.2388 
 H                     42.7878   51.6671   27.8351 
 
                          Input orientation:                          
 ---------------------------------------------------------------------
 Center     Atomic      Atomic             Coordinates (Angstroms)
 Number     Number       Type             X           Y           Z
 ---------------------------------------------------------------------
      1          6           0       42.581700   42.396800   31.093400
      2          8           0       42.603900   41.214300   31.499100
      3          6           0       42.952900   43.496000   31.906100
      4          6           0       42.911700   44.788200   31.479200
      5          6           0       42.588600   45.149800   30.077200
      6          6           0       42.775600   43.946600   29.151000
      7          6           0       42.073100   42.722400   29.717600
      8          6           0       43.041900   45.890000   32.455900
      9          6           0       43.849200   47.073000   31.932300
     10          6           0       43.265400   47.528200   30.600000
     11          6           0       43.362000   46.387200   29.575200
     12          6           0       43.990600   48.737400   30.025100
     13          6           0       43.335000   49.235100   28.728700
     14          6           0       43.456700   48.125800   27.688100
     15          6           0       42.829800   46.826300   28.203000
     16          6           0       44.122600   49.998600   30.879000
     17          6           0       44.406200   51.113500   29.857100
     18          6           0       44.188500   50.496300   28.452800
     19          6           0       41.868600   49.643300   28.898200
     20          8           0       43.661700   51.406800   27.521000
     21          1           0       43.217900   43.279900   32.932900
     22          1           0       41.511500   45.443400   30.088200
     23          1           0       43.845300   43.735900   29.041000
     24          1           0       42.367600   44.158900   28.163400
     25          1           0       41.005400   42.944200   29.823800
     26          1           0       42.174000   41.858200   29.058200
     27          1           0       43.435000   45.528600   33.406100
     28          1           0       42.002200   46.225900   32.614800
     29          1           0       44.897000   46.782700   31.805200
     30          1           0       43.808700   47.888200   32.656100
     31          1           0       42.214000   47.766300   30.767400
     32          1           0       44.422000   46.115400   29.467300
     33          1           0       45.007700   48.414100   29.761200
     34          1           0       44.512700   47.953000   27.463900
     35          1           0       42.971600   48.420100   26.755000
     36          1           0       41.747300   46.932800   28.276600
     37          1           0       43.038400   46.048200   27.466400
     38          1           0       44.927100   49.913100   31.605600
     39          1           0       43.200800   50.188700   31.425600
     40          1           0       45.420800   51.500100   29.952800
     41          1           0       43.724800   51.955000   29.994400
     42          1           0       45.148100   50.194000   28.019700
     43          1           0       41.764700   50.450700   29.618800
     44          1           0       41.465400   49.966100   27.937800
     45          1           0       41.263400   48.810300   29.238800
     46          1           0       42.787800   51.667100   27.835100
 ---------------------------------------------------------------------
                    Distance matrix (angstroms):
                    1          2          3          4          5
     1  C    0.000000
     2  O    1.250357   0.000000
     3  C    1.416514   2.343844   0.000000
     4  C    2.444695   3.587185   1.361515   0.000000
     5  C    2.934573   4.184518   2.492518   1.483493   0.000000
     6  C    2.492468   3.606732   2.797329   2.479381   1.529871
     7  C    1.502503   2.393712   2.482345   2.841481   2.507454
     8  C    3.777650   4.792649   2.457933   1.478127   2.532112
     9  C    4.917027   6.005231   3.687678   2.510880   2.954523
    10  C    5.200207   6.411809   4.249964   2.899258   2.527482
    11  C    4.340172   5.570907   3.736241   2.526814   1.543149
    12  C    6.582513   7.790549   5.664561   4.344492   3.852167
    13  C    7.274724   8.517209   6.571084   5.245889   4.366376
    14  C    6.721840   7.938502   6.283342   5.080260   3.913818
    15  C    5.294944   6.512285   4.981867   3.859280   2.526154
    16  C    7.759362   8.936157   6.686325   5.382823   5.148485
    17  C    8.991001  10.195029   8.021022   6.698818   6.238416
    18  C    8.669283   9.896789   7.902923   6.585721   5.812350
    19  C    7.605207   8.851745   6.929103   5.596572   4.701062
    20  O    9.752361  10.992328   9.072610   7.748272   6.843665
    21  H    2.137376   2.588336   1.082240   2.117067   3.470961
    22  H    3.381941   4.590127   3.028987   2.079598   1.116453
    23  H    2.757212   3.733871   3.010436   2.814918   2.156877
    24  H    3.425746   4.455716   3.845753   3.418566   2.166415
    25  H    2.096724   2.890396   2.903999   3.126446   2.726794
    26  H    2.144376   2.560745   3.376331   3.871736   3.470574
    27  H    3.985583   4.789631   2.571747   2.129549   3.455641
    28  H    4.160827   5.169426   2.976313   2.045424   2.818026
    29  H    5.010329   6.029849   3.819961   2.832971   3.313768
    30  H    5.839780   6.879763   4.537214   3.435070   3.954517
    31  H    5.391939   6.604249   4.480856   3.140466   2.731808
    32  H    4.456332   5.608429   3.868754   2.844329   2.160027
    33  H    6.623302   7.786891   5.745477   4.526797   4.075237
    34  H    6.911830   8.083096   6.483129   5.357406   4.288290
    35  H    7.433295   8.635117   7.126075   5.959224   4.677453
    36  H    5.404247   6.619631   5.141822   4.026386   2.670025
    37  H    5.166858   6.310154   5.121716   4.207876   2.797449
    38  H    7.890375   9.004317   6.720635   5.508395   5.522102
    39  H    7.823512   8.994529   6.714504   5.408498   5.251998
    40  H    9.603725  10.776068   8.600670   7.326328   6.954361
    41  H    9.688842  10.903356   8.706613   7.364020   6.899895
    42  H    8.765293   9.960632   8.048988   6.796492   6.018995
    43  H    8.228441   9.463132   7.416968   6.069646   5.384095
    44  H    8.276366   9.516987   7.734485   6.437697   5.388447
    45  H    6.805177   8.037731   6.181479   4.890151   3.982252
    46  H    9.828401  11.077894   9.130563   7.785505   6.895063
                    6          7          8          9         10
     6  C    0.000000
     7  C    1.520923   0.000000
     8  C    3.843187   4.297738   0.000000
     9  C    4.320026   5.194916   1.524919   0.000000
    10  C    3.894530   5.029505   2.485562   1.524156   0.000000
    11  C    2.545651   3.887454   2.940766   2.502720   1.536694
    12  C    5.019167   6.320727   3.862189   2.535278   1.522692
    13  C    5.334744   6.707129   5.016734   3.898991   2.533795
    14  C    4.479920   5.935482   5.282308   4.390407   2.978739
    15  C    3.032213   4.439437   4.359909   3.873979   2.535354
    16  C    6.436389   7.648032   4.531569   3.121430   2.629736
    17  C    7.383894   8.710532   5.991663   4.576281   3.835062
    18  C    6.736642   8.155253   6.209469   4.892957   3.777856
    19  C    5.773989   6.972237   5.302935   4.442407   3.053002
    20  O    7.687435   9.097665   7.427817   6.186804   4.967981
    21  H    3.865603   3.458255   2.659159   3.973330   4.846930
    22  H    2.171797   2.802959   2.854396   3.394281   2.772092
    23  H    1.095789   2.150735   4.116690   4.415412   4.141051
    24  H    1.089444   2.136773   4.677280   4.989161   4.253851
    25  H    2.142679   1.095654   4.444437   5.438746   5.169443
    26  H    2.175304   1.091710   5.343503   6.185538   5.976387
    27  H    4.587309   4.830586   1.089962   2.174585   3.449835
    28  H    4.217969   4.546791   1.104108   2.143547   2.711287
    29  H    4.425899   5.368288   2.159102   1.094675   2.161110
    30  H    5.374870   6.191331   2.149620   1.090907   2.156924
    31  H    4.185481   5.153917   2.656492   2.124038   1.090943
    32  H    2.741236   4.134299   3.299577   2.705794   2.148659
    33  H    5.031220   6.403845   4.182925   2.802561   2.126973
    34  H    4.681353   6.195965   5.598150   4.602307   3.401667
    35  H    5.078527   6.484450   6.237516   5.421189   3.958008
    36  H    3.277097   4.462073   4.497774   4.219216   2.838541
    37  H    2.706227   4.130454   4.992009   4.653157   3.472949
    38  H    6.800966   7.963418   4.523530   3.055285   3.075748
    39  H    6.657208   7.741744   4.423301   3.222538   2.786404
    40  H    8.043341   9.397363   6.587708   5.097800   4.565151
    41  H    8.108438   9.383263   6.581000   5.254032   4.491587
    42  H    6.777802   8.256107   6.529959   5.170708   4.160408
    43  H    6.598793   7.735082   5.520902   4.594157   3.428682
    44  H    6.278762   7.483861   6.285950   5.478007   4.033691
    45  H    5.094118   6.160145   4.694779   4.118193   2.739462
    46  H    7.831849   9.168547   7.402111   6.246549   5.000327
                   11         12         13         14         15
    11  C    0.000000
    12  C    2.474063   0.000000
    13  C    2.971166   1.535633   0.000000
    14  C    2.567653   2.473999   1.525846   0.000000
    15  C    1.535897   2.884408   2.516725   1.531935   0.000000
    16  C    3.914156   1.528789   2.413925   3.759341   4.346929
    17  C    4.848477   2.418015   2.439086   3.812147   4.858103
    18  C    4.339077   2.367493   1.547646   2.596068   3.921398
    19  C    3.645649   2.567770   1.531563   2.507830   3.056583
    20  O    5.431937   3.674832   2.506303   3.291642   4.705121
    21  H    4.577142   6.231908   7.290639   7.144767   5.924486
    22  H    2.139691   4.123149   4.421581   4.091400   2.684084
    23  H    2.747424   5.099467   5.531649   4.610051   3.359175
    24  H    2.819101   5.202184   5.198388   4.141056   2.707438
    25  H    4.179667   6.520208   6.797183   6.117112   4.585426
    26  H    4.710677   7.180413   7.474968   6.542576   5.083646
    27  H    3.926617   4.694278   5.968770   6.280242   5.396531
    28  H    3.333803   4.119213   5.092486   5.477003   4.528728
    29  H    2.735972   2.794847   4.233079   4.563868   4.153440
    30  H    3.456080   2.770630   4.178876   4.986119   4.681450
    31  H    2.154336   2.156467   2.751420   3.340005   2.799814
    32  H    1.099599   2.715167   3.385207   2.852905   2.153819
    33  H    2.617489   1.099390   2.130263   2.605084   3.113253
    34  H    2.869395   2.729032   2.151854   1.093280   2.155893
    35  H    3.498374   3.439854   2.166051   1.092067   2.158011
    36  H    2.142731   3.368416   2.832979   2.166017   1.090213
    37  H    2.160249   3.832157   3.440597   2.130856   1.091574
    38  H    4.359362   2.181120   3.357234   4.550091   5.050217
    39  H    4.231001   2.165977   2.863675   4.276675   4.672101
    40  H    5.524761   3.111786   3.313489   4.513586   5.623121
    41  H    5.595333   3.228706   3.025194   4.478132   5.505788
    42  H    4.483465   2.735529   2.170139   2.692256   4.092617
    43  H    4.366383   2.838152   2.176190   3.463470   4.034254
    44  H    4.368832   3.499023   2.157612   2.722927   3.433695
    45  H    3.223151   2.839226   2.175358   2.771962   2.731803
    46  H    5.588828   3.850451   2.648126   3.606916   4.854942
                   16         17         18         19         20
    16  C    0.000000
    17  C    1.538737   0.000000
    18  C    2.477599   1.549318   0.000000
    19  C    3.021642   3.085513   2.511559   0.000000
    20  O    3.670371   2.469346   1.405269   2.867372   0.000000
    21  H    7.083637   8.499288   8.549257   7.654559   9.774054
    22  H    5.309713   6.370458   5.947492   4.379815   6.839299
    23  H    6.532729   7.443763   6.794614   6.230980   7.822200
    24  H    6.675073   7.442511   6.600157   5.555860   7.390496
    25  H    7.784275   8.848955   8.309391   6.817609   9.163756
    26  H    8.566123   9.554137   8.890528   7.792731   9.785295
    27  H    5.180727   6.688029   7.055564   6.301232   8.320999
    28  H    4.662871   6.105142   6.351257   5.050702   7.452682
    29  H    3.435048   4.774077   5.052859   5.079851   6.423600
    30  H    2.776762   4.312072   4.961266   4.578884   6.226669
    31  H    2.939111   4.103430   4.087655   2.671393   5.088044
    32  H    4.142678   5.013302   4.502890   4.392016   5.689029
    33  H    2.131553   2.767266   2.592018   3.479892   3.973219
    34  H    3.999946   3.965792   2.747982   3.450449   3.557555
    35  H    4.563315   4.351495   2.945162   2.702986   3.159647
    36  H    4.670510   5.200575   4.323082   2.783507   4.924686
    37  H    5.331697   5.765725   4.699075   4.042676   5.395005
    38  H    1.087418   2.183930   3.290258   4.093559   4.529496
    39  H    1.088405   2.183675   3.147651   2.908603   4.116078
    40  H    2.190359   1.089968   2.185447   4.144637   3.002797
    41  H    2.183635   1.091458   2.172407   3.160869   2.534208
    42  H    3.043917   2.184476   1.095351   3.439499   1.982163
    43  H    2.711492   2.733791   2.690064   1.087177   2.985549
    44  H    3.963890   3.694394   2.821633   1.090476   2.659525
    45  H    3.503903   3.945151   3.466497   1.084511   3.929948
    46  H    3.718993   2.648429   1.927248   2.463915   0.964425
                   21         22         23         24         25
    21  H    0.000000
    22  H    3.960410   0.000000
    23  H    3.968432   3.075517   0.000000
    24  H    4.923797   2.467327   1.769946   0.000000
    25  H    3.830712   2.563600   3.050344   2.467390   0.000000
    26  H    4.257259   3.788597   2.513821   2.476160   1.769510
    27  H    2.308182   3.836088   4.736688   5.522800   5.041325
    28  H    3.202816   2.690130   4.729605   4.921480   4.421860
    29  H    4.044835   4.025348   4.246159   5.152174   5.814171
    30  H    4.654255   4.224723   5.505623   6.014050   6.350083
    31  H    5.081829   2.520056   4.678218   4.451712   5.060014
    32  H    4.636842   3.050920   2.485223   3.122276   4.675121
    33  H    6.294686   4.599500   4.873953   5.256408   6.778062
    34  H    7.309195   4.710864   4.551549   4.414289   6.554263
    35  H    8.040446   4.701368   5.284967   4.528381   6.577914
    36  H    6.098153   2.357076   3.899498   2.844663   4.342024
    37  H    6.130116   3.093710   2.911560   2.122554   4.396048
    38  H    6.977280   5.826409   6.775342   7.177088   8.192686
    39  H    7.071334   5.211549   6.909437   6.906132   7.737462
    40  H    9.016954   7.210033   7.974734   8.149675   9.628906
    41  H    9.173281   6.878112   8.275089   8.122421   9.413754
    42  H    8.698850   6.330225   6.666888   6.646372   8.542619
    43  H    8.032149   5.035623   7.053459   6.486018   7.547589
    44  H    8.528045   5.008109   6.759909   5.881193   7.285305
    45  H    6.931938   3.481243   5.696917   4.900129   5.900840
    46  H    9.824341   6.740908   8.091751   7.527112   9.122547
                   26         27         28         29         30
    26  H    0.000000
    27  H    5.828052   0.000000
    28  H    5.635222   1.779129   0.000000
    29  H    6.261904   2.504614   3.057016   0.000000
    30  H    7.209579   2.503970   2.455278   1.769338   0.000000
    31  H    6.150497   3.668907   2.414659   3.040228   2.474897
    32  H    4.831627   4.102761   3.971700   2.477234   3.699649
    33  H    7.176621   4.907626   4.686607   2.617567   3.177203
    34  H    6.719963   6.507603   5.984752   4.512668   5.240110
    35  H    6.999959   7.267231   6.331785   5.647368   5.983865
    36  H    5.152139   5.579595   4.402801   4.732247   4.933779
    37  H    4.564769   5.975560   5.254647   4.776931   5.559851
    38  H    8.885394   4.969105   4.813415   3.136901   2.540588
    39  H    8.721017   5.068901   4.307508   3.823876   2.678801
    40  H   10.213141   7.178265   6.825706   5.095058   4.790879
    41  H   10.258013   7.281641   6.531189   5.604082   4.861126
    42  H    8.911190   7.328982   6.837942   5.101963   5.348543
    43  H    8.620490   6.431222   5.184723   5.295835   4.468728
    44  H    8.215562   7.312526   6.012618   6.071795   5.663133
    45  H    7.013808   5.731648   4.315359   4.888826   4.359674
    46  H    9.903900   8.314812   7.284872   6.638357   6.210021
                   31         32         33         34         35
    31  H    0.000000
    32  H    3.048113   0.000000
    33  H    3.039217   2.390281   0.000000
    34  H    4.028894   2.720039   2.394833   0.000000
    35  H    4.135307   3.843420   3.630837   1.759463   0.000000
    36  H    2.667699   3.039725   3.876660   3.057569   2.454840
    37  H    3.811575   2.433612   3.839496   2.408699   2.477188
    38  H    3.559809   4.387480   2.378089   4.600804   5.438874
    39  H    2.697225   4.681671   3.030564   4.734396   4.999498
    40  H    4.988828   5.498027   3.119416   4.427323   5.070592
    41  H    4.519431   5.904647   3.773352   4.800023   4.853508
    42  H    4.696012   4.388365   2.494109   2.394729   3.079503
    43  H    2.954176   5.087143   3.832110   4.293437   3.712317
    44  H    3.661442   5.090063   4.275673   3.682824   2.461254
    45  H    2.080912   4.158299   3.801271   3.800419   3.039649
    46  H    4.913641   6.012991   4.384042   4.111886   3.426866
                   36         37         38         39         40
    36  H    0.000000
    37  H    1.762351   0.000000
    38  H    5.484119   5.969725   0.000000
    39  H    4.757073   5.731089   1.757403   0.000000
    40  H    6.096268   6.448351   2.343940   2.969396   0.000000
    41  H    5.664260   6.461595   2.865457   2.332965   1.756440
    42  H    4.718778   4.684510   3.603668   3.923284   2.348859
    43  H    3.765292   5.063314   3.773216   2.322833   3.818359
    44  H    3.065153   4.248116   5.043702   3.902040   4.696655
    45  H    2.164485   3.731116   4.498956   3.230418   5.002879
    46  H    4.867356   5.636557   4.676515   3.904859   3.383080
                   41         42         43         44         45
    41  H    0.000000
    42  H    3.004387   0.000000
    43  H    2.499197   3.751055   0.000000
    44  H    3.645575   3.690654   1.774874   0.000000
    45  H    4.064303   4.300201   1.756876   1.751936   0.000000
    46  H    2.371378   2.788390   2.389131   2.157010   3.529232
                   46
    46  H    0.000000
 Stoichiometry    C18H26O2
 Framework group  C1[X(C18H26O2)]
 Deg. of freedom   132
 Full point group                 C1      NOp   1
 Largest Abelian subgroup         C1      NOp   1
 Largest concise Abelian subgroup C1      NOp   1
                         Standard orientation:                         
 ---------------------------------------------------------------------
 Center     Atomic      Atomic             Coordinates (Angstroms)
 Number     Number       Type             X           Y           Z
 ---------------------------------------------------------------------
      1          6           0        4.693578   -0.115595   -0.072153
      2          8           0        5.927150   -0.003046   -0.242521
      3          6           0        3.815784    0.995892   -0.047938
      4          6           0        2.474551    0.884188    0.157827
      5          6           0        1.794217   -0.430613    0.253715
      6          6           0        2.663850   -1.535352   -0.349441
      7          6           0        4.080060   -1.459863    0.199973
      8          6           0        1.671760    2.091133    0.447082
      9          6           0        0.292102    2.072384   -0.202203
     10          6           0       -0.422796    0.780592    0.176279
     11          6           0        0.373230   -0.424768   -0.348008
     12          6           0       -1.830076    0.699411   -0.399536
     13          6           0       -2.565896   -0.566444    0.063444
     14          6           0       -1.807794   -1.773116   -0.481928
     15          6           0       -0.344216   -1.745110   -0.030288
     16          6           0       -2.818274    1.828282   -0.105753
     17          6           0       -4.196390    1.195707   -0.367201
     18          6           0       -3.959237   -0.322585   -0.564523
     19          6           0       -2.707950   -0.673877    1.584616
     20          8           0       -5.007154   -1.117759   -0.070209
     21          1           0        4.263735    1.977144   -0.135840
     22          1           0        1.665042   -0.617761    1.346764
     23          1           0        2.688217   -1.423921   -1.439277
     24          1           0        2.249738   -2.515878   -0.117129
     25          1           0        4.043814   -1.571798    1.289291
     26          1           0        4.710837   -2.256087   -0.200002
     27          1           0        2.219829    2.998168    0.192275
     28          1           0        1.537255    2.062188    1.542584
     29          1           0        0.390672    2.143837   -1.290087
     30          1           0       -0.282807    2.932717    0.143319
     31          1           0       -0.460214    0.734045    1.265586
     32          1           0        0.457708   -0.327944   -1.440073
     33          1           0       -1.732946    0.626917   -1.492225
     34          1           0       -1.848620   -1.763709   -1.574405
     35          1           0       -2.274693   -2.702339   -0.148521
     36          1           0       -0.277420   -1.918146    1.044031
     37          1           0        0.168845   -2.567405   -0.532417
     38          1           0       -2.650052    2.690497   -0.746663
     39          1           0       -2.724914    2.159329    0.926873
     40          1           0       -4.677786    1.625803   -1.245442
     41          1           0       -4.867550    1.352245    0.479155
     42          1           0       -3.920107   -0.563578   -1.632317
     43          1           0       -3.267608    0.165995    1.988785
     44          1           0       -3.220624   -1.601965    1.839484
     45          1           0       -1.739055   -0.696167    2.071351
     46          1           0       -5.050271   -0.977343    0.882965
 ---------------------------------------------------------------------
 Rotational constants (GHZ):           0.9428832           0.1751897           0.1556892
 Standard basis: 6-31G(d) (6D, 7F)
 There are   352 symmetry adapted cartesian basis functions of A   symmetry.
 There are   352 symmetry adapted basis functions of A   symmetry.
   352 basis functions,   664 primitive gaussians,   352 cartesian basis functions
    75 alpha electrons       75 beta electrons
       nuclear repulsion energy      1670.8200339992 Hartrees.
 NAtoms=   46 NActive=   46 NUniq=   46 SFac= 1.00D+00 NAtFMM=   60 NAOKFM=F Big=F
 Integral buffers will be    131072 words long.
 Raffenetti 2 integral format.
 Two-electron integral symmetry is turned on.
 Nuclear repulsion after empirical dispersion term =     1670.7708716573 Hartrees.
 One-electron integrals computed using PRISM.
 NBasis=   352 RedAO= T EigKep=  1.20D-03  NBF=   352
 NBsUse=   352 1.00D-06 EigRej= -1.00D+00 NBFU=   352
 ExpMin= 1.61D-01 ExpMax= 5.48D+03 ExpMxC= 8.25D+02 IAcc=3 IRadAn=         5 AccDes= 0.00D+00
 Harris functional with IExCor= 4639 and IRadAn=       5 diagonalized for initial guess.
 HarFok:  IExCor= 4639 AccDes= 0.00D+00 IRadAn=         5 IDoV= 1 UseB2=F ITyADJ=14
 ICtDFT=  3500011 ScaDFX=  1.000000  1.000000  1.000000  1.000000
 FoFCou: FMM=F IPFlag=           0 FMFlag=      100000 FMFlg1=           0
         NFxFlg=           0 DoJE=T BraDBF=F KetDBF=T FulRan=T
         wScrn=  0.000000 ICntrl=       500 IOpCl=  0 I1Cent=   200000004 NGrid=           0
         NMat0=    1 NMatS0=      1 NMatT0=    0 NMatD0=    1 NMtDS0=    0 NMtDT0=    0
 Petite list used in FoFCou.
 Requested convergence on RMS density matrix=1.00D-08 within 128 cycles.
 Requested convergence on MAX density matrix=1.00D-06.
 Requested convergence on             energy=1.00D-06.
 No special actions if energy rises.
 Integral accuracy reduced to 1.0D-05 until final iterations.
 Initial convergence to 1.0D-05 achieved.  Increase integral accuracy.
 SCF Done:  E(RwB97XD) =  -851.789798407     A.U. after   15 cycles
            NFock= 15  Conv=0.39D-08     -V/T= 2.0088

 **********************************************************************

            Population analysis using the SCF Density.

 **********************************************************************

 Orbital symmetries:
       Occupied  (A) (A) (A) (A) (A) (A) (A) (A) (A) (A) (A) (A)
                 (A) (A) (A) (A) (A) (A) (A) (A) (A) (A) (A) (A)
                 (A) (A) (A) (A) (A) (A) (A) (A) (A) (A) (A) (A)
                 (A) (A) (A) (A) (A) (A) (A) (A) (A) (A) (A) (A)
                 (A) (A) (A) (A) (A) (A) (A) (A) (A) (A) (A) (A)
                 (A) (A) (A) (A) (A) (A) (A) (A) (A) (A) (A) (A)
                 (A) (A) (A)
       Virtual   (A) (A) (A) (A) (A) (A) (A) (A) (A) (A) (A) (A)
                 (A) (A) (A) (A) (A) (A) (A) (A) (A) (A) (A) (A)
                 (A) (A) (A) (A) (A) (A) (A) (A) (A) (A) (A) (A)
                 (A) (A) (A) (A) (A) (A) (A) (A) (A) (A) (A) (A)
                 (A) (A) (A) (A) (A) (A) (A) (A) (A) (A) (A) (A)
                 (A) (A) (A) (A) (A) (A) (A) (A) (A) (A) (A) (A)
                 (A) (A) (A) (A) (A) (A) (A) (A) (A) (A) (A) (A)
                 (A) (A) (A) (A) (A) (A) (A) (A) (A) (A) (A) (A)
                 (A) (A) (A) (A) (A) (A) (A) (A) (A) (A) (A) (A)
                 (A) (A) (A) (A) (A) (A) (A) (A) (A) (A) (A) (A)
                 (A) (A) (A) (A) (A) (A) (A) (A) (A) (A) (A) (A)
                 (A) (A) (A) (A) (A) (A) (A) (A) (A) (A) (A) (A)
                 (A) (A) (A) (A) (A) (A) (A) (A) (A) (A) (A) (A)
                 (A) (A) (A) (A) (A) (A) (A) (A) (A) (A) (A) (A)
                 (A) (A) (A) (A) (A) (A) (A) (A) (A) (A) (A) (A)
                 (A) (A) (A) (A) (A) (A) (A) (A) (A) (A) (A) (A)
                 (A) (A) (A) (A) (A) (A) (A) (A) (A) (A) (A) (A)
                 (A) (A) (A) (A) (A) (A) (A) (A) (A) (A) (A) (A)
                 (A) (A) (A) (A) (A) (A) (A) (A) (A) (A) (A) (A)
                 (A) (A) (A) (A) (A) (A) (A) (A) (A) (A) (A) (A)
                 (A) (A) (A) (A) (A) (A) (A) (A) (A) (A) (A) (A)
                 (A) (A) (A) (A) (A) (A) (A) (A) (A) (A) (A) (A)
                 (A) (A) (A) (A) (A) (A) (A) (A) (A) (A) (A) (A)
                 (A)
 The electronic state is 1-A.
 Alpha  occ. eigenvalues --  -19.26639 -19.23389 -10.36566 -10.34098 -10.33011
 Alpha  occ. eigenvalues --  -10.31640 -10.30906 -10.30779 -10.30375 -10.30275
 Alpha  occ. eigenvalues --  -10.30171 -10.30155 -10.29880 -10.29741 -10.29518
 Alpha  occ. eigenvalues --  -10.29417 -10.29327 -10.29248 -10.29159 -10.29100
 Alpha  occ. eigenvalues --   -1.12527  -1.10009  -0.98668  -0.96064  -0.91157
 Alpha  occ. eigenvalues --   -0.90441  -0.87414  -0.84695  -0.82907  -0.81822
 Alpha  occ. eigenvalues --   -0.78196  -0.77888  -0.73805  -0.72054  -0.69887
 Alpha  occ. eigenvalues --   -0.68104  -0.66709  -0.65718  -0.63533  -0.61056
 Alpha  occ. eigenvalues --   -0.59574  -0.57992  -0.56593  -0.55883  -0.55490
 Alpha  occ. eigenvalues --   -0.54309  -0.53375  -0.53129  -0.51148  -0.51082
 Alpha  occ. eigenvalues --   -0.50359  -0.49789  -0.49550  -0.48621  -0.48415
 Alpha  occ. eigenvalues --   -0.47882  -0.47174  -0.46781  -0.45137  -0.44688
 Alpha  occ. eigenvalues --   -0.43898  -0.43482  -0.43271  -0.42333  -0.41820
 Alpha  occ. eigenvalues --   -0.41715  -0.41067  -0.40520  -0.39883  -0.39360
 Alpha  occ. eigenvalues --   -0.37286  -0.36228  -0.33477  -0.32423  -0.30854
 Alpha virt. eigenvalues --    0.02034   0.13024   0.14564   0.14825   0.16632
 Alpha virt. eigenvalues --    0.17128   0.18092   0.18533   0.19261   0.20205
 Alpha virt. eigenvalues --    0.20633   0.21151   0.22258   0.22880   0.23281
 Alpha virt. eigenvalues --    0.23375   0.23803   0.24542   0.24794   0.25222
 Alpha virt. eigenvalues --    0.25595   0.26207   0.26375   0.26701   0.27168
 Alpha virt. eigenvalues --    0.27622   0.28443   0.28881   0.29836   0.30286
 Alpha virt. eigenvalues --    0.30708   0.30854   0.32126   0.32470   0.33469
 Alpha virt. eigenvalues --    0.33675   0.34589   0.35217   0.35945   0.36086
 Alpha virt. eigenvalues --    0.37348   0.37969   0.38907   0.39077   0.41134
 Alpha virt. eigenvalues --    0.42030   0.42473   0.45110   0.45206   0.50310
 Alpha virt. eigenvalues --    0.52202   0.58083   0.58474   0.59341   0.59996
 Alpha virt. eigenvalues --    0.61453   0.61581   0.62307   0.62930   0.65364
 Alpha virt. eigenvalues --    0.65632   0.66094   0.66532   0.68327   0.69117
 Alpha virt. eigenvalues --    0.70552   0.71489   0.72340   0.73226   0.73517
 Alpha virt. eigenvalues --    0.73929   0.74616   0.75386   0.75680   0.76452
 Alpha virt. eigenvalues --    0.77155   0.77686   0.78850   0.80240   0.81313
 Alpha virt. eigenvalues --    0.82956   0.83537   0.84955   0.85185   0.86454
 Alpha virt. eigenvalues --    0.86884   0.87052   0.88702   0.89649   0.90050
 Alpha virt. eigenvalues --    0.91182   0.91937   0.93032   0.94072   0.94564
 Alpha virt. eigenvalues --    0.95004   0.95487   0.96082   0.96357   0.96819
 Alpha virt. eigenvalues --    0.97129   0.97634   0.98030   0.98425   0.98948
 Alpha virt. eigenvalues --    0.99263   1.00479   1.00871   1.01398   1.02941
 Alpha virt. eigenvalues --    1.03556   1.03986   1.04308   1.04736   1.04856
 Alpha virt. eigenvalues --    1.05760   1.06042   1.06724   1.07298   1.08499
 Alpha virt. eigenvalues --    1.09483   1.10563   1.10898   1.13127   1.14269
 Alpha virt. eigenvalues --    1.14559   1.15847   1.16687   1.19178   1.20768
 Alpha virt. eigenvalues --    1.21370   1.24639   1.27058   1.27862   1.29272
 Alpha virt. eigenvalues --    1.30422   1.31369   1.33076   1.35919   1.39533
 Alpha virt. eigenvalues --    1.40595   1.42702   1.43198   1.44740   1.48572
 Alpha virt. eigenvalues --    1.51709   1.53049   1.53776   1.57112   1.58063
 Alpha virt. eigenvalues --    1.61013   1.61378   1.63823   1.66407   1.69254
 Alpha virt. eigenvalues --    1.69275   1.70771   1.74031   1.74875   1.77440
 Alpha virt. eigenvalues --    1.78664   1.79711   1.81133   1.82891   1.83419
 Alpha virt. eigenvalues --    1.84658   1.86436   1.87151   1.88134   1.89768
 Alpha virt. eigenvalues --    1.90134   1.91945   1.93494   1.94064   1.95690
 Alpha virt. eigenvalues --    1.96907   1.97060   1.97526   1.98558   1.99563
 Alpha virt. eigenvalues --    2.00544   2.01846   2.02130   2.02562   2.04105
 Alpha virt. eigenvalues --    2.05496   2.05949   2.07117   2.07524   2.08270
 Alpha virt. eigenvalues --    2.09103   2.10005   2.11566   2.11879   2.12441
 Alpha virt. eigenvalues --    2.13783   2.14699   2.15440   2.17004   2.19659
 Alpha virt. eigenvalues --    2.19850   2.20849   2.22122   2.23843   2.24387
 Alpha virt. eigenvalues --    2.27329   2.27528   2.29916   2.31006   2.33073
 Alpha virt. eigenvalues --    2.34533   2.36079   2.37190   2.38275   2.39692
 Alpha virt. eigenvalues --    2.41082   2.41445   2.43377   2.44566   2.46733
 Alpha virt. eigenvalues --    2.48354   2.49609   2.51095   2.52690   2.53626
 Alpha virt. eigenvalues --    2.54802   2.57682   2.58983   2.60965   2.62742
 Alpha virt. eigenvalues --    2.62991   2.64961   2.65951   2.66158   2.67137
 Alpha virt. eigenvalues --    2.69381   2.71683   2.71992   2.76406   2.77699
 Alpha virt. eigenvalues --    2.79508   2.80185   2.82044   2.83336   2.84753
 Alpha virt. eigenvalues --    2.87301   2.90599   2.94102   2.97742   2.99446
 Alpha virt. eigenvalues --    3.01512   3.02838   3.07576   3.08815   3.10069
 Alpha virt. eigenvalues --    3.21748   3.28734   4.00141   4.08812   4.25910
 Alpha virt. eigenvalues --    4.27328   4.31129   4.35129   4.36586   4.38082
 Alpha virt. eigenvalues --    4.42622   4.43052   4.48639   4.54469   4.56467
 Alpha virt. eigenvalues --    4.65480   4.68916   4.74530   4.77797   4.81546
 Alpha virt. eigenvalues --    4.87057   4.91946
          Condensed to atoms (all electrons):
               1          2          3          4          5          6
     1  C    4.433611   0.528737   0.362522   0.002371  -0.023023  -0.025160
     2  O    0.528737   8.114331  -0.061748   0.005480   0.000327   0.002235
     3  C    0.362522  -0.061748   5.309573   0.516108  -0.044789   0.003215
     4  C    0.002371   0.005480   0.516108   4.871004   0.374949  -0.045688
     5  C   -0.023023   0.000327  -0.044789   0.374949   5.113915   0.348490
     6  C   -0.025160   0.002235   0.003215  -0.045688   0.348490   5.146124
     7  C    0.342128  -0.076877  -0.138691   0.000287  -0.035479   0.290033
     8  C    0.004087  -0.000099  -0.034342   0.361976  -0.071880   0.005601
     9  C   -0.000154   0.000000   0.002088  -0.035355  -0.011805  -0.000370
    10  C   -0.000012   0.000000   0.000543  -0.014512  -0.042284   0.004134
    11  C   -0.000153   0.000001   0.003558  -0.031799   0.363535  -0.049243
    12  C   -0.000000   0.000000   0.000002   0.000219   0.004152  -0.000136
    13  C   -0.000000   0.000000   0.000000   0.000006   0.000047  -0.000008
    14  C    0.000000  -0.000000   0.000001  -0.000097   0.003651   0.000171
    15  C   -0.000003  -0.000000  -0.000120   0.004511  -0.044939  -0.004650
    16  C   -0.000000  -0.000000   0.000000   0.000001  -0.000120   0.000001
    17  C    0.000000  -0.000000  -0.000000   0.000000   0.000002  -0.000000
    18  C    0.000000   0.000000  -0.000000  -0.000000   0.000005   0.000000
    19  C   -0.000000   0.000000   0.000000   0.000001   0.000046   0.000000
    20  O   -0.000000   0.000000   0.000000   0.000000  -0.000000  -0.000000
    21  H   -0.029627   0.000537   0.359174  -0.045223   0.004925  -0.000416
    22  H    0.000962   0.000006  -0.004271  -0.046142   0.365030  -0.031384
    23  H   -0.002768   0.000102   0.003715  -0.004697  -0.042205   0.386428
    24  H    0.003555  -0.000070  -0.000282   0.004915  -0.031724   0.377955
    25  H   -0.029634  -0.000183   0.002554  -0.002463  -0.003402  -0.040645
    26  H   -0.024885   0.003004   0.005802  -0.000181   0.004199  -0.030649
    27  H    0.000276  -0.000002  -0.003196  -0.039153   0.004520  -0.000149
    28  H   -0.000079   0.000003  -0.007539  -0.044706  -0.000029   0.000193
    29  H   -0.000001  -0.000000  -0.000083  -0.003687   0.000379   0.000012
    30  H    0.000002  -0.000000  -0.000074   0.004485   0.000014   0.000012
    31  H    0.000004   0.000000  -0.000207  -0.004403  -0.000542   0.000110
    32  H    0.000028  -0.000000  -0.000053  -0.003536  -0.040487  -0.004992
    33  H    0.000000   0.000000  -0.000002  -0.000081   0.000283  -0.000003
    34  H    0.000000   0.000000  -0.000000   0.000002   0.000049  -0.000020
    35  H    0.000000  -0.000000  -0.000000   0.000001  -0.000096   0.000000
    36  H    0.000002  -0.000000  -0.000011   0.000138  -0.004183  -0.000891
    37  H   -0.000010  -0.000000   0.000013  -0.000062  -0.006369   0.001729
    38  H    0.000000  -0.000000   0.000000  -0.000001   0.000001  -0.000000
    39  H    0.000000   0.000000  -0.000000  -0.000001   0.000002   0.000000
    40  H    0.000000   0.000000   0.000000   0.000000  -0.000000   0.000000
    41  H    0.000000  -0.000000   0.000000  -0.000000  -0.000000   0.000000
    42  H    0.000000  -0.000000  -0.000000   0.000000   0.000000  -0.000000
    43  H   -0.000000  -0.000000   0.000000   0.000000  -0.000003   0.000000
    44  H    0.000000   0.000000  -0.000000  -0.000000  -0.000002  -0.000000
    45  H    0.000000  -0.000000  -0.000000   0.000002   0.000047   0.000002
    46  H   -0.000000   0.000000  -0.000000   0.000000  -0.000000   0.000000
               7          8          9         10         11         12
     1  C    0.342128   0.004087  -0.000154  -0.000012  -0.000153  -0.000000
     2  O   -0.076877  -0.000099   0.000000   0.000000   0.000001   0.000000
     3  C   -0.138691  -0.034342   0.002088   0.000543   0.003558   0.000002
     4  C    0.000287   0.361976  -0.035355  -0.014512  -0.031799   0.000219
     5  C   -0.035479  -0.071880  -0.011805  -0.042284   0.363535   0.004152
     6  C    0.290033   0.005601  -0.000370   0.004134  -0.049243  -0.000136
     7  C    5.354399  -0.000181   0.000049  -0.000109   0.004697   0.000002
     8  C   -0.000181   5.155708   0.334485  -0.043736  -0.016056   0.004264
     9  C    0.000049   0.334485   5.106247   0.370676  -0.044203  -0.044529
    10  C   -0.000109  -0.043736   0.370676   5.025873   0.373947   0.367133
    11  C    0.004697  -0.016056  -0.044203   0.373947   5.051962  -0.037873
    12  C    0.000002   0.004264  -0.044529   0.367133  -0.037873   5.104195
    13  C    0.000000  -0.000143   0.004448  -0.028437  -0.012600   0.359395
    14  C   -0.000001  -0.000010  -0.000067  -0.011886  -0.038247  -0.052011
    15  C    0.000162   0.000283   0.004694  -0.042848   0.364257  -0.018146
    16  C   -0.000000   0.000090  -0.004772  -0.034067   0.004390   0.353325
    17  C    0.000000  -0.000001   0.000186   0.004341  -0.000195  -0.053320
    18  C    0.000000   0.000002  -0.000133   0.004052   0.000110  -0.065304
    19  C    0.000000  -0.000003   0.000231  -0.007739  -0.002101  -0.059837
    20  O    0.000000  -0.000000   0.000000  -0.000062  -0.000002   0.002834
    21  H    0.006852  -0.008368   0.000259  -0.000001  -0.000094  -0.000000
    22  H   -0.005615   0.000354  -0.000713  -0.004813  -0.044587  -0.000006
    23  H   -0.042246  -0.000020  -0.000039   0.000126  -0.003835  -0.000002
    24  H   -0.031086  -0.000124  -0.000009  -0.000015  -0.007742  -0.000003
    25  H    0.367230  -0.000067  -0.000002   0.000001   0.000058   0.000000
    26  H    0.367952   0.000009   0.000000   0.000001  -0.000066  -0.000000
    27  H    0.000007   0.379597  -0.031556   0.004252  -0.000130  -0.000119
    28  H   -0.000110   0.379952  -0.043461  -0.006244  -0.000935   0.000020
    29  H   -0.000005  -0.036131   0.380109  -0.039026  -0.006818  -0.003501
    30  H   -0.000000  -0.032375   0.379512  -0.032280   0.004760  -0.007720
    31  H   -0.000007  -0.000507  -0.049917   0.380872  -0.048882  -0.042059
    32  H   -0.000063   0.000101  -0.005370  -0.045409   0.377881  -0.005285
    33  H    0.000000   0.000040  -0.004679  -0.044458  -0.007177   0.383918
    34  H   -0.000000   0.000000  -0.000016  -0.000379  -0.003988  -0.006373
    35  H   -0.000000  -0.000000   0.000011  -0.000099   0.004152   0.006224
    36  H   -0.000059  -0.000007   0.000011  -0.004656  -0.046118  -0.000560
    37  H    0.000014  -0.000011  -0.000134   0.004638  -0.032326   0.000087
    38  H    0.000000  -0.000000   0.001510  -0.001487  -0.000099  -0.026064
    39  H   -0.000000  -0.000045  -0.000996  -0.003990   0.000085  -0.039906
    40  H   -0.000000  -0.000000  -0.000007  -0.000060   0.000004   0.001178
    41  H   -0.000000  -0.000000   0.000002  -0.000160   0.000002   0.003545
    42  H   -0.000000  -0.000000   0.000005  -0.000226  -0.000008  -0.003046
    43  H    0.000000   0.000000  -0.000041  -0.000147   0.000059  -0.005142
    44  H    0.000000  -0.000000   0.000000   0.000106   0.000027   0.005724
    45  H   -0.000000   0.000012  -0.000048   0.000935  -0.000320  -0.005440
    46  H    0.000000  -0.000000   0.000000  -0.000009   0.000001   0.000167
              13         14         15         16         17         18
     1  C   -0.000000   0.000000  -0.000003  -0.000000   0.000000   0.000000
     2  O    0.000000  -0.000000  -0.000000  -0.000000  -0.000000   0.000000
     3  C    0.000000   0.000001  -0.000120   0.000000  -0.000000  -0.000000
     4  C    0.000006  -0.000097   0.004511   0.000001   0.000000  -0.000000
     5  C    0.000047   0.003651  -0.044939  -0.000120   0.000002   0.000005
     6  C   -0.000008   0.000171  -0.004650   0.000001  -0.000000   0.000000
     7  C    0.000000  -0.000001   0.000162  -0.000000   0.000000   0.000000
     8  C   -0.000143  -0.000010   0.000283   0.000090  -0.000001   0.000002
     9  C    0.004448  -0.000067   0.004694  -0.004772   0.000186  -0.000133
    10  C   -0.028437  -0.011886  -0.042848  -0.034067   0.004341   0.004052
    11  C   -0.012600  -0.038247   0.364257   0.004390  -0.000195   0.000110
    12  C    0.359395  -0.052011  -0.018146   0.353325  -0.053320  -0.065304
    13  C    5.093723   0.378485  -0.039477  -0.053901  -0.089156   0.355228
    14  C    0.378485   5.095966   0.352812   0.005932   0.006792  -0.039145
    15  C   -0.039477   0.352812   5.109288   0.000249  -0.000223   0.004170
    16  C   -0.053901   0.005932   0.000249   5.137211   0.314357  -0.060098
    17  C   -0.089156   0.006792  -0.000223   0.314357   5.239852   0.344592
    18  C    0.355228  -0.039145   0.004170  -0.060098   0.344592   4.817893
    19  C    0.335766  -0.065948  -0.004778  -0.002891  -0.008398  -0.048092
    20  O   -0.046998   0.001314   0.000013   0.003357  -0.048723   0.269744
    21  H   -0.000000  -0.000000   0.000002  -0.000000  -0.000000  -0.000000
    22  H   -0.000020   0.000102  -0.008130   0.000001   0.000000  -0.000000
    23  H    0.000000  -0.000038  -0.000825   0.000000   0.000000  -0.000000
    24  H   -0.000002   0.000011   0.002644   0.000000   0.000000   0.000000
    25  H    0.000000  -0.000000  -0.000027   0.000000   0.000000  -0.000000
    26  H   -0.000000  -0.000000  -0.000001   0.000000  -0.000000  -0.000000
    27  H    0.000001  -0.000000   0.000009  -0.000002  -0.000000  -0.000000
    28  H    0.000005   0.000001  -0.000015  -0.000009  -0.000000   0.000000
    29  H    0.000014  -0.000011   0.000083  -0.000622  -0.000018  -0.000002
    30  H    0.000014  -0.000005  -0.000140   0.004434   0.000014  -0.000009
    31  H   -0.010184   0.000376  -0.003758  -0.002982  -0.000045   0.000105
    32  H   -0.001135  -0.000476  -0.042785   0.000006   0.000002  -0.000060
    33  H   -0.051236  -0.006176  -0.001274  -0.045000  -0.001551  -0.002586
    34  H   -0.037019   0.379735  -0.037747   0.000036   0.000096  -0.006000
    35  H   -0.034087   0.377280  -0.034911  -0.000243   0.000066  -0.003856
    36  H   -0.006946  -0.035502   0.381182  -0.000020   0.000001  -0.000051
    37  H    0.004723  -0.033900   0.380842   0.000009   0.000003  -0.000078
    38  H    0.004758  -0.000152  -0.000004   0.377789  -0.028065   0.002438
    39  H   -0.004797  -0.000009  -0.000022   0.385078  -0.033098   0.001941
    40  H    0.004448  -0.000139   0.000003  -0.028749   0.376848  -0.024229
    41  H   -0.000599  -0.000111   0.000003  -0.029525   0.372773  -0.033773
    42  H   -0.050649  -0.007661   0.000089   0.003606  -0.048216   0.395213
    43  H   -0.034897   0.005292   0.000009   0.002482   0.003448  -0.004120
    44  H   -0.030043  -0.004907  -0.000217  -0.000337   0.000783  -0.006994
    45  H   -0.030379  -0.005070   0.002094  -0.000068  -0.000168   0.004989
    46  H   -0.015443  -0.000174  -0.000004   0.000049  -0.004621  -0.029125
              19         20         21         22         23         24
     1  C   -0.000000  -0.000000  -0.029627   0.000962  -0.002768   0.003555
     2  O    0.000000   0.000000   0.000537   0.000006   0.000102  -0.000070
     3  C    0.000000   0.000000   0.359174  -0.004271   0.003715  -0.000282
     4  C    0.000001   0.000000  -0.045223  -0.046142  -0.004697   0.004915
     5  C    0.000046  -0.000000   0.004925   0.365030  -0.042205  -0.031724
     6  C    0.000000  -0.000000  -0.000416  -0.031384   0.386428   0.377955
     7  C    0.000000   0.000000   0.006852  -0.005615  -0.042246  -0.031086
     8  C   -0.000003  -0.000000  -0.008368   0.000354  -0.000020  -0.000124
     9  C    0.000231   0.000000   0.000259  -0.000713  -0.000039  -0.000009
    10  C   -0.007739  -0.000062  -0.000001  -0.004813   0.000126  -0.000015
    11  C   -0.002101  -0.000002  -0.000094  -0.044587  -0.003835  -0.007742
    12  C   -0.059837   0.002834  -0.000000  -0.000006  -0.000002  -0.000003
    13  C    0.335766  -0.046998  -0.000000  -0.000020   0.000000  -0.000002
    14  C   -0.065948   0.001314  -0.000000   0.000102  -0.000038   0.000011
    15  C   -0.004778   0.000013   0.000002  -0.008130  -0.000825   0.002644
    16  C   -0.002891   0.003357  -0.000000   0.000001   0.000000   0.000000
    17  C   -0.008398  -0.048723  -0.000000   0.000000   0.000000   0.000000
    18  C   -0.048092   0.269744  -0.000000  -0.000000  -0.000000   0.000000
    19  C    5.263910  -0.002635   0.000000  -0.000072  -0.000000  -0.000001
    20  O   -0.002635   8.257761   0.000000  -0.000000   0.000000   0.000000
    21  H    0.000000   0.000000   0.535572  -0.000217  -0.000099   0.000013
    22  H   -0.000072  -0.000000  -0.000217   0.595844   0.005227  -0.003229
    23  H   -0.000000   0.000000  -0.000099   0.005227   0.553111  -0.029429
    24  H   -0.000001   0.000000   0.000013  -0.003229  -0.029429   0.549845
    25  H   -0.000000   0.000000  -0.000187   0.005456   0.005164  -0.004321
    26  H    0.000000   0.000000  -0.000112  -0.000147  -0.002583  -0.003106
    27  H    0.000000   0.000000   0.005624  -0.000101   0.000001   0.000002
    28  H   -0.000010  -0.000000   0.000163   0.002386   0.000003   0.000011
    29  H   -0.000004  -0.000000  -0.000000   0.000099  -0.000004   0.000002
    30  H   -0.000006   0.000000  -0.000010  -0.000009   0.000000   0.000000
    31  H    0.002012  -0.000001  -0.000002   0.004909   0.000006  -0.000001
    32  H    0.000035   0.000000  -0.000010   0.005796   0.005263   0.000060
    33  H    0.006576   0.000041  -0.000000   0.000000  -0.000004  -0.000000
    34  H    0.006004  -0.000078   0.000000   0.000003  -0.000000   0.000011
    35  H   -0.006280   0.002500   0.000000  -0.000005   0.000000   0.000004
    36  H    0.001954  -0.000002  -0.000000   0.006778   0.000095   0.000704
    37  H    0.000066   0.000001   0.000000   0.000060   0.000628   0.002542
    38  H    0.000111  -0.000043  -0.000000   0.000000   0.000000  -0.000000
    39  H    0.001705  -0.000010   0.000000  -0.000001  -0.000000  -0.000000
    40  H    0.000130   0.002484   0.000000  -0.000000  -0.000000  -0.000000
    41  H    0.000521  -0.000806   0.000000   0.000000   0.000000   0.000000
    42  H    0.006233  -0.041047   0.000000  -0.000000  -0.000000   0.000000
    43  H    0.376146  -0.000790   0.000000   0.000001   0.000000   0.000000
    44  H    0.370210   0.005575   0.000000   0.000001   0.000000   0.000000
    45  H    0.378136   0.000356  -0.000000   0.000018  -0.000000  -0.000000
    46  H    0.013063   0.242968   0.000000   0.000000   0.000000   0.000000
              25         26         27         28         29         30
     1  C   -0.029634  -0.024885   0.000276  -0.000079  -0.000001   0.000002
     2  O   -0.000183   0.003004  -0.000002   0.000003  -0.000000  -0.000000
     3  C    0.002554   0.005802  -0.003196  -0.007539  -0.000083  -0.000074
     4  C   -0.002463  -0.000181  -0.039153  -0.044706  -0.003687   0.004485
     5  C   -0.003402   0.004199   0.004520  -0.000029   0.000379   0.000014
     6  C   -0.040645  -0.030649  -0.000149   0.000193   0.000012   0.000012
     7  C    0.367230   0.367952   0.000007  -0.000110  -0.000005  -0.000000
     8  C   -0.000067   0.000009   0.379597   0.379952  -0.036131  -0.032375
     9  C   -0.000002   0.000000  -0.031556  -0.043461   0.380109   0.379512
    10  C    0.000001   0.000001   0.004252  -0.006244  -0.039026  -0.032280
    11  C    0.000058  -0.000066  -0.000130  -0.000935  -0.006818   0.004760
    12  C    0.000000  -0.000000  -0.000119   0.000020  -0.003501  -0.007720
    13  C    0.000000  -0.000000   0.000001   0.000005   0.000014   0.000014
    14  C   -0.000000  -0.000000  -0.000000   0.000001  -0.000011  -0.000005
    15  C   -0.000027  -0.000001   0.000009  -0.000015   0.000083  -0.000140
    16  C    0.000000   0.000000  -0.000002  -0.000009  -0.000622   0.004434
    17  C    0.000000  -0.000000  -0.000000  -0.000000  -0.000018   0.000014
    18  C   -0.000000  -0.000000  -0.000000   0.000000  -0.000002  -0.000009
    19  C   -0.000000   0.000000   0.000000  -0.000010  -0.000004  -0.000006
    20  O    0.000000   0.000000   0.000000  -0.000000  -0.000000   0.000000
    21  H   -0.000187  -0.000112   0.005624   0.000163  -0.000000  -0.000010
    22  H    0.005456  -0.000147  -0.000101   0.002386   0.000099  -0.000009
    23  H    0.005164  -0.002583   0.000001   0.000003  -0.000004   0.000000
    24  H   -0.004321  -0.003106   0.000002   0.000011   0.000002   0.000000
    25  H    0.539956  -0.021144   0.000000   0.000013   0.000000   0.000000
    26  H   -0.021144   0.508374  -0.000000  -0.000001  -0.000000   0.000000
    27  H    0.000000  -0.000000   0.527043  -0.023268  -0.002188  -0.002297
    28  H    0.000013  -0.000001  -0.023268   0.560248   0.005152  -0.004448
    29  H    0.000000  -0.000000  -0.002188   0.005152   0.561732  -0.029747
    30  H    0.000000   0.000000  -0.002297  -0.004448  -0.029747   0.550440
    31  H   -0.000001  -0.000000   0.000073   0.006147   0.005679  -0.002855
    32  H    0.000011  -0.000003  -0.000011   0.000109   0.004996   0.000022
    33  H   -0.000000   0.000000   0.000004   0.000002   0.003646  -0.000027
    34  H   -0.000000   0.000000  -0.000000  -0.000000  -0.000007   0.000001
    35  H    0.000000   0.000000   0.000000  -0.000000   0.000000  -0.000000
    36  H    0.000000   0.000000  -0.000000  -0.000006  -0.000000   0.000004
    37  H    0.000013   0.000002  -0.000000   0.000000  -0.000002   0.000002
    38  H    0.000000  -0.000000   0.000001   0.000003   0.000323   0.000153
    39  H   -0.000000   0.000000   0.000001   0.000001   0.000091   0.001023
    40  H   -0.000000   0.000000   0.000000   0.000000  -0.000000   0.000003
    41  H   -0.000000   0.000000   0.000000  -0.000000  -0.000000   0.000001
    42  H   -0.000000   0.000000   0.000000  -0.000000  -0.000001  -0.000000
    43  H    0.000000  -0.000000  -0.000000   0.000000   0.000000  -0.000001
    44  H    0.000000  -0.000000   0.000000   0.000000   0.000000  -0.000000
    45  H    0.000000   0.000000  -0.000000  -0.000009  -0.000001   0.000003
    46  H    0.000000   0.000000  -0.000000   0.000000  -0.000000  -0.000000
              31         32         33         34         35         36
     1  C    0.000004   0.000028   0.000000   0.000000   0.000000   0.000002
     2  O    0.000000  -0.000000   0.000000   0.000000  -0.000000  -0.000000
     3  C   -0.000207  -0.000053  -0.000002  -0.000000  -0.000000  -0.000011
     4  C   -0.004403  -0.003536  -0.000081   0.000002   0.000001   0.000138
     5  C   -0.000542  -0.040487   0.000283   0.000049  -0.000096  -0.004183
     6  C    0.000110  -0.004992  -0.000003  -0.000020   0.000000  -0.000891
     7  C   -0.000007  -0.000063   0.000000  -0.000000  -0.000000  -0.000059
     8  C   -0.000507   0.000101   0.000040   0.000000  -0.000000  -0.000007
     9  C   -0.049917  -0.005370  -0.004679  -0.000016   0.000011   0.000011
    10  C    0.380872  -0.045409  -0.044458  -0.000379  -0.000099  -0.004656
    11  C   -0.048882   0.377881  -0.007177  -0.003988   0.004152  -0.046118
    12  C   -0.042059  -0.005285   0.383918  -0.006373   0.006224  -0.000560
    13  C   -0.010184  -0.001135  -0.051236  -0.037019  -0.034087  -0.006946
    14  C    0.000376  -0.000476  -0.006176   0.379735   0.377280  -0.035502
    15  C   -0.003758  -0.042785  -0.001274  -0.037747  -0.034911   0.381182
    16  C   -0.002982   0.000006  -0.045000   0.000036  -0.000243  -0.000020
    17  C   -0.000045   0.000002  -0.001551   0.000096   0.000066   0.000001
    18  C    0.000105  -0.000060  -0.002586  -0.006000  -0.003856  -0.000051
    19  C    0.002012   0.000035   0.006576   0.006004  -0.006280   0.001954
    20  O   -0.000001   0.000000   0.000041  -0.000078   0.002500  -0.000002
    21  H   -0.000002  -0.000010  -0.000000   0.000000   0.000000  -0.000000
    22  H    0.004909   0.005796   0.000000   0.000003  -0.000005   0.006778
    23  H    0.000006   0.005263  -0.000004  -0.000000   0.000000   0.000095
    24  H   -0.000001   0.000060  -0.000000   0.000011   0.000004   0.000704
    25  H   -0.000001   0.000011  -0.000000  -0.000000   0.000000   0.000000
    26  H   -0.000000  -0.000003   0.000000   0.000000   0.000000   0.000000
    27  H    0.000073  -0.000011   0.000004  -0.000000   0.000000  -0.000000
    28  H    0.006147   0.000109   0.000002  -0.000000  -0.000000  -0.000006
    29  H    0.005679   0.004996   0.003646  -0.000007   0.000000  -0.000000
    30  H   -0.002855   0.000022  -0.000027   0.000001  -0.000000   0.000004
    31  H    0.611046   0.005821   0.005873   0.000036  -0.000020   0.002098
    32  H    0.005821   0.596556   0.005708   0.003043  -0.000067   0.005528
    33  H    0.005873   0.005708   0.612831   0.005121   0.000053   0.000101
    34  H    0.000036   0.003043   0.005121   0.571461  -0.029287   0.004949
    35  H   -0.000020  -0.000067   0.000053  -0.029287   0.555568  -0.004088
    36  H    0.002098   0.005528   0.000101   0.004949  -0.004088   0.578665
    37  H   -0.000041  -0.004677  -0.000112  -0.004593  -0.002042  -0.030793
    38  H   -0.000126  -0.000002  -0.006467  -0.000002   0.000003   0.000000
    39  H    0.003463   0.000005   0.005292  -0.000005   0.000005  -0.000005
    40  H    0.000001  -0.000000   0.000432  -0.000013  -0.000000   0.000000
    41  H   -0.000006  -0.000000  -0.000059  -0.000001  -0.000000  -0.000000
    42  H   -0.000009  -0.000008   0.003627   0.005472  -0.000042   0.000001
    43  H    0.000273   0.000002  -0.000055  -0.000149  -0.000024  -0.000039
    44  H   -0.000014   0.000003  -0.000113   0.000023   0.004929   0.000337
    45  H    0.003939  -0.000017  -0.000020  -0.000039  -0.000156   0.002337
    46  H   -0.000003  -0.000000   0.000003   0.000011  -0.000060  -0.000002
              37         38         39         40         41         42
     1  C   -0.000010   0.000000   0.000000   0.000000   0.000000   0.000000
     2  O   -0.000000  -0.000000   0.000000   0.000000  -0.000000  -0.000000
     3  C    0.000013   0.000000  -0.000000   0.000000   0.000000  -0.000000
     4  C   -0.000062  -0.000001  -0.000001   0.000000  -0.000000   0.000000
     5  C   -0.006369   0.000001   0.000002  -0.000000  -0.000000   0.000000
     6  C    0.001729  -0.000000   0.000000   0.000000   0.000000  -0.000000
     7  C    0.000014   0.000000  -0.000000  -0.000000  -0.000000  -0.000000
     8  C   -0.000011  -0.000000  -0.000045  -0.000000  -0.000000  -0.000000
     9  C   -0.000134   0.001510  -0.000996  -0.000007   0.000002   0.000005
    10  C    0.004638  -0.001487  -0.003990  -0.000060  -0.000160  -0.000226
    11  C   -0.032326  -0.000099   0.000085   0.000004   0.000002  -0.000008
    12  C    0.000087  -0.026064  -0.039906   0.001178   0.003545  -0.003046
    13  C    0.004723   0.004758  -0.004797   0.004448  -0.000599  -0.050649
    14  C   -0.033900  -0.000152  -0.000009  -0.000139  -0.000111  -0.007661
    15  C    0.380842  -0.000004  -0.000022   0.000003   0.000003   0.000089
    16  C    0.000009   0.377789   0.385078  -0.028749  -0.029525   0.003606
    17  C    0.000003  -0.028065  -0.033098   0.376848   0.372773  -0.048216
    18  C   -0.000078   0.002438   0.001941  -0.024229  -0.033773   0.395213
    19  C    0.000066   0.000111   0.001705   0.000130   0.000521   0.006233
    20  O    0.000001  -0.000043  -0.000010   0.002484  -0.000806  -0.041047
    21  H    0.000000  -0.000000   0.000000   0.000000   0.000000   0.000000
    22  H    0.000060   0.000000  -0.000001  -0.000000   0.000000  -0.000000
    23  H    0.000628   0.000000  -0.000000  -0.000000   0.000000  -0.000000
    24  H    0.002542  -0.000000  -0.000000  -0.000000   0.000000   0.000000
    25  H    0.000013   0.000000  -0.000000  -0.000000  -0.000000  -0.000000
    26  H    0.000002  -0.000000   0.000000   0.000000   0.000000   0.000000
    27  H   -0.000000   0.000001   0.000001   0.000000   0.000000   0.000000
    28  H    0.000000   0.000003   0.000001   0.000000  -0.000000  -0.000000
    29  H   -0.000002   0.000323   0.000091  -0.000000  -0.000000  -0.000001
    30  H    0.000002   0.000153   0.001023   0.000003   0.000001  -0.000000
    31  H   -0.000041  -0.000126   0.003463   0.000001  -0.000006  -0.000009
    32  H   -0.004677  -0.000002   0.000005  -0.000000  -0.000000  -0.000008
    33  H   -0.000112  -0.006467   0.005292   0.000432  -0.000059   0.003627
    34  H   -0.004593  -0.000002  -0.000005  -0.000013  -0.000001   0.005472
    35  H   -0.002042   0.000003   0.000005  -0.000000  -0.000000  -0.000042
    36  H   -0.030793   0.000000  -0.000005   0.000000  -0.000000   0.000001
    37  H    0.553733  -0.000000   0.000000  -0.000000  -0.000000  -0.000007
    38  H   -0.000000   0.547518  -0.031994  -0.007043   0.002701  -0.000091
    39  H    0.000000  -0.031994   0.566606   0.003626  -0.009734  -0.000146
    40  H   -0.000000  -0.007043   0.003626   0.531394  -0.027121  -0.006343
    41  H   -0.000000   0.002701  -0.009734  -0.027121   0.558699   0.004140
    42  H   -0.000007  -0.000091  -0.000146  -0.006343   0.004140   0.577186
    43  H    0.000000  -0.000004   0.000849  -0.000031   0.000740  -0.000005
    44  H   -0.000026   0.000002   0.000031  -0.000009  -0.000081  -0.000100
    45  H   -0.000004  -0.000011   0.000113   0.000001   0.000006  -0.000094
    46  H   -0.000000   0.000001  -0.000078  -0.000254   0.005640   0.007408
              43         44         45         46
     1  C   -0.000000   0.000000   0.000000  -0.000000
     2  O   -0.000000   0.000000  -0.000000   0.000000
     3  C    0.000000  -0.000000  -0.000000  -0.000000
     4  C    0.000000  -0.000000   0.000002   0.000000
     5  C   -0.000003  -0.000002   0.000047  -0.000000
     6  C    0.000000  -0.000000   0.000002   0.000000
     7  C    0.000000   0.000000  -0.000000   0.000000
     8  C    0.000000  -0.000000   0.000012  -0.000000
     9  C   -0.000041   0.000000  -0.000048   0.000000
    10  C   -0.000147   0.000106   0.000935  -0.000009
    11  C    0.000059   0.000027  -0.000320   0.000001
    12  C   -0.005142   0.005724  -0.005440   0.000167
    13  C   -0.034897  -0.030043  -0.030379  -0.015443
    14  C    0.005292  -0.004907  -0.005070  -0.000174
    15  C    0.000009  -0.000217   0.002094  -0.000004
    16  C    0.002482  -0.000337  -0.000068   0.000049
    17  C    0.003448   0.000783  -0.000168  -0.004621
    18  C   -0.004120  -0.006994   0.004989  -0.029125
    19  C    0.376146   0.370210   0.378136   0.013063
    20  O   -0.000790   0.005575   0.000356   0.242968
    21  H    0.000000   0.000000  -0.000000   0.000000
    22  H    0.000001   0.000001   0.000018   0.000000
    23  H    0.000000   0.000000  -0.000000   0.000000
    24  H    0.000000   0.000000  -0.000000   0.000000
    25  H    0.000000   0.000000   0.000000   0.000000
    26  H   -0.000000  -0.000000   0.000000   0.000000
    27  H   -0.000000   0.000000  -0.000000  -0.000000
    28  H    0.000000   0.000000  -0.000009   0.000000
    29  H    0.000000   0.000000  -0.000001  -0.000000
    30  H   -0.000001  -0.000000   0.000003  -0.000000
    31  H    0.000273  -0.000014   0.003939  -0.000003
    32  H    0.000002   0.000003  -0.000017  -0.000000
    33  H   -0.000055  -0.000113  -0.000020   0.000003
    34  H   -0.000149   0.000023  -0.000039   0.000011
    35  H   -0.000024   0.004929  -0.000156  -0.000060
    36  H   -0.000039   0.000337   0.002337  -0.000002
    37  H    0.000000  -0.000026  -0.000004  -0.000000
    38  H   -0.000004   0.000002  -0.000011   0.000001
    39  H    0.000849   0.000031   0.000113  -0.000078
    40  H   -0.000031  -0.000009   0.000001  -0.000254
    41  H    0.000740  -0.000081   0.000006   0.005640
    42  H   -0.000005  -0.000100  -0.000094   0.007408
    43  H    0.547225  -0.029144  -0.025614   0.001287
    44  H   -0.029144   0.535528  -0.025794   0.001866
    45  H   -0.025614  -0.025794   0.525934  -0.000098
    46  H    0.001287   0.001866  -0.000098   0.372434
 Mulliken charges:
               1
     1  C    0.457223
     2  O   -0.515785
     3  C   -0.273460
     4  C    0.175331
     5  C   -0.185207
     6  C   -0.332044
     7  C   -0.403282
     8  C   -0.382456
     9  C   -0.306151
    10  C   -0.132481
    11  C   -0.117885
    12  C   -0.120002
    13  C    0.037094
    14  C   -0.306176
    15  C   -0.322355
    16  C   -0.328996
    17  C   -0.348358
    18  C    0.123170
    19  C   -0.554065
    20  O   -0.647750
    21  H    0.171245
    22  H    0.156425
    23  H    0.168926
    24  H    0.168870
    25  H    0.181621
    26  H    0.193535
    27  H    0.180760
    28  H    0.176453
    29  H    0.159541
    30  H    0.167103
    31  H    0.133730
    32  H    0.143471
    33  H    0.137528
    34  H    0.149667
    35  H    0.164569
    36  H    0.149052
    37  H    0.166079
    38  H    0.164342
    39  H    0.154920
    40  H    0.173447
    41  H    0.153204
    42  H    0.154720
    43  H    0.162393
    44  H    0.172637
    45  H    0.174426
    46  H    0.404972
 Sum of Mulliken charges =  -0.00000
 Mulliken charges with hydrogens summed into heavy atoms:
               1
     1  C    0.457223
     2  O   -0.515785
     3  C   -0.102216
     4  C    0.175331
     5  C   -0.028783
     6  C    0.005753
     7  C   -0.028126
     8  C   -0.025243
     9  C    0.020493
    10  C    0.001249
    11  C    0.025586
    12  C    0.017526
    13  C    0.037094
    14  C    0.008060
    15  C   -0.007224
    16  C   -0.009734
    17  C   -0.021707
    18  C    0.277890
    19  C   -0.044609
    20  O   -0.242779
 Electronic spatial extent (au):  <R**2>=           6862.6391
 Charge=             -0.0000 electrons
 Dipole moment (field-independent basis, Debye):
    X=             -3.9980    Y=              0.8118    Z=              1.6240  Tot=              4.3910
 Quadrupole moment (field-independent basis, Debye-Ang):
   XX=           -169.9140   YY=           -117.7993   ZZ=           -116.6507
   XY=             -6.9364   XZ=             -2.2517   YZ=             -1.2973
 Traceless Quadrupole moment (field-independent basis, Debye-Ang):
   XX=            -35.1260   YY=             16.9887   ZZ=             18.1373
   XY=             -6.9364   XZ=             -2.2517   YZ=             -1.2973
 Octapole moment (field-independent basis, Debye-Ang**2):
  XXX=           -226.3303  YYY=              0.3726  ZZZ=             -1.8170  XYY=             19.9855
  XXY=             20.0268  XXZ=             48.6383  XZZ=            -12.0784  YZZ=             -3.6966
  YYZ=              0.9226  XYZ=              8.5639
 Hexadecapole moment (field-independent basis, Debye-Ang**3):
 XXXX=          -9394.4611 YYYY=          -1387.8452 ZZZZ=           -408.0332 XXXY=           -173.3780
 XXXZ=            -83.6781 YYYX=             16.8752 YYYZ=             -4.8216 ZZZX=              2.9256
 ZZZY=             -0.0102 XXYY=          -1413.5359 XXZZ=          -1187.4345 YYZZ=           -300.1909
 XXYZ=            -42.5656 YYXZ=            -13.6387 ZZXY=              4.5532
 N-N= 1.670770871657D+03 E-N=-5.318584103135D+03  KE= 8.443386315248D+02

 **********************************************************************

            Electrostatic Properties Using The SCF Density.

 **********************************************************************

       Atomic Center    1 is at   4.693578 -0.115595 -0.072153
       Atomic Center    2 is at   5.927150 -0.003046 -0.242521
       Atomic Center    3 is at   3.815784  0.995892 -0.047938
       Atomic Center    4 is at   2.474551  0.884188  0.157827
       Atomic Center    5 is at   1.794217 -0.430613  0.253715
       Atomic Center    6 is at   2.663850 -1.535352 -0.349441
       Atomic Center    7 is at   4.080060 -1.459863  0.199973
       Atomic Center    8 is at   1.671760  2.091133  0.447082
       Atomic Center    9 is at   0.292102  2.072384 -0.202203
       Atomic Center   10 is at  -0.422796  0.780592  0.176279
       Atomic Center   11 is at   0.373230 -0.424768 -0.348008
       Atomic Center   12 is at  -1.830076  0.699411 -0.399536
       Atomic Center   13 is at  -2.565896 -0.566444  0.063444
       Atomic Center   14 is at  -1.807794 -1.773116 -0.481928
       Atomic Center   15 is at  -0.344216 -1.745110 -0.030288
       Atomic Center   16 is at  -2.818274  1.828282 -0.105753
       Atomic Center   17 is at  -4.196390  1.195707 -0.367201
       Atomic Center   18 is at  -3.959237 -0.322585 -0.564523
       Atomic Center   19 is at  -2.707950 -0.673877  1.584616
       Atomic Center   20 is at  -5.007154 -1.117759 -0.070209
       Atomic Center   21 is at   4.263735  1.977144 -0.135840
       Atomic Center   22 is at   1.665042 -0.617761  1.346764
       Atomic Center   23 is at   2.688217 -1.423921 -1.439277
       Atomic Center   24 is at   2.249738 -2.515878 -0.117129
       Atomic Center   25 is at   4.043814 -1.571798  1.289291
       Atomic Center   26 is at   4.710837 -2.256087 -0.200002
       Atomic Center   27 is at   2.219829  2.998168  0.192275
       Atomic Center   28 is at   1.537255  2.062188  1.542584
       Atomic Center   29 is at   0.390672  2.143837 -1.290087
       Atomic Center   30 is at  -0.282807  2.932717  0.143319
       Atomic Center   31 is at  -0.460214  0.734045  1.265586
       Atomic Center   32 is at   0.457708 -0.327944 -1.440073
       Atomic Center   33 is at  -1.732946  0.626917 -1.492225
       Atomic Center   34 is at  -1.848620 -1.763709 -1.574405
       Atomic Center   35 is at  -2.274693 -2.702339 -0.148521
       Atomic Center   36 is at  -0.277420 -1.918146  1.044031
       Atomic Center   37 is at   0.168845 -2.567405 -0.532417
       Atomic Center   38 is at  -2.650052  2.690497 -0.746663
       Atomic Center   39 is at  -2.724914  2.159329  0.926873
       Atomic Center   40 is at  -4.677786  1.625803 -1.245442
       Atomic Center   41 is at  -4.867550  1.352245  0.479155
       Atomic Center   42 is at  -3.920107 -0.563578 -1.632317
       Atomic Center   43 is at  -3.267608  0.165995  1.988785
       Atomic Center   44 is at  -3.220624 -1.601965  1.839484
       Atomic Center   45 is at  -1.739055 -0.696167  2.071351
       Atomic Center   46 is at  -5.050271 -0.977343  0.882965
 -----------------------------------------------------------------

              Electrostatic Properties (Atomic Units)

 -----------------------------------------------------------------
    Center     Electric         -------- Electric Field --------
               Potential          X             Y             Z
 -----------------------------------------------------------------
    1 Atom    -14.675321      0.004781     -0.003263     -0.001064
    2 Atom    -22.354407      0.102556      0.009115     -0.014459
    3 Atom    -14.749627     -0.009877      0.000901      0.001554
    4 Atom    -14.711449      0.013371      0.001468     -0.002399
    5 Atom    -14.718884     -0.002688     -0.004685     -0.002431
    6 Atom    -14.732869     -0.000040     -0.000827      0.000527
    7 Atom    -14.742791      0.001480     -0.000656     -0.002737
    8 Atom    -14.727344     -0.002159      0.002251     -0.001101
    9 Atom    -14.733252     -0.002118     -0.002051      0.000372
   10 Atom    -14.731647     -0.000768      0.000435     -0.003990
   11 Atom    -14.726244     -0.002196      0.000509      0.001863
   12 Atom    -14.737586     -0.000560     -0.001308      0.004293
   13 Atom    -14.733043     -0.000933      0.000588     -0.005350
   14 Atom    -14.742553     -0.002481      0.002194      0.001534
   15 Atom    -14.737289     -0.000419      0.000403     -0.001755
   16 Atom    -14.740432      0.001407     -0.000470     -0.001038
   17 Atom    -14.744377     -0.000503     -0.002719     -0.000808
   18 Atom    -14.693446      0.018992      0.011866     -0.006967
   19 Atom    -14.739837      0.001594     -0.000463     -0.003511
   20 Atom    -22.314319     -0.067163     -0.068175     -0.065968
   21 Atom     -1.108287      0.017087      0.032301     -0.002438
   22 Atom     -1.098892     -0.002445     -0.008432      0.023925
   23 Atom     -1.116327     -0.000581      0.001159     -0.031544
   24 Atom     -1.117529     -0.013223     -0.029697      0.004406
   25 Atom     -1.106491      0.001633     -0.007560      0.032780
   26 Atom     -1.118487      0.022161     -0.019195     -0.010453
   27 Atom     -1.108868      0.017030      0.027669     -0.005243
   28 Atom     -1.099308     -0.004326      0.008394      0.029397
   29 Atom     -1.115291      0.001266      0.004541     -0.032132
   30 Atom     -1.116574     -0.017744      0.026929      0.007735
   31 Atom     -1.115327     -0.003925     -0.000988      0.036335
   32 Atom     -1.116468      0.002613      0.003063     -0.031622
   33 Atom     -1.121352      0.002997     -0.001880     -0.032106
   34 Atom     -1.123792     -0.003109     -0.001749     -0.032997
   35 Atom     -1.126449     -0.015767     -0.028318      0.007254
   36 Atom     -1.118438      0.002508     -0.010585      0.033509
   37 Atom     -1.121089      0.015842     -0.025184     -0.011499
   38 Atom     -1.123771      0.006019      0.028649     -0.017900
   39 Atom     -1.121453      0.003031      0.012833      0.032587
   40 Atom     -1.124212     -0.016776      0.012695     -0.023991
   41 Atom     -1.119699     -0.022874      0.006067      0.022551
   42 Atom     -1.126130      0.002730     -0.006442     -0.030749
   43 Atom     -1.106629     -0.016021      0.026848      0.017902
   44 Atom     -1.108397     -0.013455     -0.028574      0.009303
   45 Atom     -1.108585      0.028246     -0.001064      0.018880
   46 Atom     -0.998691     -0.006621      0.003415      0.045457
 -----------------------------------------------------------------
 -----------------------------------------------------
    Center         ---- Electric Field Gradient ----
                     XX            YY            ZZ
 -----------------------------------------------------
    1 Atom     -493.308476   -493.216935   -493.970996
    2 Atom    -1217.204282  -1214.584241  -1217.649833
    3 Atom     -493.149926   -493.198781   -493.450782
    4 Atom     -493.227395   -493.298935   -493.883458
    5 Atom     -492.766838   -492.795274   -492.818139
    6 Atom     -492.647366   -492.609154   -492.616916
    7 Atom     -492.725354   -492.734650   -492.747027
    8 Atom     -492.619624   -492.656302   -492.661677
    9 Atom     -492.683319   -492.637261   -492.652072
   10 Atom     -492.795798   -492.813095   -492.807559
   11 Atom     -492.870623   -492.824584   -492.840084
   12 Atom     -492.923972   -492.938874   -492.934075
   13 Atom     -492.932916   -492.923671   -492.996683
   14 Atom     -492.723694   -492.682586   -492.695694
   15 Atom     -492.667415   -492.667124   -492.648737
   16 Atom     -492.670665   -492.620398   -492.607479
   17 Atom     -492.740947   -492.734042   -492.704867
   18 Atom     -492.908142   -492.826067   -492.713693
   19 Atom     -492.596332   -492.603285   -492.615308
   20 Atom    -1214.112594  -1213.459155  -1215.470248
   21 Atom       -1.692389     -1.994999     -1.601693
   22 Atom       -1.608996     -1.616304     -1.965283
   23 Atom       -1.622208     -1.622410     -2.043802
   24 Atom       -1.701610     -1.993428     -1.650648
   25 Atom       -1.605122     -1.609967     -2.032349
   26 Atom       -1.752548     -1.841479     -1.665698
   27 Atom       -1.740624     -1.932076     -1.643967
   28 Atom       -1.611643     -1.607293     -2.009044
   29 Atom       -1.627636     -1.624603     -2.050805
   30 Atom       -1.753685     -1.905625     -1.672854
   31 Atom       -1.650238     -1.650185     -2.084355
   32 Atom       -1.638073     -1.638014     -2.043738
   33 Atom       -1.652121     -1.645449     -2.053729
   34 Atom       -1.632647     -1.630642     -2.067090
   35 Atom       -1.706232     -1.946528     -1.668214
   36 Atom       -1.638507     -1.646336     -2.067657
   37 Atom       -1.734934     -1.883321     -1.722706
   38 Atom       -1.645566     -1.919251     -1.791722
   39 Atom       -1.638205     -1.674219     -2.041473
   40 Atom       -1.713005     -1.697082     -1.917972
   41 Atom       -1.790972     -1.636936     -1.896021
   42 Atom       -1.671532     -1.685469     -2.068602
   43 Atom       -1.737685     -1.886918     -1.680512
   44 Atom       -1.710866     -1.929922     -1.632210
   45 Atom       -1.986412     -1.612295     -1.709171
   46 Atom       -1.454119     -1.457101     -2.112912
 -----------------------------------------------------
 -----------------------------------------------------
    Center         ---- Electric Field Gradient ----
                     XY            XZ            YZ
 -----------------------------------------------------
    1 Atom       -0.030589     -0.080889     -0.081990
    2 Atom       -0.265492     -0.017264     -0.295119
    3 Atom       -0.009963     -0.048925     -0.008006
    4 Atom        0.006757     -0.098303      0.034566
    5 Atom       -0.014160     -0.008032     -0.001698
    6 Atom        0.025527      0.000005     -0.028472
    7 Atom       -0.007668     -0.035553      0.002372
    8 Atom        0.023212     -0.017882     -0.006878
    9 Atom       -0.004745     -0.023396      0.016137
   10 Atom       -0.001841      0.004943      0.000534
   11 Atom       -0.006716     -0.016480     -0.009201
   12 Atom        0.015182     -0.010795      0.006482
   13 Atom        0.002222      0.012858      0.008158
   14 Atom        0.004487     -0.010952     -0.021107
   15 Atom       -0.020176     -0.002496      0.021470
   16 Atom       -0.003157     -0.004831     -0.012769
   17 Atom       -0.016050      0.000030     -0.024370
   18 Atom       -0.159610      0.131018      0.119847
   19 Atom        0.004675      0.009784      0.004945
   20 Atom       -1.117029      0.801751      0.155069
   21 Atom       -0.167380      0.017381      0.033087
   22 Atom       -0.007859      0.043994      0.064160
   23 Atom        0.001535      0.007867      0.042927
   24 Atom       -0.152146      0.035952      0.084689
   25 Atom       -0.003381      0.015150      0.045474
   26 Atom        0.184403      0.091868     -0.118860
   27 Atom       -0.183501      0.052301      0.086387
   28 Atom        0.001343      0.051917      0.006718
   29 Atom       -0.004054      0.037374      0.027874
   30 Atom        0.183018      0.072913     -0.111163
   31 Atom       -0.003570      0.015895      0.020150
   32 Atom       -0.002156      0.031399      0.037673
   33 Atom        0.003060      0.036157     -0.027672
   34 Atom        0.002984     -0.016591      0.005110
   35 Atom       -0.158821      0.058298      0.114478
   36 Atom        0.001743     -0.026868      0.069206
   37 Atom        0.155910      0.095012     -0.152237
   38 Atom       -0.056775      0.040930      0.212332
   39 Atom       -0.012146     -0.035440     -0.129791
   40 Atom        0.076711     -0.159047      0.142150
   41 Atom        0.037335      0.212884     -0.046958
   42 Atom       -0.001647      0.022561     -0.085930
   43 Atom        0.183257      0.087034     -0.131048
   44 Atom       -0.179094      0.050039      0.089950
   45 Atom        0.007958     -0.184527      0.003973
   46 Atom       -0.023061      0.038791     -0.098197
 -----------------------------------------------------
 -----------------------------------------------------
    Center         ---- Electric Field Gradient ----
                   ----       Eigenvalues       ----
 -----------------------------------------------------
    1 Atom     -493.990093   -493.303114   -493.203200
    2 Atom    -1217.681931  -1217.226141  -1214.530284
    3 Atom     -493.458883   -493.199716   -493.140890
    4 Atom     -493.899931   -493.296909   -493.212949
    5 Atom     -492.820051   -492.800010   -492.760191
    6 Atom     -492.664425   -492.630457   -492.578554
    7 Atom     -492.773544   -492.736011   -492.697476
    8 Atom     -492.669214   -492.666146   -492.602243
    9 Atom     -492.696045   -492.654788   -492.621819
   10 Atom     -492.813525   -492.809056   -492.793871
   11 Atom     -492.879602   -492.835405   -492.820284
   12 Atom     -492.954684   -492.929564   -492.912673
   13 Atom     -492.999934   -492.931949   -492.921387
   14 Atom     -492.727685   -492.709024   -492.665265
   15 Atom     -492.692251   -492.661655   -492.629369
   16 Atom     -492.671381   -492.627619   -492.599542
   17 Atom     -492.759130   -492.730991   -492.689735
   18 Atom     -493.110866   -492.704703   -492.632333
   19 Atom     -492.619939   -492.605635   -492.589352
   20 Atom    -1216.014516  -1214.453117  -1212.574364
   21 Atom       -2.072281     -1.618369     -1.598432
   22 Atom       -1.982058     -1.604882     -1.603642
   23 Atom       -2.048269     -1.623132     -1.617019
   24 Atom       -2.078123     -1.636720     -1.630842
   25 Atom       -2.037739     -1.606629     -1.603070
   26 Atom       -2.046034     -1.608203     -1.605489
   27 Atom       -2.067403     -1.629382     -1.619882
   28 Atom       -2.015817     -1.608533     -1.603628
   29 Atom       -2.055914     -1.625354     -1.621777
   30 Atom       -2.072081     -1.631822     -1.628261
   31 Atom       -2.085879     -1.652285     -1.646614
   32 Atom       -2.049612     -1.636027     -1.634187
   33 Atom       -2.058833     -1.648955     -1.643511
   34 Atom       -2.067785     -1.634175     -1.628420
   35 Atom       -2.066918     -1.628201     -1.625855
   36 Atom       -2.080360     -1.638718     -1.633423
   37 Atom       -2.073572     -1.636593     -1.630797
   38 Atom       -2.088250     -1.635235     -1.633054
   39 Atom       -2.085845     -1.635367     -1.632684
   40 Atom       -2.073929     -1.628078     -1.626052
   41 Atom       -2.071054     -1.628688     -1.624186
   42 Atom       -2.088125     -1.675277     -1.662201
   43 Atom       -2.073190     -1.617709     -1.614216
   44 Atom       -2.055362     -1.610496     -1.607140
   45 Atom       -2.078755     -1.616997     -1.612126
   46 Atom       -2.129122     -1.476309     -1.418700
 -----------------------------------------------------
 -----------------------------------------------------
    Center         ---- Electric Field Gradient ----
                       ( tensor representation )
                   3XX-RR        3YY-RR        3ZZ-RR
 -----------------------------------------------------
    1 Atom        0.190326      0.281867     -0.472193
    2 Atom       -0.724830      1.895211     -1.170381
    3 Atom        0.116570      0.067716     -0.184286
    4 Atom        0.242534      0.170994     -0.413529
    5 Atom        0.026579     -0.001857     -0.024722
    6 Atom       -0.022887      0.015325      0.007563
    7 Atom        0.010323      0.001027     -0.011350
    8 Atom        0.026244     -0.010434     -0.015810
    9 Atom       -0.025768      0.020289      0.005479
   10 Atom        0.009686     -0.007611     -0.002075
   11 Atom       -0.025526      0.020513      0.005013
   12 Atom        0.008335     -0.006567     -0.001768
   13 Atom        0.018174      0.027419     -0.045592
   14 Atom       -0.023036      0.018072      0.004964
   15 Atom       -0.006323     -0.006032      0.012355
   16 Atom       -0.037817      0.012449      0.025368
   17 Atom       -0.014328     -0.007424      0.021752
   18 Atom       -0.092174     -0.010100      0.102274
   19 Atom        0.008643      0.001690     -0.010333
   20 Atom        0.234739      0.888177     -1.122916
   21 Atom        0.070638     -0.231972      0.161334
   22 Atom        0.121198      0.113891     -0.235089
   23 Atom        0.140599      0.140397     -0.280995
   24 Atom        0.080285     -0.211533      0.131247
   25 Atom        0.144024      0.139179     -0.283203
   26 Atom        0.000694     -0.088237      0.087544
   27 Atom        0.031598     -0.159854      0.128256
   28 Atom        0.131017      0.135367     -0.266384
   29 Atom        0.140045      0.143078     -0.283124
   30 Atom        0.023703     -0.128237      0.104534
   31 Atom        0.144688      0.144741     -0.289429
   32 Atom        0.135202      0.135261     -0.270462
   33 Atom        0.131646      0.138317     -0.269963
   34 Atom        0.144146      0.146151     -0.290297
   35 Atom        0.067426     -0.172870      0.105443
   36 Atom        0.145659      0.137831     -0.283490
   37 Atom        0.045386     -0.103000      0.057614
   38 Atom        0.139947     -0.133738     -0.006209
   39 Atom        0.146428      0.110413     -0.256841
   40 Atom        0.063014      0.078938     -0.141952
   41 Atom       -0.016329      0.137707     -0.121378
   42 Atom        0.137003      0.123065     -0.260068
   43 Atom        0.030686     -0.118546      0.087860
   44 Atom        0.046800     -0.172256      0.125456
   45 Atom       -0.217119      0.156997      0.060122
   46 Atom        0.220592      0.217610     -0.438202
 -----------------------------------------------------
 -----------------------------------------------------
    Center         ---- Electric Field Gradient ----
                       ( tensor representation )
                   ----       Eigenvalues       ----
 -----------------------------------------------------
    1 Atom       -0.491291      0.195688      0.295603
    2 Atom       -1.202479     -0.746689      1.949168
    3 Atom       -0.192387      0.066781      0.125606
    4 Atom       -0.430001      0.173021      0.256980
    5 Atom       -0.026634     -0.006593      0.033227
    6 Atom       -0.039946     -0.005978      0.045924
    7 Atom       -0.037867     -0.000334      0.038201
    8 Atom       -0.023346     -0.020278      0.043624
    9 Atom       -0.038494      0.002762      0.035732
   10 Atom       -0.008041     -0.003572      0.011613
   11 Atom       -0.034505      0.009692      0.024813
   12 Atom       -0.022377      0.002743      0.019634
   13 Atom       -0.048844      0.019141      0.029703
   14 Atom       -0.027027     -0.008366      0.035393
   15 Atom       -0.031160     -0.000563      0.031723
   16 Atom       -0.038533      0.005228      0.033305
   17 Atom       -0.032511     -0.004373      0.036884
   18 Atom       -0.294899      0.111264      0.183634
   19 Atom       -0.014963     -0.000660      0.015623
   20 Atom       -1.667184     -0.105785      1.772969
   21 Atom       -0.309254      0.144658      0.164595
   22 Atom       -0.251864      0.125312      0.126552
   23 Atom       -0.285462      0.139675      0.145788
   24 Atom       -0.296228      0.145175      0.151053
   25 Atom       -0.288593      0.142517      0.146076
   26 Atom       -0.292792      0.145039      0.147753
   27 Atom       -0.295181      0.142841      0.152340
   28 Atom       -0.273158      0.134127      0.139031
   29 Atom       -0.288233      0.142328      0.145905
   30 Atom       -0.294693      0.145566      0.149127
   31 Atom       -0.290953      0.142641      0.148312
   32 Atom       -0.276336      0.137248      0.139088
   33 Atom       -0.275066      0.134811      0.140255
   34 Atom       -0.290992      0.142618      0.148373
   35 Atom       -0.293260      0.145457      0.147803
   36 Atom       -0.296193      0.145449      0.150744
   37 Atom       -0.293252      0.143727      0.149524
   38 Atom       -0.302737      0.150278      0.152459
   39 Atom       -0.301213      0.149265      0.151948
   40 Atom       -0.297909      0.147942      0.149968
   41 Atom       -0.296412      0.145955      0.150456
   42 Atom       -0.279590      0.133257      0.146333
   43 Atom       -0.304818      0.150663      0.154156
   44 Atom       -0.297696      0.147170      0.150526
   45 Atom       -0.309462      0.152295      0.157167
   46 Atom       -0.454411      0.198401      0.256010
 -----------------------------------------------------
 Unable to Open any file for archive entry.
 1\1\GINC-EXP-3-01\SP\RwB97XD\6-31G(d)\C18H26O2\HKLEM\12-Aug-2024\0\\# 
 wb97xd 6-31G(d) prop=efg\\19nt_mm_min_distance_cutoff3_nowat_xtb_ligan
 d_conf_1\\0,1\C,0,42.5817,42.3968,31.0934\O,0,42.6039,41.2143,31.4991\
 C,0,42.9529,43.496,31.9061\C,0,42.9117,44.7882,31.4792\C,0,42.5886,45.
 1498,30.0772\C,0,42.7756,43.9466,29.151\C,0,42.0731,42.7224,29.7176\C,
 0,43.0419,45.89,32.4559\C,0,43.8492,47.073,31.9323\C,0,43.2654,47.5282
 ,30.6\C,0,43.362,46.3872,29.5752\C,0,43.9906,48.7374,30.0251\C,0,43.33
 5,49.2351,28.7287\C,0,43.4567,48.1258,27.6881\C,0,42.8298,46.8263,28.2
 03\C,0,44.1226,49.9986,30.879\C,0,44.4062,51.1135,29.8571\C,0,44.1885,
 50.4963,28.4528\C,0,41.8686,49.6433,28.8982\O,0,43.6617,51.4068,27.521
 \H,0,43.2179,43.2799,32.9329\H,0,41.5115,45.4434,30.0882\H,0,43.8453,4
 3.7359,29.041\H,0,42.3676,44.1589,28.1634\H,0,41.0054,42.9442,29.8238\
 H,0,42.174,41.8582,29.0582\H,0,43.435,45.5286,33.4061\H,0,42.0022,46.2
 259,32.6148\H,0,44.897,46.7827,31.8052\H,0,43.8087,47.8882,32.6561\H,0
 ,42.214,47.7663,30.7674\H,0,44.422,46.1154,29.4673\H,0,45.0077,48.4141
 ,29.7612\H,0,44.5127,47.953,27.4639\H,0,42.9716,48.4201,26.755\H,0,41.
 7473,46.9328,28.2766\H,0,43.0384,46.0482,27.4664\H,0,44.9271,49.9131,3
 1.6056\H,0,43.2008,50.1887,31.4256\H,0,45.4208,51.5001,29.9528\H,0,43.
 7248,51.955,29.9944\H,0,45.1481,50.194,28.0197\H,0,41.7647,50.4507,29.
 6188\H,0,41.4654,49.9661,27.9378\H,0,41.2634,48.8103,29.2388\H,0,42.78
 78,51.6671,27.8351\\Version=ES64L-G16RevC.01\State=1-A\HF=-851.7897984
 \RMSD=3.888e-09\Dipole=-0.3186882,1.6978952,0.0038972\Quadrupole=13.05
 43174,-19.6884992,6.6341818,-5.1588912,2.8968251,14.3519575\PG=C01 [X(
 C18H26O2)]\\@
 The archive entry for this job was punched.


 NEVER LISTEN TO CRITICISM
 OR YOU'LL BE DOIN' EVERYBODY ELSE'S THING BUT BUT YOUR OWN.

                                               -- ANDY CAPP
 Job cpu time:       0 days  0 hours 10 minutes 18.8 seconds.
 Elapsed time:       0 days  0 hours  0 minutes 26.9 seconds.
 File lengths (MBytes):  RWF=     71 Int=      0 D2E=      0 Chk=      8 Scr=      1
 Normal termination of Gaussian 16 at Mon Aug 12 07:19:57 2024.
