 Entering Gaussian System, Link 0=g16
 Initial command:
 /cm/shared/apps/spack/cpu/opt/spack/linux-centos8-zen/gcc-8.3.1/gaussian-16.C.01-po5bqktfeugvmjyga3v7eigbecnokxng/g16/l1.exe "/scratch/hklem/job_32090261/Gau-345197.inp" -scrdir="/scratch/hklem/job_32090261/"
 Entering Link 1 = /cm/shared/apps/spack/cpu/opt/spack/linux-centos8-zen/gcc-8.3.1/gaussian-16.C.01-po5bqktfeugvmjyga3v7eigbecnokxng/g16/l1.exe PID=    345230.
  
 Copyright (c) 1988-2019, Gaussian, Inc.  All Rights Reserved.
  
 This is part of the Gaussian(R) 16 program.  It is based on
 the Gaussian(R) 09 system (copyright 2009, Gaussian, Inc.),
 the Gaussian(R) 03 system (copyright 2003, Gaussian, Inc.),
 the Gaussian(R) 98 system (copyright 1998, Gaussian, Inc.),
 the Gaussian(R) 94 system (copyright 1995, Gaussian, Inc.),
 the Gaussian 92(TM) system (copyright 1992, Gaussian, Inc.),
 the Gaussian 90(TM) system (copyright 1990, Gaussian, Inc.),
 the Gaussian 88(TM) system (copyright 1988, Gaussian, Inc.),
 the Gaussian 86(TM) system (copyright 1986, Carnegie Mellon
 University), and the Gaussian 82(TM) system (copyright 1983,
 Carnegie Mellon University). Gaussian is a federally registered
 trademark of Gaussian, Inc.
  
 This software contains proprietary and confidential information,
 including trade secrets, belonging to Gaussian, Inc.
  
 This software is provided under written license and may be
 used, copied, transmitted, or stored only in accord with that
 written license.
  
 The following legend is applicable only to US Government
 contracts under FAR:
  
                    RESTRICTED RIGHTS LEGEND
  
 Use, reproduction and disclosure by the US Government is
 subject to restrictions as set forth in subparagraphs (a)
 and (c) of the Commercial Computer Software - Restricted
 Rights clause in FAR 52.227-19.
  
 Gaussian, Inc.
 340 Quinnipiac St., Bldg. 40, Wallingford CT 06492
  
  
 ---------------------------------------------------------------
 Warning -- This program may not be used in any manner that
 competes with the business of Gaussian, Inc. or will provide
 assistance to any competitor of Gaussian, Inc.  The licensee
 of this program is prohibited from giving any competitor of
 Gaussian, Inc. access to this program.  By using this program,
 the user acknowledges that Gaussian, Inc. is engaged in the
 business of creating and licensing software in the field of
 computational chemistry and represents and warrants to the
 licensee that it is not a competitor of Gaussian, Inc. and that
 it will not use this program in any manner prohibited above.
 ---------------------------------------------------------------
  

 Cite this work as:
 Gaussian 16, Revision C.01,
 M. J. Frisch, G. W. Trucks, H. B. Schlegel, G. E. Scuseria, 
 M. A. Robb, J. R. Cheeseman, G. Scalmani, V. Barone, 
 G. A. Petersson, H. Nakatsuji, X. Li, M. Caricato, A. V. Marenich, 
 J. Bloino, B. G. Janesko, R. Gomperts, B. Mennucci, H. P. Hratchian, 
 J. V. Ortiz, A. F. Izmaylov, J. L. Sonnenberg, D. Williams-Young, 
 F. Ding, F. Lipparini, F. Egidi, J. Goings, B. Peng, A. Petrone, 
 T. Henderson, D. Ranasinghe, V. G. Zakrzewski, J. Gao, N. Rega, 
 G. Zheng, W. Liang, M. Hada, M. Ehara, K. Toyota, R. Fukuda, 
 J. Hasegawa, M. Ishida, T. Nakajima, Y. Honda, O. Kitao, H. Nakai, 
 T. Vreven, K. Throssell, J. A. Montgomery, Jr., J. E. Peralta, 
 F. Ogliaro, M. J. Bearpark, J. J. Heyd, E. N. Brothers, K. N. Kudin, 
 V. N. Staroverov, T. A. Keith, R. Kobayashi, J. Normand, 
 K. Raghavachari, A. P. Rendell, J. C. Burant, S. S. Iyengar, 
 J. Tomasi, M. Cossi, J. M. Millam, M. Klene, C. Adamo, R. Cammi, 
 J. W. Ochterski, R. L. Martin, K. Morokuma, O. Farkas, 
 J. B. Foresman, and D. J. Fox, Gaussian, Inc., Wallingford CT, 2019.
 
 ******************************************
 Gaussian 16:  ES64L-G16RevC.01  3-Jul-2019
                11-Jul-2024 
 ******************************************
 %nprocshared=32
 Will use up to   32 processors via shared memory.
 %mem=64GB
 --------------------------
 # wb97xd/6-31G(d) prop=efg
 --------------------------
 1/38=1,172=1/1;
 2/12=2,17=6,18=5,40=1/2;
 3/5=1,6=6,7=1,11=2,25=1,30=1,74=-58/1,2,3;
 4//1;
 5/5=2,38=5/2;
 6/7=2,8=2,9=2,10=2,14=1,28=1/1,2;
 99/5=1,9=1/99;
 --------------------------------------
 19nt_xstal_distance_cutoff6_xtb_conf_1
 --------------------------------------
 Symbolic Z-matrix:
 Charge = -1 Multiplicity = 1
 H                     46.9472   33.6413   30.8312 
 C                     46.309    34.451    30.471 
 H                     45.8954   34.1735   29.5006 
 C                     45.1614   34.6988   31.4628 
 H                     44.5203   33.8137   31.4838 
 H                     45.5686   34.8448   32.4662 
 C                     44.3639   35.9122   31.0718 
 C                     43.3407   35.8492   30.139 
 H                     43.0978   34.9027   29.674 
 C                     42.6186   36.9814   29.7959 
 H                     41.8307   36.9207   29.0579 
 C                     42.9171   38.2067   30.3812 
 O                     42.2201   39.3353   30.1146 
 H                     41.4547   39.1574   29.5427 
 C                     43.9662   38.2842   31.2944 
 H                     44.1938   39.2427   31.7294 
 C                     44.67     37.1486   31.6286 
 H                     45.474    37.2143   32.3446 
 C                     47.1427   35.7138   30.2484 
 O                     47.0542   36.3755   29.2331 
 N                     47.9869   36.033    31.2536 
 H                     48.0563   35.4348   32.0615 
 C                     48.938    37.126    31.156 
 H                     48.5161   37.8483   30.4554 
 C                     49.2537   37.7846   32.5008 
 H                     49.6368   37.0076   33.1763 
 C                     50.3611   38.8186   32.297 
 H                     50.0674   39.5555   31.5548 
 H                     50.5676   39.3328   33.2322 
 H                     51.2769   38.339    31.9562 
 C                     48.0249   38.406    33.1772 
 H                     47.332    37.6055   33.4456 
 H                     48.346    38.8651   34.1144 
 C                     47.2973   39.4488   32.34 
 H                     46.884    39.0106   31.4367 
 H                     46.4808   39.8767   32.9153 
 H                     47.9659   40.2595   32.0658 
 H                     49.8741   36.7457   30.7219 
 H                     47.7886   38.0749   26.9096 
 C                     48.106    39.077    26.631 
 H                     47.3677   39.499    25.952 
 C                     48.2337   39.9462   27.8795 
 H                     48.9681   39.4823   28.5484 
 C                     48.7183   41.3521   27.5311 
 H                     48.0554   41.8122   26.8018 
 H                     48.7333   41.9805   28.4191 
 H                     49.7248   41.3299   27.1181 
 C                     46.8905   40.0022   28.6007 
 H                     46.5696   38.9993   28.8761 
 H                     46.9631   40.6076   29.501 
 H                     46.1354   40.4396   27.9503 
 H                     49.0575   39.0088   26.1063 
 H                     43.4856   34.4649   24.4872 
 C                     42.595    34.659    25.081 
 H                     42.6239   34.0166   25.959 
 C                     42.5316   36.1247   25.5029 
 H                     42.5347   36.7497   24.602 
 C                     41.2294   36.3783   26.258 
 H                     41.159    35.7243   27.1254 
 H                     41.1731   37.4113   26.5857 
 H                     40.3714   36.1811   25.6174 
 C                     43.7633   36.483    26.3423 
 H                     43.6922   35.9992   27.3175 
 H                     44.6508   36.0848   25.8452 
 C                     43.9591   37.98     26.542 
 H                     43.1255   38.4228   27.0794 
 H                     44.8632   38.1539   27.1186 
 H                     44.0527   38.4857   25.5825 
 H                     41.7227   34.3899   24.4882 
 H                     37.3242   32.1477   29.0068 
 C                     36.634    32.654    28.336 
 H                     35.8466   33.1061   28.9352 
 C                     37.3662   33.7263   27.5277 
 H                     38.1442   33.2533   26.924 
 H                     36.6611   34.2152   26.8527 
 C                     37.984    34.7406   28.4464 
 C                     39.1806   34.4611   29.0937 
 H                     39.6799   33.5215   28.9055 
 C                     39.7462   35.3636   29.9726 
 H                     40.6738   35.1304   30.4755 
 C                     39.1234   36.5831   30.2125 
 O                     39.6593   37.5229   31.034 
 H                     40.5759   37.2981   31.2486 
 C                     37.9103   36.8635   29.5894 
 H                     37.4109   37.7941   29.8163 
 C                     37.3518   35.946    28.7194 
 H                     36.4094   36.1747   28.2419 
 H                     36.1866   31.9151   27.6749 
 H                     36.2863   46.2347   32.6101 
 C                     37.339    46.524    32.531 
 H                     37.7951   46.4642   33.5149 
 C                     38.0646   45.5889   31.5649 
 H                     37.9758   44.5501   31.8946 
 H                     37.6394   45.6715   30.5627 
 C                     39.5675   45.9522   31.484 
 O                     40.007    46.7407   32.3359 
 O                     40.2421   45.4079   30.582 
 C                     37.3928   47.9331   31.9685 
 O                     37.1987   48.1696   30.7838 
 N                     37.6165   48.9352   32.8374 
 C                     37.6707   50.3122   32.3755 
 H                     36.8528   50.4972   31.6751 
 H                     38.6171   50.4932   31.8541 
 C                     37.5881   51.1363   33.6541 
 H                     36.5469   51.2723   33.9519 
 H                     38.0553   52.1131   33.5449 
 C                     38.3138   50.2439   34.6581 
 H                     38.068    50.4756   35.693 
 H                     39.3908   50.3429   34.5192 
 C                     37.862    48.838    34.26 
 H                     38.6312   48.0959   34.4825 
 H                     36.9442   48.5544   34.79 
 H                     36.9507   43.6848   22.4182 
 C                     37.404    44.342    23.165 
 H                     37.1525   45.3745   22.9174 
 C                     36.8488   43.9972   24.5575 
 H                     35.7607   43.9339   24.4776 
 H                     37.2189   43.0202   24.8784 
 C                     37.1996   45.0332   25.5939 
 C                     36.4641   46.2113   25.6644 
 H                     35.669    46.3848   24.9519 
 C                     36.7218   47.1448   26.6535 
 H                     36.1282   48.045    26.7105 
 C                     37.7195   46.9134   27.5873 
 H                     37.8815   47.6105   28.3949 
 C                     38.48     45.7584   27.5016 
 H                     39.256    45.5776   28.2286 
 C                     38.2252   44.8261   26.5076 
 H                     38.8175   43.9228   26.4555 
 C                     38.9109   44.1777   23.0804 
 O                     39.6689   45.1136   22.8368 
 N                     39.3727   42.9327   23.2271 
 H                     38.7535   42.193    23.5181 
 C                     40.793    42.627    23.19 
 H                     41.2917   43.144    24.0189 
 C                     41.0209   41.1222   23.2935 
 H                     40.4287   40.607    22.5334 
 H                     42.0759   40.9268   23.0944 
 C                     40.6753   40.6132   24.6658 
 C                     39.5408   39.8507   24.8973 
 H                     38.8831   39.5932   24.0776 
 C                     39.2439   39.3846   26.1674 
 H                     38.3662   38.7746   26.336 
 C                     40.0904   39.6832   27.2246 
 O                     39.8742   39.2052   28.486 
 H                     39.0671   38.6746   28.5241 
 C                     41.2173   40.4722   27.01 
 H                     41.8617   40.7116   27.8406 
 C                     41.5011   40.9264   25.7406 
 H                     42.3732   41.5392   25.5813 
 H                     41.1961   43.016    22.249 
 H                     40.7006   46.0656   20.3093 
 C                     40.965    47.122    20.245 
 H                     41.2106   47.373    19.2146 
 C                     39.7882   47.9737   20.7507 
 H                     39.8593   48.0775   21.8335 
 H                     39.8466   48.972    20.3157 
 C                     38.4509   47.3234   20.3946 
 H                     38.3684   47.1994   19.3138 
 H                     38.4012   46.3404   20.8672 
 C                     37.2545   48.1421   20.8588 
 O                     36.4343   48.5975   20.0856 
 N                     37.1421   48.2682   22.195 
 H                     36.4124   48.8693   22.5426 
 H                     37.8897   48.0215   22.8388 
 C                     42.1789   47.3837   21.1285 
 O                     43.0433   48.1968   20.8529 
 N                     42.2253   46.6379   22.2602 
 H                     41.4265   46.0568   22.4844 
 C                     43.146    46.945    23.342 
 H                     43.283    48.0314   23.395 
 H                     42.7053   46.6109   24.2831 
 C                     44.5364   46.3305   23.2296 
 O                     45.4111   46.6575   24.0247 
 N                     44.7105   45.4297   22.2675 
 H                     43.9509   45.273    21.6226 
 C                     45.975    44.783    22.003 
 H                     46.7076   45.2357   22.6707 
 C                     45.8906   43.2722   22.2344 
 H                     45.2278   42.8338   21.4828 
 H                     46.8863   42.8505   22.0851 
 C                     45.379    42.8809   23.6279 
 H                     44.3702   43.2899   23.7552 
 C                     45.2979   41.3578   23.7327 
 H                     46.2905   40.9201   23.646 
 H                     44.8777   41.0609   24.691 
 H                     44.6746   40.9445   22.9414 
 C                     46.2674   43.4342   24.7393 
 H                     46.2173   44.518    24.7772 
 H                     45.9388   43.0501   25.7025 
 H                     47.3028   43.1373   24.5856 
 H                     46.2728   44.9957   20.9733 
 H                     51.6513   46.3328   23.518 
 C                     51.425    46.229    24.579 
 H                     51.6197   47.1681   25.0958 
 C                     49.9413   45.8433   24.7478 
 H                     49.7886   44.8664   24.2741 
 C                     49.5534   45.7403   26.2207 
 H                     49.7792   46.669    26.7403 
 H                     48.4865   45.5523   26.3094 
 H                     50.0801   44.9271   26.7145 
 C                     49.0604   46.872    24.0435 
 H                     49.2855   46.9241   22.9813 
 H                     48.0115   46.6124   24.157 
 H                     49.2095   47.8589   24.4732 
 C                     52.3224   45.1494   25.145 
 O                     52.7269   44.2291   24.4187 
 N                     52.6276   45.222    26.4523 
 H                     52.4094   46.0748   26.9594 
 C                     53.483    44.204    27.048 
 H                     53.6599   43.572    26.1856 
 C                     54.8417   44.7225   27.5023 
 H                     54.7265   45.6925   27.9768 
 H                     55.255    44.0552   28.2594 
 C                     55.8355   44.876    26.3415 
 H                     55.6048   45.7862   25.7862 
 H                     56.8289   44.9965   26.7759 
 C                     55.8491   43.7236   25.3158 
 H                     55.0613   43.8668   24.5773 
 H                     56.8061   43.7307   24.7857 
 N                     55.6903   42.4185   25.937 
 H                     56.3424   42.2405   26.6878 
 C                     54.6527   41.591    25.8267 
 N                     53.717    41.7259   24.8945 
 H                     53.4314   42.664    24.5454 
 H                     52.9291   41.1007   24.9785 
 N                     54.6443   40.4791   26.5909 
 H                     55.2764   40.4329   27.374 
 H                     53.7389   40.0659   26.7603 
 C                     52.7994   43.2094   27.9967 
 O                     52.4614   42.1204   27.5197 
 N                     52.6775   43.5422   29.2664 
 H                     53.2026   44.3608   29.654 
 C                     52.18     42.582    30.224 
 H                     51.5525   41.8623   29.6917 
 C                     53.3284   41.8703   30.9351 
 H                     53.9955   42.606    31.3779 
 H                     52.9424   41.2227   31.7179 
 H                     53.895    41.2658   30.2294 
 H                     51.5773   43.1158   30.9619 
 H                     45.529    38.2807   40.6887 
 C                     46.46     38.723    40.34 
 H                     47.24     38.4989   41.0635 
 C                     46.8329   38.1726   38.9673 
 H                     47.7773   38.6091   38.6358 
 H                     46.9717   37.091    39.026 
 C                     45.7582   38.4808   37.939 
 H                     44.8055   38.029    38.2237 
 H                     45.631    39.558    37.8242 
 S                     46.21     37.817    36.2972 
 C                     44.8142   38.5001   35.3671 
 H                     44.8858   39.5836   35.3538 
 H                     44.8739   38.1175   34.3557 
 H                     43.8888   38.1683   35.828 
 H                     46.3306   39.8025   40.2966 
 H                     49.5434   42.9058   37.7905 
 C                     50.254    42.792    36.975 
 H                     51.248    42.6543   37.3963 
 C                     49.8687   41.6027   36.0933 
 H                     50.5961   41.5004   35.2849 
 H                     49.8889   40.6868   36.6897 
 C                     48.4939   41.8182   35.5286 
 C                     48.3151   42.3152   34.2456 
 H                     49.18     42.4988   33.6222 
 C                     47.0451   42.5798   33.7626 
 H                     46.915    42.9664   32.7623 
 C                     45.9403   42.3565   34.5629 
 H                     44.9482   42.5645   34.2007 
 C                     46.1107   41.8673   35.8469 
 H                     45.245    41.7246   36.4784 
 C                     47.3781   41.5952   36.3252 
 H                     47.513    41.2155   37.3292 
 H                     50.2492   43.7089   36.39 
 H                     50.7169   46.6078   32.384 
 C                     50.929    46.54     31.316 
 H                     51.6149   45.7159   31.1302 
 C                     49.6126   46.3412   30.5434 
 H                     49.8118   46.5129   29.4796 
 C                     49.0827   44.9192   30.712 
 H                     48.9465   44.6847   31.7663 
 H                     48.1218   44.8195   30.2108 
 H                     49.7672   44.1973   30.2741 
 C                     48.5692   47.3505   31.0102 
 H                     48.9554   48.3603   30.91 
 H                     47.6665   47.271    30.4094 
 H                     48.3093   47.1783   32.0532 
 C                     51.5744   47.8475   30.8603 
 O                     51.3102   48.9363   31.3477 
 N                     52.4078   47.6815   29.8126 
 H                     52.8589   46.7559   29.7653 
 C                     53.197    48.763    29.249 
 H                     53.0382   49.6489   29.8759 
 C                     54.6932   48.3943   29.203 
 H                     54.8693   47.7735   28.3192 
 H                     55.2604   49.3189   29.0637 
 C                     55.2013   47.6611   30.4562 
 H                     56.248    47.9172   30.6284 
 H                     54.6179   47.9648   31.3281 
 C                     55.1296   46.1098   30.3241 
 O                     53.9643   45.6155   30.2755 
 O                     56.1765   45.4761   30.2451 
 C                     52.6985   49.0171   27.8324 
 O                     52.5617   48.1159   27.0168 
 N                     52.4289   50.2972   27.556 
 H                     52.6423   51.0305   28.2193 
 C                     51.956    50.753    26.273 
 H                     52.5876   50.2951   25.4939 
 C                     50.5079   50.3152   25.9939 
 H                     50.2515   50.5611   24.9625 
 H                     50.4749   49.2286   26.0931 
 C                     49.4745   50.9182   26.9375 
 H                     49.6753   51.9662   27.1506 
 H                     48.4797   50.8328   26.5014 
 S                     49.4282   50.0139   28.5364 
 C                     50.0014   51.2929   29.682 
 H                     49.1608   51.9183   29.9729 
 H                     50.4088   50.7704   30.5432 
 H                     50.7678   51.8889   29.1975 
 C                     52.1943   52.2639   26.1956 
 O                     52.8672   52.8421   27.0356 
 N                     51.6893   52.856    25.1076 
 H                     50.9957   52.3953   24.5237 
 C                     51.968    54.233    24.774 
 H                     52.8647   54.5184   25.3366 
 C                     52.2301   54.3556   23.2599 
 H                     51.3396   53.9853   22.7431 
 C                     52.4646   55.8118   22.8669 
 H                     53.3124   56.2248   23.4112 
 H                     52.6781   55.878    21.8028 
 H                     51.587    56.4185   23.0752 
 C                     53.4275   53.4958   22.8647 
 H                     53.2589   52.456    23.1304 
 H                     53.5917   53.5534   21.7917 
 H                     54.3273   53.8405   23.371 
 C                     50.7983   55.1427   25.1645 
 O                     49.6501   54.8957   24.8353 
 N                     51.16     56.2436   25.8395 
 H                     52.1163   56.3416   26.1426 
 C                     50.226    57.254    26.282 
 H                     49.2402   56.9198   25.9496 
 C                     50.2334   57.4296   27.813 
 H                     50.7961   56.6041   28.2532 
 H                     50.7254   58.3639   28.0871 
 C                     48.8521   57.4025   28.3777 
 C                     48.1361   58.4411   28.8945 
 H                     48.4174   59.4716   29.0046 
 N                     46.9091   58.0036   29.3179 
 H                     46.2037   58.573    29.7519 
 C                     46.8097   56.6625   29.0793 
 C                     45.7757   55.7717   29.3392 
 H                     44.8577   56.1022   29.8032 
 C                     45.9659   54.4538   28.9854 
 H                     45.1842   53.7338   29.1739 
 C                     47.1527   54.0267   28.3815 
 H                     47.2489   52.9868   28.1078 
 C                     48.1809   54.9041   28.1225 
 H                     49.0941   54.5716   27.6545 
 C                     48.0192   56.2438   28.4775 
 H                     50.4607   58.2002   25.7831 
 H                     53.7504   55.5517   29.8772 
 C                     53.714    54.47     29.992 
 H                     54.6412   54.1357   30.4533 
 C                     52.5317   54.0715   30.8524 
 H                     52.478    52.9907   30.9791 
 H                     52.568    54.5535   31.8301 
 S                     50.9856   54.61     30.0221 
 H                     50.1487   54.0501   30.8883 
 H                     53.6276   54.017    29.006 
 H                     50.5314   50.7697   33.6669 
 C                     49.556    50.794    34.147 
 H                     49.5318   51.6315   34.8415 
 C                     48.4634   50.9058   33.0903 
 H                     48.5129   51.8901   32.6158 
 H                     48.66     50.1585   32.321 
 C                     47.0488   50.681    33.6326 
 H                     47.037    49.7334   34.1829 
 C                     46.6207   51.7952   34.5828 
 H                     46.6249   52.7533   34.0653 
 H                     45.6105   51.6086   34.9368 
 H                     47.282    51.8575   35.4438 
 C                     46.0554   50.5777   32.4773 
 H                     46.3408   49.7764   31.8006 
 H                     45.0531   50.378    32.8497 
 H                     46.0307   51.5099   31.9152 
 H                     49.4382   49.8728   34.7131 
 H                     47.1349   46.7939   36.9695 
 C                     46.185    46.409    37.335 
 H                     45.5097   47.2495   37.484 
 C                     45.5891   45.4116   36.3473 
 H                     46.2683   44.5564   36.2607 
 C                     44.2426   44.916    36.8657 
 H                     43.5622   45.762    36.9569 
 H                     43.8154   44.1804   36.189 
 H                     44.3593   44.462    37.8493 
 C                     45.432    46.0411   34.9657 
 H                     46.3961   46.3729   34.5863 
 H                     45.0229   45.3171   34.2659 
 H                     44.7669   46.9021   35.0055 
 H                     46.3556   45.9391   38.3017 
 H                     43.2614   40.6547   37.7949 
 C                     42.31     41.173    37.691 
 H                     42.5072   42.2401   37.6221 
 C                     41.5859   40.7083   36.4347 
 H                     41.5265   39.6207   36.3874 
 H                     40.5721   41.1161   36.4028 
 C                     42.3019   41.2207   35.1998 
 O                     42.7782   42.3258   35.1284 
 O                     42.3523   40.3336   34.2281 
 H                     42.8709   40.7036   33.4419 
 H                     41.7163   40.9768   38.5815 
 H                     38.4593   37.0731   38.0246 
 C                     38.538    36.018    37.77 
 H                     37.7926   35.7924   37.01 
 C                     39.9364   35.694    37.2605 
 H                     40.675    35.8995   38.0377 
 H                     40.0046   34.6332   37.011 
 C                     40.2644   36.5152   36.026 
 H                     39.5273   36.3385   35.2401 
 H                     40.2877   37.5808   36.262 
 S                     41.8972   36.0489   35.3489 
 C                     41.8066   36.9808   33.7951 
 H                     41.9128   38.0455   33.9844 
 H                     42.6227   36.635    33.1693 
 H                     40.849    36.7642   33.3296 
 H                     38.311    35.4331   38.6579 
 H                     35.7734   38.571    34.5395 
 C                     36.781    38.93     34.736 
 H                     37.2399   38.2834   35.4819 
 C                     37.6086   38.9446   33.4559 
 H                     37.7009   37.9291   33.0607 
 H                     37.1007   39.5486   32.7015 
 C                     39.0071   39.5022   33.6822 
 H                     39.4449   39.0746   34.5827 
 H                     39.6544   39.2897   32.8345 
 S                     39.0332   41.3196   33.9085 
 C                     39.6466   41.8189   32.2775 
 H                     38.9405   41.5029   31.514 
 H                     39.7322   42.9012   32.2806 
 H                     40.6223   41.3707   32.1082 
 H                     36.7193   39.937    35.1429 
 H                     38.9844   44.1988   35.7186 
 C                     39.969    44.538    36.041 
 H                     40.4351   43.7502   36.6348 
 C                     40.8344   44.8344   34.8192 
 H                     40.3802   45.5923   34.1861 
 H                     41.8255   45.1651   35.1174 
 H                     40.9502   43.9256   34.2359 
 C                     39.7703   45.7706   36.9106 
 O                     38.7548   46.4377   36.9056 
 N                     40.8399   46.1113   37.6886 
 H                     41.6259   45.4778   37.707 
 C                     40.698    46.974    38.851 
 H                     39.7116   47.4436   38.7465 
 C                     40.7428   46.1354   40.1424 
 H                     41.7397   45.7009   40.238 
 H                     40.5835   46.8032   40.9894 
 C                     39.6894   45.07     40.0866 
 C                     39.9781   43.8118   39.5778 
 H                     40.9922   43.5658   39.2971 
 C                     38.9867   42.8598   39.4255 
 H                     39.2239   41.8883   39.0106 
 C                     37.6807   43.1525   39.7917 
 O                     36.6714   42.2438   39.6604 
 H                     37.0049   41.4595   39.2087 
 C                     37.3831   44.4032   40.3218 
 H                     36.3651   44.6176   40.6055 
 C                     38.3788   45.3484   40.4566 
 H                     38.1346   46.3236   40.8516 
 C                     41.7691   48.0774   38.8945 
 O                     42.6255   48.1224   39.7554 
 N                     41.6132   49.0108   37.9395 
 H                     40.964    48.8335   37.1862 
 C                     42.545    50.103    37.743 
 H                     43.12     50.2029   38.6651 
 C                     43.4811   49.8215   36.5564 
 H                     44.157    50.67     36.4416 
 H                     44.0811   48.9406   36.7966 
 C                     42.7383   49.5857   35.2791 
 C                     42.1762   48.4054   34.8625 
 H                     42.1528   47.4594   35.3695 
 N                     41.607    48.5444   33.636 
 H                     41.095    47.8266   33.1143 
 C                     41.7852   49.8256   33.2232 
 C                     41.4124   50.4394   32.0321 
 H                     40.9003   49.8755   31.2672 
 C                     41.7292   51.7692   31.8708 
 H                     41.4601   52.2774   30.9559 
 C                     42.3991   52.4815   32.8721 
 H                     42.6243   53.5262   32.7081 
 C                     42.7798   51.881    34.05 
 H                     43.2954   52.4467   34.8138 
 C                     42.4872   50.5291   34.2389 
 H                     41.9727   51.0174   37.5619 
 H                     48.9418   55.4235   36.2995 
 C                     48.976    55.173    35.241 
 H                     48.1214   54.5414   35.0174 
 C                     48.96     56.4399   34.3949 
 H                     48.0159   56.9683   34.5482 
 H                     49.7647   57.0991   34.7323 
 C                     49.1474   56.1662   32.8995 
 H                     50.0566   55.5667   32.7785 
 C                     47.9694   55.3935   32.3121 
 H                     47.0375   55.9227   32.5001 
 H                     48.0832   55.2858   31.2358 
 H                     47.8926   54.4007   32.7476 
 C                     49.3392   57.4755   32.1381 
 H                     50.1849   58.0337   32.5353 
 H                     49.5205   57.2748   31.0852 
 H                     48.4488   58.0956   32.2223 
 H                     49.8834   54.6017   35.0545 
 C                     43.7844   42.2424   31.5135 
 O                     43.745    41.2379   32.2316 
 C                     43.4989   43.563    31.982 
 C                     43.5909   44.6694   31.2078 
 C                     44.103    44.6061   29.7968 
 C                     44.9016   43.3185   29.5749 
 C                     44.094    42.1207   30.0481 
 C                     43.0555   45.9583   31.6922 
 C                     43.8143   47.1912   31.2179 
 C                     44.0621   47.1209   29.7147 
 C                     44.9043   45.8682   29.419 
 C                     44.8059   48.355    29.2226 
 C                     45.1776   48.2968   27.7342 
 C                     46.0831   47.0911   27.5074 
 C                     45.3719   45.8143   27.9588 
 C                     44.1369   49.7234   29.3482 
 C                     45.0057   50.6178   28.4449 
 C                     45.8713   49.6676   27.59 
 C                     43.9714   48.2414   26.7898 
 O                     45.975    50.1547   26.2691 
 H                     43.1429   43.6491   32.9999 
 H                     43.2098   44.5669   29.1578 
 H                     45.8428   43.3714   30.1293 
 H                     45.1396   43.1916   28.5187 
 H                     43.1332   42.1069   29.5245 
 H                     44.5992   41.1742   29.855 
 H                     42.9642   45.9541   32.7782 
 H                     42.0277   45.9994   31.2887 
 H                     44.7711   47.2623   31.7433 
 H                     43.2374   48.083    31.4595 
 H                     43.0939   47.0364   29.2132 
 H                     45.7958   45.9085   30.0567 
 H                     45.7507   48.4049   29.7787 
 H                     47.0098   47.2166   28.0727 
 H                     46.342    46.9964   26.4503 
 H                     44.5108   45.6411   27.311 
 H                     46.0623   44.9797   27.8257 
 H                     44.1179   50.0872   30.3733 
 H                     43.1097   49.6743   28.9886 
 H                     45.6424   51.2692   29.0404 
 H                     44.4081   51.2444   27.7839 
 H                     46.8778   49.5924   28.0264 
 H                     43.1884   47.595    27.1728 
 H                     43.5538   49.2325   26.6417 
 H                     44.2923   47.8595   25.8238 
 H                     46.4516   49.4946   25.749 
 O                     41.0523   43.704    28.6857 
 H                     40.5591   42.9199   28.9297 
 H                     40.7912   44.3795   29.3529 
 O                     41.9755   44.0997   26.0647 
 H                     42.8151   44.5221   26.2593 
 H                     41.5485   43.9792   26.9318 
 O                     39.1514   47.5128   24.0664 
 H                     39.3805   46.6453   23.6873 
 H                     38.9189   47.3603   24.9854 
 O                     45.9054   47.8755   20.8927 
 H                     44.971    48.1071   20.8032 
 H                     46.2445   48.4223   21.6137 
 O                     46.4267   49.1768   23.4843 
 H                     45.7281   49.7621   23.7881 
 H                     46.166    48.2788   23.7483 
 O                     49.358    52.4219   23.5869 
 H                     48.5127   51.9698   23.6314 
 H                     49.2219   53.3121   23.9606 
 
 Stoichiometry    C190H328N19O32S5(1-)
 Framework group  C1[X(C190H328N19O32S5)]
 Deg. of freedom  1716
 Full point group                 C1      NOp   1
 Largest Abelian subgroup         C1      NOp   1
 Largest concise Abelian subgroup C1      NOp   1
                         Standard orientation:                         
 ---------------------------------------------------------------------
 Center     Atomic      Atomic             Coordinates (Angstroms)
 Number     Number       Type             X           Y           Z
 ---------------------------------------------------------------------
      1          1           0        8.089873   -6.268127   -5.834625
      2          6           0        7.718616   -5.903989   -4.874297
      3          1           0        7.868024   -6.676404   -4.118784
      4          6           0        8.479100   -4.633514   -4.462456
      5          1           0        9.526038   -4.894229   -4.286953
      6          1           0        8.444260   -3.904956   -5.276047
      7          6           0        7.878617   -4.022963   -3.226384
      8          6           0        8.218825   -4.455237   -1.954212
      9          1           0        8.939651   -5.253546   -1.835047
     10          6           0        7.652745   -3.875694   -0.829620
     11          1           0        7.918038   -4.230490    0.156714
     12          6           0        6.723491   -2.850093   -0.962548
     13          8           0        6.169408   -2.221121    0.099529
     14          1           0        6.562699   -2.517883    0.937270
     15          6           0        6.351560   -2.433404   -2.238710
     16          1           0        5.620985   -1.646982   -2.325599
     17          6           0        6.927848   -3.015873   -3.345613
     18          1           0        6.642912   -2.680568   -4.330382
     19          6           0        6.211685   -5.655754   -4.956820
     20          8           0        5.443584   -6.055867   -4.104503
     21          7           0        5.798061   -4.970891   -6.045335
     22          1           0        6.464808   -4.691162   -6.747163
     23          6           0        4.393381   -4.755381   -6.343991
     24          1           0        3.863074   -4.771970   -5.390546
     25          6           0        4.121354   -3.453856   -7.101581
     26          1           0        4.707827   -3.474134   -8.030254
     27          6           0        2.641298   -3.402694   -7.480844
     28          1           0        2.014763   -3.484498   -6.597156
     29          1           0        2.416377   -2.462869   -7.978621
     30          1           0        2.388423   -4.219978   -8.153862
     31          6           0        4.544625   -2.199167   -6.326856
     32          1           0        5.631537   -2.205305   -6.219469
     33          1           0        4.297942   -1.324281   -6.931789
     34          6           0        3.899134   -2.050061   -4.956145
     35          1           0        4.192155   -2.857877   -4.292550
     36          1           0        4.207363   -1.110501   -4.505632
     37          1           0        2.816329   -2.035133   -5.038352
     38          1           0        4.024358   -5.597560   -6.947242
     39          1           0        3.015348   -7.169476   -2.804695
     40          6           0        1.982473   -6.941934   -2.551793
     41          1           0        1.867577   -7.004224   -1.471455
     42          6           0        1.625498   -5.540713   -3.041402
     43          1           0        1.771645   -5.507807   -4.127464
     44          6           0        0.167239   -5.201045   -2.739938
     45          1           0       -0.034791   -5.305695   -1.676341
     46          1           0       -0.051700   -4.174717   -3.026947
     47          1           0       -0.509720   -5.854532   -3.286551
     48          6           0        2.560682   -4.522271   -2.396686
     49          1           0        3.595166   -4.751616   -2.645430
     50          1           0        2.330658   -3.517262   -2.742182
     51          1           0        2.452194   -4.548629   -1.314074
     52          1           0        1.337665   -7.689621   -3.010596
     53          1           0        7.470697   -9.641773    0.579614
     54          6           0        8.005714   -8.791384    0.996791
     55          1           0        8.750643   -8.468366    0.272129
     56          6           0        7.046219   -7.646544    1.311446
     57          1           0        6.289585   -8.007002    2.018433
     58          6           0        7.817075   -6.507390    1.973505
     59          1           0        8.623670   -6.167259    1.326380
     60          1           0        7.156674   -5.673261    2.187387
     61          1           0        8.256392   -6.838466    2.913085
     62          6           0        6.333342   -7.192635    0.032451
     63          1           0        7.042743   -6.676034   -0.615627
     64          1           0        5.986197   -8.077966   -0.505144
     65          6           0        5.135697   -6.285882    0.282795
     66          1           0        5.430552   -5.362190    0.772298
     67          1           0        4.668680   -6.031854   -0.664555
     68          1           0        4.401608   -6.785557    0.912534
     69          1           0        8.522864   -9.119897    1.896441
     70          1           0       14.105349   -5.429567    1.993036
     71          6           0       13.901167   -5.454977    3.060909
     72          1           0       14.181729   -4.492977    3.484319
     73          6           0       12.418512   -5.732674    3.313713
     74          1           0       12.157908   -6.706537    2.892829
     75          1           0       12.234797   -5.766058    4.389328
     76          6           0       11.572958   -4.664775    2.681951
     77          6           0       11.310361   -4.695669    1.318479
     78          1           0       11.691910   -5.511906    0.722034
     79          6           0       10.567835   -3.702832    0.710364
     80          1           0       10.377293   -3.734906   -0.352838
     81          6           0       10.057055   -2.654876    1.467665
     82          8           0        9.285119   -1.676846    0.926511
     83          1           0        9.006180   -1.924655    0.033467
     84          6           0       10.335669   -2.599447    2.830673
     85          1           0        9.972913   -1.758030    3.402798
     86          6           0       11.088417   -3.595796    3.423368
     87          1           0       11.298525   -3.541733    4.482310
     88          1           0       14.518135   -6.227437    3.514616
     89          1           0        4.987166    5.359608    5.592623
     90          6           0        4.147314    5.120010    4.932796
     91          1           0        4.236789    5.705920    4.022650
     92          6           0        4.159903    3.630206    4.594296
     93          1           0        5.107616    3.349512    4.126596
     94          1           0        4.029915    3.032640    5.498752
     95          6           0        3.008812    3.285963    3.617706
     96          8           0        2.416599    4.236034    3.081727
     97          8           0        2.770004    2.074709    3.415750
     98          6           0        2.864117    5.432520    5.681533
     99          8           0        2.429928    4.703318    6.562932
    100          7           0        2.234978    6.580735    5.373280
    101          6           0        1.006940    6.953757    6.055332
    102          1           0        1.112187    6.771334    7.127428
    103          1           0        0.174869    6.345783    5.683422
    104          6           0        0.812378    8.420846    5.693978
    105          1           0        1.386392    9.057853    6.369262
    106          1           0       -0.233783    8.718389    5.730778
    107          6           0        1.394581    8.483628    4.283966
    108          1           0        1.671950    9.491376    3.979614
    109          1           0        0.668707    8.086368    3.573815
    110          6           0        2.606073    7.553995    4.369007
    111          1           0        2.809483    7.077970    3.407804
    112          1           0        3.503342    8.103731    4.679465
    113          1           0        3.451809   -4.150906    9.836566
    114          6           0        2.920388   -3.358229    9.303314
    115          1           0        2.194552   -2.908764    9.982841
    116          6           0        3.923820   -2.287785    8.841292
    117          1           0        4.561666   -2.037428    9.692660
    118          1           0        4.562605   -2.687966    8.049907
    119          6           0        3.248208   -1.031614    8.355428
    120          6           0        2.780951   -0.101758    9.277865
    121          1           0        2.878460   -0.307096   10.335348
    122          6           0        2.222010    1.091624    8.854103
    123          1           0        1.883752    1.814638    9.581291
    124          6           0        2.122311    1.372695    7.500592
    125          1           0        1.743178    2.327116    7.169308
    126          6           0        2.553100    0.435634    6.575353
    127          1           0        2.476398    0.654346    5.521942
    128          6           0        3.107987   -0.761824    7.000015
    129          1           0        3.450855   -1.482306    6.270062
    130          6           0        2.170605   -3.993551    8.146123
    131          8           0        0.950698   -3.915273    8.021565
    132          7           0        2.909969   -4.703941    7.289681
    133          1           0        3.915587   -4.682960    7.349164
    134          6           0        2.332016   -5.351685    6.124143
    135          1           0        1.907633   -4.585991    5.463328
    136          6           0        3.389378   -6.162351    5.381255
    137          1           0        3.886155   -6.843855    6.075984
    138          1           0        2.883324   -6.759439    4.620833
    139          6           0        4.394361   -5.263693    4.714810
    140          6           0        5.689920   -5.137060    5.191865
    141          1           0        6.007748   -5.703807    6.057063
    142          6           0        6.603278   -4.309932    4.559261
    143          1           0        7.617784   -4.231043    4.927279
    144          6           0        6.220058   -3.596637    3.433317
    145          8           0        7.094366   -2.808455    2.739984
    146          1           0        7.968243   -2.810195    3.153184
    147          6           0        4.913627   -3.693316    2.961756
    148          1           0        4.620517   -3.123711    2.094521
    149          6           0        4.017000   -4.522197    3.599903
    150          1           0        3.006348   -4.590559    3.231978
    151          1           0        1.518531   -5.999112    6.468196
    152          1           0       -1.134312   -5.688474    8.952939
    153          6           0       -2.113414   -5.248147    9.146569
    154          1           0       -2.759549   -5.989825    9.612904
    155          6           0       -1.948322   -4.017299   10.054171
    156          1           0       -1.736943   -3.142929    9.438476
    157          1           0       -2.880023   -3.830687   10.589287
    158          6           0       -0.804120   -4.221165   11.047805
    159          1           0       -0.992963   -5.101335   11.664205
    160          1           0        0.122435   -4.373041   10.490544
    161          6           0       -0.615350   -3.034233   11.981980
    162          8           0       -0.738477   -3.125383   13.188001
    163          7           0       -0.240090   -1.892533   11.373978
    164          1           0       -0.183299   -1.063210   11.942842
    165          1           0       -0.275666   -1.765197   10.365631
    166          6           0       -2.728670   -4.806865    7.823942
    167          8           0       -3.924181   -4.854125    7.594172
    168          7           0       -1.836721   -4.348709    6.910905
    169          1           0       -0.871884   -4.236088    7.198010
    170          6           0       -2.260790   -3.635344    5.717773
    171          1           0       -3.155178   -3.047035    5.954005
    172          1           0       -1.468178   -2.945999    5.420995
    173          6           0       -2.608039   -4.499953    4.511404
    174          8           0       -3.109095   -3.983670    3.518122
    175          7           0       -2.309473   -5.792219    4.602485
    176          1           0       -1.958037   -6.135970    5.483263
    177          6           0       -2.607521   -6.752287    3.564902
    178          1           0       -3.163803   -6.221253    2.792881
    179          6           0       -1.330301   -7.367387    2.987368
    180          1           0       -0.850012   -7.978024    3.757334
    181          1           0       -1.614096   -8.029987    2.167635
    182          6           0       -0.315486   -6.335352    2.475754
    183          1           0       -0.021288   -5.692563    3.313270
    184          6           0        0.930595   -7.056474    1.961304
    185          1           0        0.679963   -7.678190    1.103979
    186          1           0        1.688370   -6.340079    1.652092
    187          1           0        1.357212   -7.696869    2.731608
    188          6           0       -0.901133   -5.454820    1.374716
    189          1           0       -1.692614   -4.820013    1.760912
    190          1           0       -0.126638   -4.811240    0.963343
    191          1           0       -1.304394   -6.065617    0.569648
    192          1           0       -3.253506   -7.530889    3.978050
    193          1           0       -6.534648   -6.542543   -1.066638
    194          6           0       -6.002952   -5.703207   -1.514436
    195          1           0       -6.675076   -4.853348   -1.627956
    196          6           0       -4.818630   -5.309029   -0.608550
    197          1           0       -4.128022   -6.159374   -0.563648
    198          6           0       -4.070448   -4.097993   -1.160024
    199          1           0       -4.751280   -3.261528   -1.302319
    200          1           0       -3.297354   -3.791325   -0.460190
    201          1           0       -3.592764   -4.324782   -2.110250
    202          6           0       -5.326201   -5.015560    0.800881
    203          1           0       -5.817931   -5.883561    1.232655
    204          1           0       -4.500755   -4.734316    1.448960
    205          1           0       -6.035904   -4.192787    0.786380
    206          6           0       -5.507935   -6.136980   -2.877527
    207          8           0       -5.252261   -7.330233   -3.098572
    208          7           0       -5.336015   -5.179912   -3.805921
    209          1           0       -5.712020   -4.252913   -3.628940
    210          6           0       -4.855477   -5.543741   -5.132421
    211          1           0       -4.734186   -6.613316   -5.006931
    212          6           0       -5.880625   -5.342141   -6.241351
    213          1           0       -6.414592   -4.409540   -6.084967
    214          1           0       -5.370379   -5.249039   -7.200668
    215          6           0       -6.913855   -6.476547   -6.306275
    216          1           0       -7.651703   -6.339092   -5.514611
    217          1           0       -7.433762   -6.390414   -7.261443
    218          6           0       -6.351221   -7.903861   -6.143517
    219          1           0       -6.242538   -8.148187   -5.087577
    220          1           0       -7.058541   -8.616541   -6.577901
    221          7           0       -5.070624   -8.080776   -6.809225
    222          1           0       -5.072313   -7.802575   -7.780420
    223          6           0       -3.884379   -8.285718   -6.239701
    224          7           0       -3.745140   -8.637789   -4.967149
    225          1           0       -4.410370   -8.307589   -4.237830
    226          1           0       -2.795494   -8.661463   -4.626078
    227          7           0       -2.793080   -8.294489   -7.033037
    228          1           0       -2.874708   -7.913160   -7.961938
    229          1           0       -1.913660   -8.099121   -6.577369
    230          6           0       -3.416901   -5.130284   -5.473190
    231          8           0       -2.536800   -5.985095   -5.323473
    232          7           0       -3.215166   -3.924768   -5.966938
    233          1           0       -4.020724   -3.346048   -6.301944
    234          6           0       -1.905222   -3.545010   -6.442666
    235          1           0       -1.162015   -4.149637   -5.916228
    236          6           0       -1.789605   -3.746062   -7.951710
    237          1           0       -2.594788   -3.214834   -8.453532
    238          1           0       -0.835780   -3.367535   -8.309611
    239          1           0       -1.861296   -4.803244   -8.200094
    240          1           0       -1.749093   -2.489775   -6.208598
    241          1           0        8.345394    4.359408   -8.608761
    242          6           0        7.374388    4.032516   -8.975190
    243          1           0        7.327573    4.223688  -10.044458
    244          6           0        7.166496    2.548700   -8.689938
    245          1           0        6.197639    2.227734   -9.078030
    246          1           0        7.935798    1.961809   -9.196202
    247          6           0        7.221819    2.260577   -7.199538
    248          1           0        8.192782    2.539536   -6.784534
    249          1           0        6.432195    2.797828   -6.672684
    250         16           0        6.974122    0.481038   -6.864655
    251          6           0        6.953018    0.575379   -5.056168
    252          1           0        6.077469    1.131487   -4.734558
    253          1           0        6.903549   -0.436876   -4.674372
    254          1           0        7.870416    1.047683   -4.718239
    255          1           0        6.606073    4.627146   -8.485235
    256          1           0        1.647244    3.345346   -8.494836
    257          6           0        1.084367    2.423893   -8.625356
    258          1           0        0.758168    2.359245   -9.661650
    259          6           0        1.944331    1.215441   -8.250669
    260          1           0        1.365328    0.300398   -8.393986
    261          1           0        2.817846    1.173884   -8.906578
    262          6           0        2.381787    1.332449   -6.818768
    263          6           0        1.709093    0.663731   -5.806164
    264          1           0        0.889806    0.003964   -6.058880
    265          6           0        2.074759    0.837463   -4.482417
    266          1           0        1.545724    0.312643   -3.700323
    267          6           0        3.113902    1.689430   -4.157980
    268          1           0        3.403178    1.837584   -3.131781
    269          6           0        3.785657    2.365845   -5.162081
    270          1           0        4.576500    3.054398   -4.899299
    271          6           0        3.425773    2.185213   -6.483810
    272          1           0        3.947940    2.715128   -7.269251
    273          1           0        0.204883    2.469935   -7.987121
    274          1           0       -3.507481    0.787540   -5.148407
    275          6           0       -3.901682   -0.146027   -4.744346
    276          1           0       -3.713241   -0.957062   -5.444942
    277          6           0       -3.242949   -0.434340   -3.383359
    278          1           0       -3.812299   -1.230285   -2.890261
    279          6           0       -1.801770   -0.907905   -3.556684
    280          1           0       -1.222688   -0.173569   -4.113913
    281          1           0       -1.336575   -1.044942   -2.582372
    282          1           0       -1.768019   -1.858618   -4.082461
    283          6           0       -3.285881    0.809501   -2.502286
    284          1           0       -4.308916    1.157794   -2.397511
    285          1           0       -2.899463    0.587579   -1.510530
    286          1           0       -2.688271    1.608373   -2.937849
    287          6           0       -5.407971    0.005578   -4.539723
    288          8           0       -5.945078    1.060292   -4.236508
    289          7           0       -6.071074   -1.163662   -4.653561
    290          1           0       -5.629992   -1.847541   -5.286191
    291          6           0       -7.518112   -1.264562   -4.575931
    292          1           0       -7.916376   -0.245493   -4.498968
    293          6           0       -8.093271   -1.977669   -5.815826
    294          1           0       -7.986665   -3.057512   -5.674118
    295          1           0       -9.165000   -1.763754   -5.856379
    296          6           0       -7.434248   -1.565498   -7.143252
    297          1           0       -8.168406   -1.626154   -7.948333
    298          1           0       -7.071532   -0.537527   -7.076076
    299          6           0       -6.244278   -2.488858   -7.543877
    300          8           0       -5.222720   -2.423992   -6.797666
    301          8           0       -6.372841   -3.228496   -8.513527
    302          6           0       -7.865021   -2.067196   -3.328832
    303          8           0       -7.345994   -3.146858   -3.081810
    304          7           0       -8.779376   -1.499664   -2.535359
    305          1           0       -9.259392   -0.653959   -2.813933
    306          6           0       -9.254586   -2.097051   -1.312746
    307          1           0       -9.497833   -3.152203   -1.520283
    308          6           0       -8.187341   -2.090259   -0.204820
    309          1           0       -8.546725   -2.675485    0.642734
    310          1           0       -7.304919   -2.593671   -0.604240
    311          6           0       -7.778464   -0.700428    0.267507
    312          1           0       -8.630427   -0.029051    0.353816
    313          1           0       -7.285211   -0.768346    1.236626
    314         16           0       -6.569790    0.063764   -0.886400
    315          6           0       -7.523844    1.465976   -1.519156
    316          1           0       -7.440478    2.299846   -0.826287
    317          1           0       -7.089507    1.720521   -2.482071
    318          1           0       -8.561431    1.169713   -1.633024
    319          6           0      -10.571597   -1.411398   -0.937302
    320          8           0      -11.137784   -0.659326   -1.716102
    321          7           0      -11.073623   -1.773048    0.248671
    322          1           0      -10.507577   -2.255809    0.942067
    323          6           0      -12.389054   -1.371981    0.688985
    324          1           0      -12.941704   -1.065825   -0.207056
    325          6           0      -13.093914   -2.564246    1.365671
    326          1           0      -12.465634   -2.882996    2.202843
    327          6           0      -14.463329   -2.152131    1.899358
    328          1           0      -15.091869   -1.775201    1.094089
    329          1           0      -14.959913   -3.010242    2.345815
    330          1           0      -14.370009   -1.380761    2.659578
    331          6           0      -13.230623   -3.720283    0.378709
    332          1           0      -12.256703   -4.025769    0.006735
    333          1           0      -13.695524   -4.574267    0.864700
    334          1           0      -13.847723   -3.426571   -0.468474
    335          6           0      -12.307682   -0.201284    1.674423
    336          8           0      -11.571263   -0.225207    2.646462
    337          7           0      -13.149733    0.806153    1.401561
    338          1           0      -13.671605    0.789947    0.539372
    339          6           0      -13.262645    1.996859    2.213066
    340          1           0      -12.551916    1.871267    3.033476
    341          6           0      -12.933358    3.278520    1.423276
    342          1           0      -12.482934    2.991957    0.470985
    343          1           0      -13.843701    3.842602    1.215433
    344          6           0      -11.960798    4.142421    2.154994
    345          6           0      -12.195579    5.336659    2.769079
    346          1           0      -13.111019    5.892902    2.844886
    347          7           0      -11.038459    5.818496    3.321446
    348          1           0      -10.944639    6.689907    3.813383
    349          6           0      -10.026665    4.935604    3.072180
    350          6           0       -8.680695    4.982476    3.413351
    351          1           0       -8.274540    5.815014    3.969380
    352          6           0       -7.885266    3.930467    3.014877
    353          1           0       -6.834446    3.934384    3.261353
    354          6           0       -8.411715    2.851115    2.298320
    355          1           0       -7.752014    2.042437    2.021930
    356          6           0       -9.743860    2.799502    1.956511
    357          1           0      -10.146997    1.964301    1.405662
    358          6           0      -10.571718    3.855215    2.340033
    359          1           0      -14.273360    2.049340    2.631372
    360          1           0      -12.845420    2.738712   -3.032910
    361          6           0      -11.960068    2.251159   -3.436671
    362          1           0      -12.085557    2.131935   -4.511051
    363          6           0      -10.724448    3.079202   -3.145964
    364          1           0       -9.826390    2.606891   -3.542800
    365          1           0      -10.815676    4.088756   -3.548478
    366         16           0      -10.519346    3.220284   -1.327219
    367          1           0       -9.352967    3.854965   -1.357762
    368          1           0      -11.865365    1.266901   -2.981546
    369          1           0       -6.202945    4.106002   -4.297565
    370          6           0       -5.524621    4.802809   -3.810916
    371          1           0       -5.941008    5.805133   -3.890224
    372          6           0       -5.317237    4.391535   -2.358079
    373          1           0       -6.245257    4.542706   -1.799176
    374          1           0       -5.090148    3.325249   -2.338163
    375          6           0       -4.181098    5.141143   -1.655944
    376          1           0       -3.279314    5.056758   -2.272856
    377          6           0       -4.503726    6.621183   -1.474337
    378          1           0       -5.399248    6.739164   -0.866142
    379          1           0       -3.682563    7.116494   -0.963459
    380          1           0       -4.661229    7.112686   -2.431488
    381          6           0       -3.894823    4.504726   -0.297543
    382          1           0       -3.648085    3.452655   -0.414696
    383          1           0       -3.062441    5.004678    0.192716
    384          1           0       -4.767816    4.583209    0.348436
    385          1           0       -4.578468    4.778833   -4.346804
    386          1           0       -0.227696    5.590176   -4.884078
    387          6           0        0.715079    5.967350   -4.492973
    388          1           0        0.496827    6.755357   -3.774584
    389          6           0        1.514218    4.848097   -3.834107
    390          1           0        1.760627    4.099294   -4.594867
    391          6           0        2.812355    5.410174   -3.262853
    392          1           0        2.575087    6.157927   -2.506846
    393          1           0        3.410628    4.620960   -2.814811
    394          1           0        3.395541    5.889645   -4.048477
    395          6           0        0.697500    4.167978   -2.738581
    396          1           0       -0.216804    3.746609   -3.150915
    397          1           0        1.269602    3.361371   -2.287645
    398          1           0        0.424379    4.879110   -1.960790
    399          1           0        1.274892    6.407876   -5.315753
    400          1           0        6.918544    4.126775   -4.478150
    401          6           0        7.025831    4.631230   -3.519711
    402          1           0        6.075018    5.095223   -3.268712
    403          6           0        7.406539    3.634028   -2.433798
    404          1           0        8.259822    3.024758   -2.732693
    405          1           0        7.655798    4.154170   -1.505126
    406          6           0        6.232045    2.725826   -2.124090
    407          8           0        5.093897    3.119588   -2.071385
    408          8           0        6.586937    1.472985   -1.928824
    409          1           0        5.770215    0.898584   -1.764552
    410          1           0        7.783492    5.405055   -3.625106
    411          1           0       12.444584    3.887834   -2.165885
    412          6           0       13.131656    3.091295   -2.444648
    413          1           0       13.492736    2.616194   -1.534694
    414          6           0       12.435641    2.073852   -3.339333
    415          1           0       12.099073    2.553542   -4.260431
    416          1           0       13.134566    1.281519   -3.614849
    417          6           0       11.243248    1.457567   -2.629168
    418          1           0       11.554219    0.986308   -1.694614
    419          1           0       10.484903    2.212866   -2.414278
    420         16           0       10.472925    0.157917   -3.658464
    421          6           0        9.334088   -0.512620   -2.415737
    422          1           0        8.515395    0.179515   -2.238561
    423          1           0        8.947667   -1.446606   -2.810162
    424          1           0        9.898006   -0.686570   -1.503409
    425          1           0       13.979843    3.534833   -2.960260
    426          1           0       11.744870    2.853036    2.311087
    427          6           0       10.961267    2.879668    1.557424
    428          1           0       11.426490    2.960799    0.576591
    429          6           0       10.091842    1.630082    1.637584
    430          1           0       10.697875    0.741596    1.439444
    431          1           0        9.684333    1.534802    2.645928
    432          6           0        8.944535    1.663263    0.637325
    433          1           0        9.300950    1.990238   -0.338106
    434          1           0        8.483223    0.683311    0.539177
    435         16           0        7.604978    2.819001    1.111340
    436          6           0        6.377280    1.628883    1.713086
    437          1           0        6.784465    1.089376    2.564261
    438          1           0        5.499770    2.192607    2.014584
    439          1           0        6.118976    0.942720    0.910593
    440          1           0       10.348073    3.762861    1.722911
    441          1           0        5.977513    5.805574    1.130815
    442          6           0        5.260568    5.926505    0.318533
    443          1           0        5.783528    5.810475   -0.632007
    444          6           0        4.171495    4.863384    0.433687
    445          1           0        3.652741    4.928852    1.386647
    446          1           0        3.450005    4.958834   -0.373100
    447          1           0        4.624911    3.879413    0.357651
    448          6           0        4.693086    7.335250    0.410123
    449          8           0        4.752633    8.017836    1.413527
    450          7           0        4.066363    7.783589   -0.717536
    451          1           0        4.114585    7.202827   -1.542064
    452          6           0        3.840108    9.200364   -0.956525
    453          1           0        4.004309    9.689024    0.012329
    454          6           0        4.852975    9.732537   -1.987963
    455          1           0        4.653207    9.252711   -2.947962
    456          1           0        4.689588   10.804017   -2.106185
    457          6           0        6.247278    9.445558   -1.517426
    458          6           0        6.893961    8.274295   -1.885171
    459          1           0        6.424836    7.599378   -2.586682
    460          6           0        8.136802    7.954314   -1.370069
    461          1           0        8.621332    7.028280   -1.652752
    462          6           0        8.760891    8.814040   -0.477434
    463          8           0        9.987037    8.539615    0.054468
    464          1           0       10.262406    7.656126   -0.217565
    465          6           0        8.131494   10.000596   -0.117203
    466          1           0        8.627974   10.661899    0.574868
    467          6           0        6.886092   10.301923   -0.628249
    468          1           0        6.396587   11.216752   -0.328005
    469          6           0        2.402913    9.492819   -1.420831
    470          8           0        2.148607    9.912651   -2.532435
    471          7           0        1.482859    9.308762   -0.457924
    472          1           0        1.754680    8.834468    0.391497
    473          6           0        0.059436    9.453211   -0.687634
    474          1           0       -0.059548   10.040101   -1.599926
    475          6           0       -0.615472    8.080596   -0.842456
    476          1           0       -1.682647    8.237497   -1.005221
    477          1           0       -0.204749    7.596755   -1.731773
    478          6           0       -0.406216    7.197537    0.347195
    479          6           0        0.688785    6.411389    0.603249
    480          1           0        1.582644    6.297958    0.019587
    481          7           0        0.528169    5.716268    1.760237
    482          1           0        1.208015    5.084090    2.193496
    483          6           0       -0.681312    6.035784    2.288155
    484          6           0       -1.306074    5.563762    3.437641
    485          1           0       -0.818587    4.826516    4.057421
    486          6           0       -2.554104    6.060773    3.737889
    487          1           0       -3.071898    5.712684    4.620186
    488          6           0       -3.172137    7.011948    2.918109
    489          1           0       -4.150642    7.381009    3.192575
    490          6           0       -2.566069    7.478438    1.774409
    491          1           0       -3.057247    8.214693    1.153182
    492          6           0       -1.306297    6.983121    1.432989
    493          1           0       -0.374535    9.992321    0.159409
    494          1           0       -8.071048    9.187285   -2.953683
    495          6           0       -8.221863    8.218435   -2.481533
    496          1           0       -7.323746    7.973749   -1.922273
    497          6           0       -9.443337    8.255699   -1.571702
    498          1           0       -9.269266    8.962985   -0.757160
    499          1           0      -10.299681    8.619643   -2.146284
    500          6           0       -9.796363    6.886235   -0.983320
    501          1           0       -9.886335    6.176480   -1.813283
    502          6           0       -8.718851    6.385471   -0.025201
    503          1           0       -8.541665    7.116241    0.761192
    504          1           0       -9.029542    5.455092    0.444734
    505          1           0       -7.780839    6.208102   -0.544704
    506          6           0      -11.141665    6.946079   -0.264039
    507          1           0      -11.925377    7.288450   -0.937197
    508          1           0      -11.411937    5.961774    0.109921
    509          1           0      -11.089351    7.632477    0.578900
    510          1           0       -8.352480    7.473742   -3.264420
    511          6           0        3.484964   -0.052733   -0.873632
    512          8           0        4.497271   -0.029002   -1.581384
    513          6           0        2.776290    1.120161   -0.464869
    514          6           0        1.638998    1.091531    0.268424
    515          6           0        0.967252   -0.201479    0.634559
    516          6           0        1.436615   -1.328530   -0.289763
    517          6           0        2.955595   -1.355192   -0.343134
    518          6           0        1.100453    2.339179    0.847996
    519          6           0       -0.418262    2.399630    0.951095
    520          6           0       -0.963759    1.115478    1.567003
    521          6           0       -0.568325   -0.063780    0.662029
    522          6           0       -2.480378    1.167545    1.691749
    523          6           0       -3.100514   -0.138028    2.209236
    524          6           0       -2.755766   -1.258415    1.234062
    525          6           0       -1.237227   -1.375689    1.092382
    526          6           0       -3.114264    2.222473    2.597934
    527          6           0       -4.566558    1.730739    2.738490
    528          6           0       -4.587348    0.274426    2.226907
    529          6           0       -2.666466   -0.516847    3.629791
    530          8           0       -5.423377   -0.519140    3.041834
    531          1           0        3.222299    2.070652   -0.725467
    532          1           0        1.305718   -0.434167    1.653853
    533          1           0        1.034697   -1.169366   -1.294324
    534          1           0        1.076745   -2.293333    0.067946
    535          1           0        3.347994   -1.462935    0.672690
    536          1           0        3.337611   -2.180865   -0.943720
    537          1           0        1.487251    3.209060    0.317484
    538          1           0        1.525256    2.375883    1.867344
    539          1           0       -0.851807    2.541207   -0.043169
    540          1           0       -0.703049    3.256059    1.560946
    541          1           0       -0.506198    0.988801    2.552216
    542          1           0       -0.907074    0.169038   -0.354879
    543          1           0       -2.881505    1.325249    0.682487
    544          1           0       -3.201860   -1.046684    0.259250
    545          1           0       -3.152397   -2.213066    1.587307
    546          1           0       -0.816772   -1.698314    2.046462
    547          1           0       -1.027155   -2.152957    0.355735
    548          1           0       -3.069141    3.222167    2.171182
    549          1           0       -2.607187    2.244010    3.561922
    550          1           0       -5.243239    2.344352    2.146957
    551          1           0       -4.912248    1.748847    3.771372
    552          1           0       -4.963920    0.251507    1.194042
    553          1           0       -1.611893   -0.321498    3.795097
    554          1           0       -3.236435    0.040286    4.366907
    555          1           0       -2.849914   -1.576730    3.787828
    556          1           0       -5.344903   -1.433792    2.740775
    557          8           0        3.040144   -0.582283    3.263856
    558          1           0        3.994379   -0.662095    3.238151
    559          1           0        2.873290    0.386252    3.324913
    560          8           0        1.414450   -2.696026    4.140057
    561          1           0        0.676393   -2.582844    3.536998
    562          1           0        2.012866   -1.952329    3.946343
    563          8           0       -0.221728   -1.491000    8.554672
    564          1           0        0.198544   -2.330101    8.293827
    565          1           0        0.307399   -0.786409    8.173294
    566          8           0       -5.279875   -5.910200    5.282628
    567          1           0       -4.957859   -5.555904    6.122588
    568          1           0       -5.670091   -5.161193    4.813010
    569          8           0       -5.779598   -3.356783    3.899925
    570          1           0       -5.741622   -2.579967    4.463864
    571          1           0       -4.863018   -3.557117    3.647315
    572          8           0       -9.890723   -2.446601    2.715046
    573          1           0       -9.053556   -2.388505    3.180539
    574          1           0      -10.382514   -1.628989    2.915751
 ---------------------------------------------------------------------
 Rotational constants (GHZ):           0.0033876           0.0022931           0.0022038
 Standard basis: 6-31G(d) (6D, 7F)
 There are  4366 symmetry adapted cartesian basis functions of A   symmetry.
 There are  4366 symmetry adapted basis functions of A   symmetry.
  4366 basis functions,  8320 primitive gaussians,  4366 cartesian basis functions
   969 alpha electrons      969 beta electrons
       nuclear repulsion energy    103800.0066523085 Hartrees.
 NAtoms=  574 NActive=  574 NUniq=  574 SFac= 1.00D+00 NAtFMM=   60 NAOKFM=T Big=T
 Integral buffers will be    131072 words long.
 Raffenetti 2 integral format.
 Two-electron integral symmetry is turned on.
 Nuclear repulsion after empirical dispersion term =   103799.2548409650 Hartrees.
 One-electron integrals computed using PRISM.
 NBasis=  4366 RedAO= T EigKep=  3.30D-04  NBF=  4366
 NBsUse=  4366 1.00D-06 EigRej= -1.00D+00 NBFU=  4366
 ExpMin= 1.17D-01 ExpMax= 2.19D+04 ExpMxC= 3.30D+03 IAcc=3 IRadAn=         5 AccDes= 0.00D+00
 Harris functional with IExCor= 4639 and IRadAn=       5 diagonalized for initial guess.
 HarFok:  IExCor= 4639 AccDes= 0.00D+00 IRadAn=         5 IDoV= 1 UseB2=F ITyADJ=14
 ICtDFT=  3500011 ScaDFX=  1.000000  1.000000  1.000000  1.000000
 FoFCou: FMM=F IPFlag=           0 FMFlag=      100000 FMFlg1=        2001
         NFxFlg=           0 DoJE=T BraDBF=F KetDBF=T FulRan=T
         wScrn=  0.000000 ICntrl=       500 IOpCl=  0 I1Cent=   200000004 NGrid=           0
         NMat0=    1 NMatS0=      1 NMatT0=    0 NMatD0=    1 NMtDS0=    0 NMtDT0=    0
 Petite list used in FoFCou.
 Requested convergence on RMS density matrix=1.00D-08 within 128 cycles.
 Requested convergence on MAX density matrix=1.00D-06.
 Requested convergence on             energy=1.00D-06.
 No special actions if energy rises.
 Integral accuracy reduced to 1.0D-05 until final iterations.
 Initial convergence to 1.0D-05 achieved.  Increase integral accuracy.
 SCF Done:  E(RwB97XD) =  -12873.7315910     A.U. after   16 cycles
            NFock= 16  Conv=0.12D-08     -V/T= 2.0079
 Hyperfine terms turned off by default for NAtoms > 100.

 **********************************************************************

            Population analysis using the SCF Density.

 **********************************************************************

 Orbital symmetries:
       Occupied  (A) (A) (A) (A) (A) (A) (A) (A) (A) (A) (A) (A)
                 (A) (A) (A) (A) (A) (A) (A) (A) (A) (A) (A) (A)
                 (A) (A) (A) (A) (A) (A) (A) (A) (A) (A) (A) (A)
                 (A) (A) (A) (A) (A) (A) (A) (A) (A) (A) (A) (A)
                 (A) (A) (A) (A) (A) (A) (A) (A) (A) (A) (A) (A)
                 (A) (A) (A) (A) (A) (A) (A) (A) (A) (A) (A) (A)
                 (A) (A) (A) (A) (A) (A) (A) (A) (A) (A) (A) (A)
                 (A) (A) (A) (A) (A) (A) (A) (A) (A) (A) (A) (A)
                 (A) (A) (A) (A) (A) (A) (A) (A) (A) (A) (A) (A)
                 (A) (A) (A) (A) (A) (A) (A) (A) (A) (A) (A) (A)
                 (A) (A) (A) (A) (A) (A) (A) (A) (A) (A) (A) (A)
                 (A) (A) (A) (A) (A) (A) (A) (A) (A) (A) (A) (A)
                 (A) (A) (A) (A) (A) (A) (A) (A) (A) (A) (A) (A)
                 (A) (A) (A) (A) (A) (A) (A) (A) (A) (A) (A) (A)
                 (A) (A) (A) (A) (A) (A) (A) (A) (A) (A) (A) (A)
                 (A) (A) (A) (A) (A) (A) (A) (A) (A) (A) (A) (A)
                 (A) (A) (A) (A) (A) (A) (A) (A) (A) (A) (A) (A)
                 (A) (A) (A) (A) (A) (A) (A) (A) (A) (A) (A) (A)
                 (A) (A) (A) (A) (A) (A) (A) (A) (A) (A) (A) (A)
                 (A) (A) (A) (A) (A) (A) (A) (A) (A) (A) (A) (A)
                 (A) (A) (A) (A) (A) (A) (A) (A) (A) (A) (A) (A)
                 (A) (A) (A) (A) (A) (A) (A) (A) (A) (A) (A) (A)
                 (A) (A) (A) (A) (A) (A) (A) (A) (A) (A) (A) (A)
                 (A) (A) (A) (A) (A) (A) (A) (A) (A) (A) (A) (A)
                 (A) (A) (A) (A) (A) (A) (A) (A) (A) (A) (A) (A)
                 (A) (A) (A) (A) (A) (A) (A) (A) (A) (A) (A) (A)
                 (A) (A) (A) (A) (A) (A) (A) (A) (A) (A) (A) (A)
                 (A) (A) (A) (A) (A) (A) (A) (A) (A) (A) (A) (A)
                 (A) (A) (A) (A) (A) (A) (A) (A) (A) (A) (A) (A)
                 (A) (A) (A) (A) (A) (A) (A) (A) (A) (A) (A) (A)
                 (A) (A) (A) (A) (A) (A) (A) (A) (A) (A) (A) (A)
                 (A) (A) (A) (A) (A) (A) (A) (A) (A) (A) (A) (A)
[...]
  523 Atom       -0.037234      0.010501      0.026733
  524 Atom       -0.039381      0.005702      0.033679
  525 Atom       -0.023438     -0.000751      0.024189
  526 Atom       -0.058463      0.003470      0.054994
  527 Atom       -0.043261     -0.001129      0.044391
  528 Atom       -0.340579      0.125853      0.214726
  529 Atom       -0.036124      0.009493      0.026631
  530 Atom       -1.556829     -0.135120      1.691949
  531 Atom       -0.301275      0.139497      0.161777
  532 Atom       -0.269849      0.132431      0.137418
  533 Atom       -0.290583      0.142468      0.148116
  534 Atom       -0.296585      0.145469      0.151116
  535 Atom       -0.288029      0.138603      0.149426
  536 Atom       -0.293488      0.143984      0.149504
  537 Atom       -0.297380      0.139157      0.158223
  538 Atom       -0.237044      0.115919      0.121125
  539 Atom       -0.289831      0.142232      0.147598
  540 Atom       -0.294494      0.144907      0.149587
  541 Atom       -0.286167      0.142266      0.143901
  542 Atom       -0.280133      0.139298      0.140835
  543 Atom       -0.277273      0.135447      0.141826
  544 Atom       -0.290209      0.143273      0.146935
  545 Atom       -0.288005      0.139811      0.148195
  546 Atom       -0.302432      0.149466      0.152966
  547 Atom       -0.294629      0.145183      0.149446
  548 Atom       -0.297293      0.146443      0.150851
  549 Atom       -0.299405      0.147888      0.151517
  550 Atom       -0.301619      0.149471      0.152148
  551 Atom       -0.300253      0.149689      0.150564
  552 Atom       -0.257030      0.119935      0.137095
  553 Atom       -0.309736      0.152191      0.157544
  554 Atom       -0.307624      0.147849      0.159775
  555 Atom       -0.294873      0.143717      0.151156
  556 Atom       -0.436986      0.193445      0.243541
  557 Atom       -1.384889     -0.114630      1.499519
  558 Atom       -0.484103      0.216738      0.267365
  559 Atom       -0.334660      0.138825      0.195835
  560 Atom       -1.470729     -0.151794      1.622523
  561 Atom       -0.477233      0.210540      0.266693
  562 Atom       -0.376887      0.157884      0.219003
  563 Atom       -1.403318     -0.112788      1.516106
  564 Atom       -0.382315      0.163880      0.218436
  565 Atom       -0.466419      0.206448      0.259971
  566 Atom       -1.440980     -0.127953      1.568932
  567 Atom       -0.420463      0.181770      0.238693
  568 Atom       -0.422224      0.184510      0.237713
  569 Atom       -1.404391     -0.036330      1.440721
  570 Atom       -0.467398      0.209471      0.257927
  571 Atom       -0.389671      0.171627      0.218045
  572 Atom       -1.422251     -0.157314      1.579565
  573 Atom       -0.473907      0.210619      0.263288
  574 Atom       -0.377927      0.158526      0.219401
 -----------------------------------------------------
 Unable to Open any file for archive entry.
 1\1\GINC-EXP-1-45\SP\RwB97XD\6-31G(d)\C190H328N19O32S5(1-)\HKLEM\11-Ju
 l-2024\0\\# wb97xd/6-31G(d) prop=efg\\19nt_xstal_distance_cutoff6_xtb_
 conf_1\\-1,1\H,0,46.9472,33.6413,30.8312\C,0,46.309,34.451,30.471\H,0,
 45.8954,34.1735,29.5006\C,0,45.1614,34.6988,31.4628\H,0,44.5203,33.813
 7,31.4838\H,0,45.5686,34.8448,32.4662\C,0,44.3639,35.9122,31.0718\C,0,
 43.3407,35.8492,30.139\H,0,43.0978,34.9027,29.674\C,0,42.6186,36.9814,
 29.7959\H,0,41.8307,36.9207,29.0579\C,0,42.9171,38.2067,30.3812\O,0,42
 .2201,39.3353,30.1146\H,0,41.4547,39.1574,29.5427\C,0,43.9662,38.2842,
 31.2944\H,0,44.1938,39.2427,31.7294\C,0,44.67,37.1486,31.6286\H,0,45.4
 74,37.2143,32.3446\C,0,47.1427,35.7138,30.2484\O,0,47.0542,36.3755,29.
 2331\N,0,47.9869,36.033,31.2536\H,0,48.0563,35.4348,32.0615\C,0,48.938
 ,37.126,31.156\H,0,48.5161,37.8483,30.4554\C,0,49.2537,37.7846,32.5008
 \H,0,49.6368,37.0076,33.1763\C,0,50.3611,38.8186,32.297\H,0,50.0674,39
 .5555,31.5548\H,0,50.5676,39.3328,33.2322\H,0,51.2769,38.339,31.9562\C
 ,0,48.0249,38.406,33.1772\H,0,47.332,37.6055,33.4456\H,0,48.346,38.865
 1,34.1144\C,0,47.2973,39.4488,32.34\H,0,46.884,39.0106,31.4367\H,0,46.
 4808,39.8767,32.9153\H,0,47.9659,40.2595,32.0658\H,0,49.8741,36.7457,3
 0.7219\H,0,47.7886,38.0749,26.9096\C,0,48.106,39.077,26.631\H,0,47.367
 7,39.499,25.952\C,0,48.2337,39.9462,27.8795\H,0,48.9681,39.4823,28.548
 4\C,0,48.7183,41.3521,27.5311\H,0,48.0554,41.8122,26.8018\H,0,48.7333,
 41.9805,28.4191\H,0,49.7248,41.3299,27.1181\C,0,46.8905,40.0022,28.600
 7\H,0,46.5696,38.9993,28.8761\H,0,46.9631,40.6076,29.501\H,0,46.1354,4
 0.4396,27.9503\H,0,49.0575,39.0088,26.1063\H,0,43.4856,34.4649,24.4872
 \C,0,42.595,34.659,25.081\H,0,42.6239,34.0166,25.959\C,0,42.5316,36.12
 47,25.5029\H,0,42.5347,36.7497,24.602\C,0,41.2294,36.3783,26.258\H,0,4
 1.159,35.7243,27.1254\H,0,41.1731,37.4113,26.5857\H,0,40.3714,36.1811,
 25.6174\C,0,43.7633,36.483,26.3423\H,0,43.6922,35.9992,27.3175\H,0,44.
 6508,36.0848,25.8452\C,0,43.9591,37.98,26.542\H,0,43.1255,38.4228,27.0
 794\H,0,44.8632,38.1539,27.1186\H,0,44.0527,38.4857,25.5825\H,0,41.722
 7,34.3899,24.4882\H,0,37.3242,32.1477,29.0068\C,0,36.634,32.654,28.336
 \H,0,35.8466,33.1061,28.9352\C,0,37.3662,33.7263,27.5277\H,0,38.1442,3
 3.2533,26.924\H,0,36.6611,34.2152,26.8527\C,0,37.984,34.7406,28.4464\C
 ,0,39.1806,34.4611,29.0937\H,0,39.6799,33.5215,28.9055\C,0,39.7462,35.
 3636,29.9726\H,0,40.6738,35.1304,30.4755\C,0,39.1234,36.5831,30.2125\O
 ,0,39.6593,37.5229,31.034\H,0,40.5759,37.2981,31.2486\C,0,37.9103,36.8
 635,29.5894\H,0,37.4109,37.7941,29.8163\C,0,37.3518,35.946,28.7194\H,0
 ,36.4094,36.1747,28.2419\H,0,36.1866,31.9151,27.6749\H,0,36.2863,46.23
 47,32.6101\C,0,37.339,46.524,32.531\H,0,37.7951,46.4642,33.5149\C,0,38
 .0646,45.5889,31.5649\H,0,37.9758,44.5501,31.8946\H,0,37.6394,45.6715,
 30.5627\C,0,39.5675,45.9522,31.484\O,0,40.007,46.7407,32.3359\O,0,40.2
 421,45.4079,30.582\C,0,37.3928,47.9331,31.9685\O,0,37.1987,48.1696,30.
 7838\N,0,37.6165,48.9352,32.8374\C,0,37.6707,50.3122,32.3755\H,0,36.85
 28,50.4972,31.6751\H,0,38.6171,50.4932,31.8541\C,0,37.5881,51.1363,33.
 6541\H,0,36.5469,51.2723,33.9519\H,0,38.0553,52.1131,33.5449\C,0,38.31
 38,50.2439,34.6581\H,0,38.068,50.4756,35.693\H,0,39.3908,50.3429,34.51
 92\C,0,37.862,48.838,34.26\H,0,38.6312,48.0959,34.4825\H,0,36.9442,48.
 5544,34.79\H,0,36.9507,43.6848,22.4182\C,0,37.404,44.342,23.165\H,0,37
 .1525,45.3745,22.9174\C,0,36.8488,43.9972,24.5575\H,0,35.7607,43.9339,
 24.4776\H,0,37.2189,43.0202,24.8784\C,0,37.1996,45.0332,25.5939\C,0,36
 .4641,46.2113,25.6644\H,0,35.669,46.3848,24.9519\C,0,36.7218,47.1448,2
 6.6535\H,0,36.1282,48.045,26.7105\C,0,37.7195,46.9134,27.5873\H,0,37.8
 815,47.6105,28.3949\C,0,38.48,45.7584,27.5016\H,0,39.256,45.5776,28.22
 86\C,0,38.2252,44.8261,26.5076\H,0,38.8175,43.9228,26.4555\C,0,38.9109
 ,44.1777,23.0804\O,0,39.6689,45.1136,22.8368\N,0,39.3727,42.9327,23.22
 71\H,0,38.7535,42.193,23.5181\C,0,40.793,42.627,23.19\H,0,41.2917,43.1
 44,24.0189\C,0,41.0209,41.1222,23.2935\H,0,40.4287,40.607,22.5334\H,0,
 42.0759,40.9268,23.0944\C,0,40.6753,40.6132,24.6658\C,0,39.5408,39.850
 7,24.8973\H,0,38.8831,39.5932,24.0776\C,0,39.2439,39.3846,26.1674\H,0,
 38.3662,38.7746,26.336\C,0,40.0904,39.6832,27.2246\O,0,39.8742,39.2052
 ,28.486\H,0,39.0671,38.6746,28.5241\C,0,41.2173,40.4722,27.01\H,0,41.8
 617,40.7116,27.8406\C,0,41.5011,40.9264,25.7406\H,0,42.3732,41.5392,25
 .5813\H,0,41.1961,43.016,22.249\H,0,40.7006,46.0656,20.3093\C,0,40.965
 ,47.122,20.245\H,0,41.2106,47.373,19.2146\C,0,39.7882,47.9737,20.7507\
 H,0,39.8593,48.0775,21.8335\H,0,39.8466,48.972,20.3157\C,0,38.4509,47.
 3234,20.3946\H,0,38.3684,47.1994,19.3138\H,0,38.4012,46.3404,20.8672\C
 ,0,37.2545,48.1421,20.8588\O,0,36.4343,48.5975,20.0856\N,0,37.1421,48.
 2682,22.195\H,0,36.4124,48.8693,22.5426\H,0,37.8897,48.0215,22.8388\C,
 0,42.1789,47.3837,21.1285\O,0,43.0433,48.1968,20.8529\N,0,42.2253,46.6
 379,22.2602\H,0,41.4265,46.0568,22.4844\C,0,43.146,46.945,23.342\H,0,4
 3.283,48.0314,23.395\H,0,42.7053,46.6109,24.2831\C,0,44.5364,46.3305,2
 3.2296\O,0,45.4111,46.6575,24.0247\N,0,44.7105,45.4297,22.2675\H,0,43.
 9509,45.273,21.6226\C,0,45.975,44.783,22.003\H,0,46.7076,45.2357,22.67
 07\C,0,45.8906,43.2722,22.2344\H,0,45.2278,42.8338,21.4828\H,0,46.8863
 ,42.8505,22.0851\C,0,45.379,42.8809,23.6279\H,0,44.3702,43.2899,23.755
 2\C,0,45.2979,41.3578,23.7327\H,0,46.2905,40.9201,23.646\H,0,44.8777,4
 1.0609,24.691\H,0,44.6746,40.9445,22.9414\C,0,46.2674,43.4342,24.7393\
 H,0,46.2173,44.518,24.7772\H,0,45.9388,43.0501,25.7025\H,0,47.3028,43.
 1373,24.5856\H,0,46.2728,44.9957,20.9733\H,0,51.6513,46.3328,23.518\C,
 0,51.425,46.229,24.579\H,0,51.6197,47.1681,25.0958\C,0,49.9413,45.8433
 ,24.7478\H,0,49.7886,44.8664,24.2741\C,0,49.5534,45.7403,26.2207\H,0,4
 9.7792,46.669,26.7403\H,0,48.4865,45.5523,26.3094\H,0,50.0801,44.9271,
 26.7145\C,0,49.0604,46.872,24.0435\H,0,49.2855,46.9241,22.9813\H,0,48.
 0115,46.6124,24.157\H,0,49.2095,47.8589,24.4732\C,0,52.3224,45.1494,25
 .145\O,0,52.7269,44.2291,24.4187\N,0,52.6276,45.222,26.4523\H,0,52.409
 4,46.0748,26.9594\C,0,53.483,44.204,27.048\H,0,53.6599,43.572,26.1856\
 C,0,54.8417,44.7225,27.5023\H,0,54.7265,45.6925,27.9768\H,0,55.255,44.
 0552,28.2594\C,0,55.8355,44.876,26.3415\H,0,55.6048,45.7862,25.7862\H,
 0,56.8289,44.9965,26.7759\C,0,55.8491,43.7236,25.3158\H,0,55.0613,43.8
 668,24.5773\H,0,56.8061,43.7307,24.7857\N,0,55.6903,42.4185,25.937\H,0
 ,56.3424,42.2405,26.6878\C,0,54.6527,41.591,25.8267\N,0,53.717,41.7259
 ,24.8945\H,0,53.4314,42.664,24.5454\H,0,52.9291,41.1007,24.9785\N,0,54
 .6443,40.4791,26.5909\H,0,55.2764,40.4329,27.374\H,0,53.7389,40.0659,2
 6.7603\C,0,52.7994,43.2094,27.9967\O,0,52.4614,42.1204,27.5197\N,0,52.
 6775,43.5422,29.2664\H,0,53.2026,44.3608,29.654\C,0,52.18,42.582,30.22
 4\H,0,51.5525,41.8623,29.6917\C,0,53.3284,41.8703,30.9351\H,0,53.9955,
 42.606,31.3779\H,0,52.9424,41.2227,31.7179\H,0,53.895,41.2658,30.2294\
 H,0,51.5773,43.1158,30.9619\H,0,45.529,38.2807,40.6887\C,0,46.46,38.72
 3,40.34\H,0,47.24,38.4989,41.0635\C,0,46.8329,38.1726,38.9673\H,0,47.7
 773,38.6091,38.6358\H,0,46.9717,37.091,39.026\C,0,45.7582,38.4808,37.9
 39\H,0,44.8055,38.029,38.2237\H,0,45.631,39.558,37.8242\S,0,46.21,37.8
 17,36.2972\C,0,44.8142,38.5001,35.3671\H,0,44.8858,39.5836,35.3538\H,0
 ,44.8739,38.1175,34.3557\H,0,43.8888,38.1683,35.828\H,0,46.3306,39.802
 5,40.2966\H,0,49.5434,42.9058,37.7905\C,0,50.254,42.792,36.975\H,0,51.
 248,42.6543,37.3963\C,0,49.8687,41.6027,36.0933\H,0,50.5961,41.5004,35
 .2849\H,0,49.8889,40.6868,36.6897\C,0,48.4939,41.8182,35.5286\C,0,48.3
 151,42.3152,34.2456\H,0,49.18,42.4988,33.6222\C,0,47.0451,42.5798,33.7
 626\H,0,46.915,42.9664,32.7623\C,0,45.9403,42.3565,34.5629\H,0,44.9482
 ,42.5645,34.2007\C,0,46.1107,41.8673,35.8469\H,0,45.245,41.7246,36.478
 4\C,0,47.3781,41.5952,36.3252\H,0,47.513,41.2155,37.3292\H,0,50.2492,4
 3.7089,36.39\H,0,50.7169,46.6078,32.384\C,0,50.929,46.54,31.316\H,0,51
 .6149,45.7159,31.1302\C,0,49.6126,46.3412,30.5434\H,0,49.8118,46.5129,
 29.4796\C,0,49.0827,44.9192,30.712\H,0,48.9465,44.6847,31.7663\H,0,48.
 1218,44.8195,30.2108\H,0,49.7672,44.1973,30.2741\C,0,48.5692,47.3505,3
 1.0102\H,0,48.9554,48.3603,30.91\H,0,47.6665,47.271,30.4094\H,0,48.309
 3,47.1783,32.0532\C,0,51.5744,47.8475,30.8603\O,0,51.3102,48.9363,31.3
 477\N,0,52.4078,47.6815,29.8126\H,0,52.8589,46.7559,29.7653\C,0,53.197
 ,48.763,29.249\H,0,53.0382,49.6489,29.8759\C,0,54.6932,48.3943,29.203\
 H,0,54.8693,47.7735,28.3192\H,0,55.2604,49.3189,29.0637\C,0,55.2013,47
 .6611,30.4562\H,0,56.248,47.9172,30.6284\H,0,54.6179,47.9648,31.3281\C
 ,0,55.1296,46.1098,30.3241\O,0,53.9643,45.6155,30.2755\O,0,56.1765,45.
 4761,30.2451\C,0,52.6985,49.0171,27.8324\O,0,52.5617,48.1159,27.0168\N
 ,0,52.4289,50.2972,27.556\H,0,52.6423,51.0305,28.2193\C,0,51.956,50.75
 3,26.273\H,0,52.5876,50.2951,25.4939\C,0,50.5079,50.3152,25.9939\H,0,5
 0.2515,50.5611,24.9625\H,0,50.4749,49.2286,26.0931\C,0,49.4745,50.9182
 ,26.9375\H,0,49.6753,51.9662,27.1506\H,0,48.4797,50.8328,26.5014\S,0,4
 9.4282,50.0139,28.5364\C,0,50.0014,51.2929,29.682\H,0,49.1608,51.9183,
 29.9729\H,0,50.4088,50.7704,30.5432\H,0,50.7678,51.8889,29.1975\C,0,52
 .1943,52.2639,26.1956\O,0,52.8672,52.8421,27.0356\N,0,51.6893,52.856,2
 5.1076\H,0,50.9957,52.3953,24.5237\C,0,51.968,54.233,24.774\H,0,52.864
 7,54.5184,25.3366\C,0,52.2301,54.3556,23.2599\H,0,51.3396,53.9853,22.7
 431\C,0,52.4646,55.8118,22.8669\H,0,53.3124,56.2248,23.4112\H,0,52.678
 1,55.878,21.8028\H,0,51.587,56.4185,23.0752\C,0,53.4275,53.4958,22.864
 7\H,0,53.2589,52.456,23.1304\H,0,53.5917,53.5534,21.7917\H,0,54.3273,5
 3.8405,23.371\C,0,50.7983,55.1427,25.1645\O,0,49.6501,54.8957,24.8353\
 N,0,51.16,56.2436,25.8395\H,0,52.1163,56.3416,26.1426\C,0,50.226,57.25
 4,26.282\H,0,49.2402,56.9198,25.9496\C,0,50.2334,57.4296,27.813\H,0,50
 .7961,56.6041,28.2532\H,0,50.7254,58.3639,28.0871\C,0,48.8521,57.4025,
 28.3777\C,0,48.1361,58.4411,28.8945\H,0,48.4174,59.4716,29.0046\N,0,46
 .9091,58.0036,29.3179\H,0,46.2037,58.573,29.7519\C,0,46.8097,56.6625,2
 9.0793\C,0,45.7757,55.7717,29.3392\H,0,44.8577,56.1022,29.8032\C,0,45.
 9659,54.4538,28.9854\H,0,45.1842,53.7338,29.1739\C,0,47.1527,54.0267,2
 8.3815\H,0,47.2489,52.9868,28.1078\C,0,48.1809,54.9041,28.1225\H,0,49.
 0941,54.5716,27.6545\C,0,48.0192,56.2438,28.4775\H,0,50.4607,58.2002,2
 5.7831\H,0,53.7504,55.5517,29.8772\C,0,53.714,54.47,29.992\H,0,54.6412
 ,54.1357,30.4533\C,0,52.5317,54.0715,30.8524\H,0,52.478,52.9907,30.979
 1\H,0,52.568,54.5535,31.8301\S,0,50.9856,54.61,30.0221\H,0,50.1487,54.
 0501,30.8883\H,0,53.6276,54.017,29.006\H,0,50.5314,50.7697,33.6669\C,0
 ,49.556,50.794,34.147\H,0,49.5318,51.6315,34.8415\C,0,48.4634,50.9058,
 33.0903\H,0,48.5129,51.8901,32.6158\H,0,48.66,50.1585,32.321\C,0,47.04
 88,50.681,33.6326\H,0,47.037,49.7334,34.1829\C,0,46.6207,51.7952,34.58
 28\H,0,46.6249,52.7533,34.0653\H,0,45.6105,51.6086,34.9368\H,0,47.282,
 51.8575,35.4438\C,0,46.0554,50.5777,32.4773\H,0,46.3408,49.7764,31.800
 6\H,0,45.0531,50.378,32.8497\H,0,46.0307,51.5099,31.9152\H,0,49.4382,4
 9.8728,34.7131\H,0,47.1349,46.7939,36.9695\C,0,46.185,46.409,37.335\H,
 0,45.5097,47.2495,37.484\C,0,45.5891,45.4116,36.3473\H,0,46.2683,44.55
 64,36.2607\C,0,44.2426,44.916,36.8657\H,0,43.5622,45.762,36.9569\H,0,4
 3.8154,44.1804,36.189\H,0,44.3593,44.462,37.8493\C,0,45.432,46.0411,34
 .9657\H,0,46.3961,46.3729,34.5863\H,0,45.0229,45.3171,34.2659\H,0,44.7
 669,46.9021,35.0055\H,0,46.3556,45.9391,38.3017\H,0,43.2614,40.6547,37
 .7949\C,0,42.31,41.173,37.691\H,0,42.5072,42.2401,37.6221\C,0,41.5859,
 40.7083,36.4347\H,0,41.5265,39.6207,36.3874\H,0,40.5721,41.1161,36.402
 8\C,0,42.3019,41.2207,35.1998\O,0,42.7782,42.3258,35.1284\O,0,42.3523,
 40.3336,34.2281\H,0,42.8709,40.7036,33.4419\H,0,41.7163,40.9768,38.581
 5\H,0,38.4593,37.0731,38.0246\C,0,38.538,36.018,37.77\H,0,37.7926,35.7
 924,37.01\C,0,39.9364,35.694,37.2605\H,0,40.675,35.8995,38.0377\H,0,40
 .0046,34.6332,37.011\C,0,40.2644,36.5152,36.026\H,0,39.5273,36.3385,35
 .2401\H,0,40.2877,37.5808,36.262\S,0,41.8972,36.0489,35.3489\C,0,41.80
 66,36.9808,33.7951\H,0,41.9128,38.0455,33.9844\H,0,42.6227,36.635,33.1
 693\H,0,40.849,36.7642,33.3296\H,0,38.311,35.4331,38.6579\H,0,35.7734,
 38.571,34.5395\C,0,36.781,38.93,34.736\H,0,37.2399,38.2834,35.4819\C,0
 ,37.6086,38.9446,33.4559\H,0,37.7009,37.9291,33.0607\H,0,37.1007,39.54
 86,32.7015\C,0,39.0071,39.5022,33.6822\H,0,39.4449,39.0746,34.5827\H,0
 ,39.6544,39.2897,32.8345\S,0,39.0332,41.3196,33.9085\C,0,39.6466,41.81
 89,32.2775\H,0,38.9405,41.5029,31.514\H,0,39.7322,42.9012,32.2806\H,0,
 40.6223,41.3707,32.1082\H,0,36.7193,39.937,35.1429\H,0,38.9844,44.1988
 ,35.7186\C,0,39.969,44.538,36.041\H,0,40.4351,43.7502,36.6348\C,0,40.8
 344,44.8344,34.8192\H,0,40.3802,45.5923,34.1861\H,0,41.8255,45.1651,35
 .1174\H,0,40.9502,43.9256,34.2359\C,0,39.7703,45.7706,36.9106\O,0,38.7
 548,46.4377,36.9056\N,0,40.8399,46.1113,37.6886\H,0,41.6259,45.4778,37
 .707\C,0,40.698,46.974,38.851\H,0,39.7116,47.4436,38.7465\C,0,40.7428,
 46.1354,40.1424\H,0,41.7397,45.7009,40.238\H,0,40.5835,46.8032,40.9894
 \C,0,39.6894,45.07,40.0866\C,0,39.9781,43.8118,39.5778\H,0,40.9922,43.
 5658,39.2971\C,0,38.9867,42.8598,39.4255\H,0,39.2239,41.8883,39.0106\C
 ,0,37.6807,43.1525,39.7917\O,0,36.6714,42.2438,39.6604\H,0,37.0049,41.
 4595,39.2087\C,0,37.3831,44.4032,40.3218\H,0,36.3651,44.6176,40.6055\C
 ,0,38.3788,45.3484,40.4566\H,0,38.1346,46.3236,40.8516\C,0,41.7691,48.
 0774,38.8945\O,0,42.6255,48.1224,39.7554\N,0,41.6132,49.0108,37.9395\H
 ,0,40.964,48.8335,37.1862\C,0,42.545,50.103,37.743\H,0,43.12,50.2029,3
 8.6651\C,0,43.4811,49.8215,36.5564\H,0,44.157,50.67,36.4416\H,0,44.081
 1,48.9406,36.7966\C,0,42.7383,49.5857,35.2791\C,0,42.1762,48.4054,34.8
 625\H,0,42.1528,47.4594,35.3695\N,0,41.607,48.5444,33.636\H,0,41.095,4
 7.8266,33.1143\C,0,41.7852,49.8256,33.2232\C,0,41.4124,50.4394,32.0321
 \H,0,40.9003,49.8755,31.2672\C,0,41.7292,51.7692,31.8708\H,0,41.4601,5
 2.2774,30.9559\C,0,42.3991,52.4815,32.8721\H,0,42.6243,53.5262,32.7081
 \C,0,42.7798,51.881,34.05\H,0,43.2954,52.4467,34.8138\C,0,42.4872,50.5
 291,34.2389\H,0,41.9727,51.0174,37.5619\H,0,48.9418,55.4235,36.2995\C,
 0,48.976,55.173,35.241\H,0,48.1214,54.5414,35.0174\C,0,48.96,56.4399,3
 4.3949\H,0,48.0159,56.9683,34.5482\H,0,49.7647,57.0991,34.7323\C,0,49.
 1474,56.1662,32.8995\H,0,50.0566,55.5667,32.7785\C,0,47.9694,55.3935,3
 2.3121\H,0,47.0375,55.9227,32.5001\H,0,48.0832,55.2858,31.2358\H,0,47.
 8926,54.4007,32.7476\C,0,49.3392,57.4755,32.1381\H,0,50.1849,58.0337,3
 2.5353\H,0,49.5205,57.2748,31.0852\H,0,48.4488,58.0956,32.2223\H,0,49.
 8834,54.6017,35.0545\C,0,43.7844,42.2424,31.5135\O,0,43.745,41.2379,32
 .2316\C,0,43.4989,43.563,31.982\C,0,43.5909,44.6694,31.2078\C,0,44.103
 ,44.6061,29.7968\C,0,44.9016,43.3185,29.5749\C,0,44.094,42.1207,30.048
 1\C,0,43.0555,45.9583,31.6922\C,0,43.8143,47.1912,31.2179\C,0,44.0621,
 47.1209,29.7147\C,0,44.9043,45.8682,29.419\C,0,44.8059,48.355,29.2226\
 C,0,45.1776,48.2968,27.7342\C,0,46.0831,47.0911,27.5074\C,0,45.3719,45
 .8143,27.9588\C,0,44.1369,49.7234,29.3482\C,0,45.0057,50.6178,28.4449\
 C,0,45.8713,49.6676,27.59\C,0,43.9714,48.2414,26.7898\O,0,45.975,50.15
 47,26.2691\H,0,43.1429,43.6491,32.9999\H,0,43.2098,44.5669,29.1578\H,0
 ,45.8428,43.3714,30.1293\H,0,45.1396,43.1916,28.5187\H,0,43.1332,42.10
 69,29.5245\H,0,44.5992,41.1742,29.855\H,0,42.9642,45.9541,32.7782\H,0,
 42.0277,45.9994,31.2887\H,0,44.7711,47.2623,31.7433\H,0,43.2374,48.083
 ,31.4595\H,0,43.0939,47.0364,29.2132\H,0,45.7958,45.9085,30.0567\H,0,4
 5.7507,48.4049,29.7787\H,0,47.0098,47.2166,28.0727\H,0,46.342,46.9964,
 26.4503\H,0,44.5108,45.6411,27.311\H,0,46.0623,44.9797,27.8257\H,0,44.
 1179,50.0872,30.3733\H,0,43.1097,49.6743,28.9886\H,0,45.6424,51.2692,2
 9.0404\H,0,44.4081,51.2444,27.7839\H,0,46.8778,49.5924,28.0264\H,0,43.
 1884,47.595,27.1728\H,0,43.5538,49.2325,26.6417\H,0,44.2923,47.8595,25
 .8238\H,0,46.4516,49.4946,25.749\O,0,41.0523,43.704,28.6857\H,0,40.559
 1,42.9199,28.9297\H,0,40.7912,44.3795,29.3529\O,0,41.9755,44.0997,26.0
 647\H,0,42.8151,44.5221,26.2593\H,0,41.5485,43.9792,26.9318\O,0,39.151
 4,47.5128,24.0664\H,0,39.3805,46.6453,23.6873\H,0,38.9189,47.3603,24.9
 854\O,0,45.9054,47.8755,20.8927\H,0,44.971,48.1071,20.8032\H,0,46.2445
 ,48.4223,21.6137\O,0,46.4267,49.1768,23.4843\H,0,45.7281,49.7621,23.78
 81\H,0,46.166,48.2788,23.7483\O,0,49.358,52.4219,23.5869\H,0,48.5127,5
 1.9698,23.6314\H,0,49.2219,53.3121,23.9606\\Version=ES64L-G16RevC.01\S
 tate=1-A\HF=-12873.731591\RMSD=1.205e-09\Dipole=4.6526513,-6.8731096,-
 2.8621331\Quadrupole=-4.0645724,114.7812556,-110.7166832,31.7167913,-3
 5.7671557,54.3525761\PG=C01 [X(C190H328N19O32S5)]\\@
 The archive entry for this job was punched.


 MEMORIES ARE LIKE AN ENGLISH GRAMMER LESSON -
 PRESENT TENSE, AND PAST PERFECT.
 Job cpu time:       0 days 16 hours 27 minutes 53.0 seconds.
 Elapsed time:       0 days  0 hours 32 minutes  8.8 seconds.
 File lengths (MBytes):  RWF=  10210 Int=      0 D2E=      0 Chk=   1094 Scr=      1
 Normal termination of Gaussian 16 at Thu Jul 11 12:23:33 2024.
