 Entering Gaussian System, Link 0=g16
 Initial command:
 /cm/shared/apps/spack/cpu/opt/spack/linux-centos8-zen/gcc-8.3.1/gaussian-16.C.01-po5bqktfeugvmjyga3v7eigbecnokxng/g16/l1.exe "/scratch/hklem/job_32994907/Gau-555339.inp" -scrdir="/scratch/hklem/job_32994907/"
 Entering Link 1 = /cm/shared/apps/spack/cpu/opt/spack/linux-centos8-zen/gcc-8.3.1/gaussian-16.C.01-po5bqktfeugvmjyga3v7eigbecnokxng/g16/l1.exe PID=    555341.
  
 Copyright (c) 1988-2019, Gaussian, Inc.  All Rights Reserved.
  
 This is part of the Gaussian(R) 16 program.  It is based on
 the Gaussian(R) 09 system (copyright 2009, Gaussian, Inc.),
 the Gaussian(R) 03 system (copyright 2003, Gaussian, Inc.),
 the Gaussian(R) 98 system (copyright 1998, Gaussian, Inc.),
 the Gaussian(R) 94 system (copyright 1995, Gaussian, Inc.),
 the Gaussian 92(TM) system (copyright 1992, Gaussian, Inc.),
 the Gaussian 90(TM) system (copyright 1990, Gaussian, Inc.),
 the Gaussian 88(TM) system (copyright 1988, Gaussian, Inc.),
 the Gaussian 86(TM) system (copyright 1986, Carnegie Mellon
 University), and the Gaussian 82(TM) system (copyright 1983,
 Carnegie Mellon University). Gaussian is a federally registered
 trademark of Gaussian, Inc.
  
 This software contains proprietary and confidential information,
 including trade secrets, belonging to Gaussian, Inc.
  
 This software is provided under written license and may be
 used, copied, transmitted, or stored only in accord with that
 written license.
  
 The following legend is applicable only to US Government
 contracts under FAR:
  
                    RESTRICTED RIGHTS LEGEND
  
 Use, reproduction and disclosure by the US Government is
 subject to restrictions as set forth in subparagraphs (a)
 and (c) of the Commercial Computer Software - Restricted
 Rights clause in FAR 52.227-19.
  
 Gaussian, Inc.
 340 Quinnipiac St., Bldg. 40, Wallingford CT 06492
  
  
 ---------------------------------------------------------------
 Warning -- This program may not be used in any manner that
 competes with the business of Gaussian, Inc. or will provide
 assistance to any competitor of Gaussian, Inc.  The licensee
 of this program is prohibited from giving any competitor of
 Gaussian, Inc. access to this program.  By using this program,
 the user acknowledges that Gaussian, Inc. is engaged in the
 business of creating and licensing software in the field of
 computational chemistry and represents and warrants to the
 licensee that it is not a competitor of Gaussian, Inc. and that
 it will not use this program in any manner prohibited above.
 ---------------------------------------------------------------
  

 Cite this work as:
 Gaussian 16, Revision C.01,
 M. J. Frisch, G. W. Trucks, H. B. Schlegel, G. E. Scuseria, 
 M. A. Robb, J. R. Cheeseman, G. Scalmani, V. Barone, 
 G. A. Petersson, H. Nakatsuji, X. Li, M. Caricato, A. V. Marenich, 
 J. Bloino, B. G. Janesko, R. Gomperts, B. Mennucci, H. P. Hratchian, 
 J. V. Ortiz, A. F. Izmaylov, J. L. Sonnenberg, D. Williams-Young, 
 F. Ding, F. Lipparini, F. Egidi, J. Goings, B. Peng, A. Petrone, 
 T. Henderson, D. Ranasinghe, V. G. Zakrzewski, J. Gao, N. Rega, 
 G. Zheng, W. Liang, M. Hada, M. Ehara, K. Toyota, R. Fukuda, 
 J. Hasegawa, M. Ishida, T. Nakajima, Y. Honda, O. Kitao, H. Nakai, 
 T. Vreven, K. Throssell, J. A. Montgomery, Jr., J. E. Peralta, 
 F. Ogliaro, M. J. Bearpark, J. J. Heyd, E. N. Brothers, K. N. Kudin, 
 V. N. Staroverov, T. A. Keith, R. Kobayashi, J. Normand, 
 K. Raghavachari, A. P. Rendell, J. C. Burant, S. S. Iyengar, 
 J. Tomasi, M. Cossi, J. M. Millam, M. Klene, C. Adamo, R. Cammi, 
 J. W. Ochterski, R. L. Martin, K. Morokuma, O. Farkas, 
 J. B. Foresman, and D. J. Fox, Gaussian, Inc., Wallingford CT, 2019.
 
 ******************************************
 Gaussian 16:  ES64L-G16RevC.01  3-Jul-2019
                12-Aug-2024 
 ******************************************
 %nprocshared=24
 Will use up to   24 processors via shared memory.
 %mem=48GB
 --------------------------
 # wb97xd 6-31G(d) prop=efg
 --------------------------
 1/38=1,172=1/1;
 2/12=2,17=6,18=5,40=1/2;
 3/5=1,6=6,7=1,11=2,25=1,30=1,74=-58/1,2,3;
 4//1;
 5/5=2,38=5/2;
 6/7=2,8=2,9=2,10=2,14=1,28=1/1,2;
 99/5=1,9=1/99;
 ---------------------------------------------
 19nt_xstal_distance_cutoff3_xtb_ligand_conf_1
 ---------------------------------------------
 Symbolic Z-matrix:
 Charge =  0 Multiplicity = 1
 C                     43.1007   41.1877   31.3174 
 O                     42.8141   40.1537   31.9344 
 C                     43.2341   42.4736   31.9243 
 C                     43.5062   43.6109   31.2349 
 C                     43.8103   43.5809   29.7688 
 C                     44.2596   42.1809   29.3437 
 C                     43.2652   41.1373   29.8211 
 C                     43.3929   44.9234   31.9092 
 C                     44.3076   46.0195   31.3695 
 C                     44.3014   46.0287   29.8439 
 C                     44.8246   44.6667   29.358 
 C                     45.1713   47.1429   29.2749 
 C                     45.2457   47.1063   27.7419 
 C                     45.897    45.794    27.3282 
 C                     45.0646   44.6214   27.8429 
 C                     44.7833   48.5953   29.5477 
 C                     45.5981   49.3855   28.5065 
 C                     46.1013   48.3582   27.4653 
 C                     43.8846   47.2679   27.0583 
 O                     46.0056   48.8883   26.1618 
 H                     43.054    42.5276   32.9894 
 H                     42.8671   43.8281   29.2572 
 H                     45.2447   41.9688   29.7702 
 H                     44.3393   42.1194   28.2582 
 H                     42.2817   41.3438   29.3854 
 H                     43.5627   40.1298   29.5247 
 H                     43.5301   44.8062   32.9857 
 H                     42.3427   45.2459   31.7749 
 H                     45.3285   45.8578   31.73 
 H                     43.9725   46.9837   31.7516 
 H                     43.27     46.1496   29.5092 
 H                     45.7816   44.4677   29.8597 
 H                     46.1927   46.9919   29.6513 
 H                     46.9062   45.7397   27.7464 
 H                     45.9818   45.7362   26.2406 
 H                     44.1001   44.6112   27.3352 
 H                     45.5911   43.6995   27.5889 
 H                     45.0107   48.9085   30.5636 
 H                     43.7139   48.7257   29.3914 
 H                     46.4377   49.9019   28.9722 
 H                     44.9952   50.1358   27.9961 
 H                     47.1565   48.108    27.6679 
 H                     43.5537   48.3013   27.1013 
 H                     43.979    46.9881   26.0129 
 H                     43.1253   46.6429   27.5151 
 H                     45.9314   48.1516   25.5382 
 
                          Input orientation:                          
 ---------------------------------------------------------------------
 Center     Atomic      Atomic             Coordinates (Angstroms)
 Number     Number       Type             X           Y           Z
 ---------------------------------------------------------------------
      1          6           0       43.100700   41.187700   31.317400
      2          8           0       42.814100   40.153700   31.934400
      3          6           0       43.234100   42.473600   31.924300
      4          6           0       43.506200   43.610900   31.234900
      5          6           0       43.810300   43.580900   29.768800
      6          6           0       44.259600   42.180900   29.343700
      7          6           0       43.265200   41.137300   29.821100
      8          6           0       43.392900   44.923400   31.909200
      9          6           0       44.307600   46.019500   31.369500
     10          6           0       44.301400   46.028700   29.843900
     11          6           0       44.824600   44.666700   29.358000
     12          6           0       45.171300   47.142900   29.274900
     13          6           0       45.245700   47.106300   27.741900
     14          6           0       45.897000   45.794000   27.328200
     15          6           0       45.064600   44.621400   27.842900
     16          6           0       44.783300   48.595300   29.547700
     17          6           0       45.598100   49.385500   28.506500
     18          6           0       46.101300   48.358200   27.465300
     19          6           0       43.884600   47.267900   27.058300
     20          8           0       46.005600   48.888300   26.161800
     21          1           0       43.054000   42.527600   32.989400
     22          1           0       42.867100   43.828100   29.257200
     23          1           0       45.244700   41.968800   29.770200
     24          1           0       44.339300   42.119400   28.258200
     25          1           0       42.281700   41.343800   29.385400
     26          1           0       43.562700   40.129800   29.524700
     27          1           0       43.530100   44.806200   32.985700
     28          1           0       42.342700   45.245900   31.774900
     29          1           0       45.328500   45.857800   31.730000
     30          1           0       43.972500   46.983700   31.751600
     31          1           0       43.270000   46.149600   29.509200
     32          1           0       45.781600   44.467700   29.859700
     33          1           0       46.192700   46.991900   29.651300
     34          1           0       46.906200   45.739700   27.746400
     35          1           0       45.981800   45.736200   26.240600
     36          1           0       44.100100   44.611200   27.335200
     37          1           0       45.591100   43.699500   27.588900
     38          1           0       45.010700   48.908500   30.563600
     39          1           0       43.713900   48.725700   29.391400
     40          1           0       46.437700   49.901900   28.972200
     41          1           0       44.995200   50.135800   27.996100
     42          1           0       47.156500   48.108000   27.667900
     43          1           0       43.553700   48.301300   27.101300
     44          1           0       43.979000   46.988100   26.012900
     45          1           0       43.125300   46.642900   27.515100
     46          1           0       45.931400   48.151600   25.538200
 ---------------------------------------------------------------------
                    Distance matrix (angstroms):
                    1          2          3          4          5
     1  C    0.000000
     2  O    1.237734   0.000000
     3  C    1.428167   2.357634   0.000000
     4  C    2.458279   3.594515   1.357484   0.000000
     5  C    2.937533   4.174678   2.490843   1.497607   0.000000
     6  C    2.494992   3.593151   2.792279   2.487800   1.530549
     7  C    1.506159   2.374236   2.492010   2.859302   2.504207
     8  C    3.793555   4.804756   2.454988   1.479924   2.560828
     9  C    4.980523   6.079249   3.746146   2.541990   2.959108
    10  C    5.200785   6.410763   4.255106   2.900514   2.497708
    11  C    4.349083   5.571994   3.731658   2.525004   1.541597
    12  C    6.627488   7.840807   5.707401   4.369117   3.845010
    13  C    7.239824   8.475163   6.557508   5.238772   4.312440
    14  C    6.704551   7.907865   6.264202   5.073870   3.899828
    15  C    5.264917   6.462621   4.962016   3.867219   2.522895
    16  C    7.799713   8.990812   6.747107   5.414967   5.112712
    17  C    9.018985  10.233635   8.064999   6.720582   6.203468
    18  C    8.675157   9.904159   7.920356   6.594034   5.777317
    19  C    7.464802   8.691039   6.861954   5.564245   4.576713
    20  O    9.711740  10.945402   9.057372   7.735263   6.782204
    21  H    2.143151   2.608827   1.081568   2.110994   3.471843
    22  H    3.357187   4.546584   3.013765   2.089718   1.101122
    23  H    2.756933   3.726415   2.989562   2.804322   2.157863
    24  H    3.429417   4.438993   3.845415   3.432109   2.167426
    25  H    2.104222   2.863073   2.937606   3.171718   2.736463
    26  H    2.132222   2.523416   3.370379   3.878922   3.468571
    27  H    4.007637   4.823240   2.579769   2.120050   3.453740
    28  H    4.153656   5.116460   2.915915   2.078114   2.991741
    29  H    5.190681   6.237046   3.984605   2.935040   3.366825
    30  H    5.877260   6.929950   4.573408   3.443863   3.941681
    31  H    5.283815   6.483846   4.398519   3.078771   2.637714
    32  H    4.480013   5.632143   3.837807   2.793336   2.163493
    33  H    6.784179   7.961687   5.859597   4.599590   4.162278
    34  H    6.924924   8.092467   6.450316   5.316147   4.281952
    35  H    7.400236   8.580093   7.106255   5.965612   4.670003
    36  H    5.345752   6.532667   5.136062   4.069518   2.658554
    37  H    5.139352   6.258418   5.084680   4.200949   2.817318
    38  H    7.989184   9.129659   6.812911   5.547858   5.518694
    39  H    7.804289   8.986416   6.762732   5.440846   5.159524
    40  H    9.621477  10.813534   8.611480   7.300013   6.891505
    41  H    9.730810  10.950330   8.788716   7.435137   6.892980
    42  H    8.812430  10.016504   8.077662   6.802359   6.008783
    43  H    8.281547   9.502066   7.571365   6.252100   5.428036
    44  H    7.909094   9.117575   7.475308   6.236850   5.073880
    45  H    6.649609   7.857275   6.069262   4.814044   3.863189
    46  H    9.481979  10.704921   8.960881   7.678017   6.579388
                    6          7          8          9         10
     6  C    0.000000
     7  C    1.518500   0.000000
     8  C    3.854123   4.325624   0.000000
     9  C    4.340624   5.226855   1.526233   0.000000
    10  C    3.880401   5.000002   2.512474   1.525640   0.000000
    11  C    2.549241   3.886239   2.936713   2.478606   1.537817
    12  C    5.045530   6.324459   3.876651   2.528904   1.523788
    13  C    5.272354   6.623776   5.056116   3.901365   2.543881
    14  C    4.449473   5.901337   5.292827   4.348465   2.988272
    15  C    2.975982   4.392046   4.406879   3.868416   2.562610
    16  C    6.438975   7.615848   4.581784   3.190610   2.628193
    17  C    7.375551   8.671989   6.029230   4.603489   3.839033
    18  C    6.714111   8.107691   6.235505   4.891795   3.784699
    19  C    5.589387   6.752850   5.410146   4.508201   3.077159
    20  O    7.626416   8.998793   7.455149   6.183313   4.963816
    21  H    3.855490   3.466362   2.649819   4.048327   4.869074
    22  H    2.158658   2.777926   2.917062   3.367356   2.691482
    23  H    1.094217   2.147651   4.090739   4.454670   4.168697
    24  H    1.090158   2.135619   4.699776   4.989186   4.218828
    25  H    2.148154   1.095331   4.518614   5.468372   5.122275
    26  H    2.173808   1.091520   5.356610   6.216649   5.953536
    27  H    4.548465   4.852390   1.091518   2.165342   3.458369
    28  H    4.356543   4.642083   1.106780   2.150265   2.859728
    29  H    4.511825   5.494017   2.156795   1.094689   2.154417
    30  H    5.380269   6.197378   2.146069   1.089942   2.158592
    31  H    4.093565   5.021997   2.697901   2.134070   1.091067
    32  H    2.795030   4.174365   3.180252   2.619209   2.151270
    33  H    5.193959   6.547933   4.149179   2.729721   2.131165
    34  H    4.713907   6.224415   5.508042   4.467422   3.356786
    35  H    5.023481   6.430379   6.284590   5.402668   3.986612
    36  H    3.156877   4.352555   4.638866   4.278077   2.888495
    37  H    2.675511   4.117936   4.999501   4.617652   3.489058
    38  H    6.878438   7.999352   4.506544   3.080608   3.051938
    39  H    6.567684   7.613789   4.571635   3.404244   2.797092
    40  H    8.030938   9.359680   6.533164   5.035613   4.508361
    41  H    8.101701   9.343261   6.711843   5.366241   4.556753
    42  H    6.806677   8.268564   6.503460   5.116630   4.148501
    43  H    6.556367   7.668340   5.878092   4.898215   3.639453
    44  H    5.855095   7.017390   6.274779   5.453378   3.962443
    45  H    4.953772   5.970665   4.726141   4.079566   2.680254
    46  H    7.275026   8.640154   7.579901   6.417682   5.069779
                   11         12         13         14         15
    11  C    0.000000
    12  C    2.501734   0.000000
    13  C    2.956476   1.535241   0.000000
    14  C    2.557525   2.477057   1.522324   0.000000
    15  C    1.534660   2.901719   2.493537   1.527350   0.000000
    16  C    3.933394   1.527884   2.385760   3.743500   4.333284
    17  C    4.856998   2.408703   2.429723   3.791649   4.839590
    18  C    4.340443   2.369917   1.541367   2.575977   3.896281
    19  C    3.597007   2.566035   1.531671   2.508980   3.001993
    20  O    5.425160   3.665224   2.499938   3.308621   4.681668
    21  H    4.571415   6.291380   7.300979   7.127496   5.908720
    22  H    2.131951   4.037022   4.324404   4.094643   2.731039
    23  H    2.761351   5.198271   5.523396   4.584868   3.283780
    24  H    2.816703   5.192442   5.094831   4.098050   2.637904
    25  H    4.184346   6.480089   6.685267   6.091531   4.567986
    26  H    4.712074   7.199553   7.394756   6.508205   5.025796
    27  H    3.854270   4.682279   5.977557   6.211704   5.370031
    28  H    3.512365   4.224877   5.305995   5.718969   4.822796
    29  H    2.701670   2.775556   4.179779   4.438818   4.087527
    30  H    3.438588   2.756177   4.208772   4.968456   4.695858
    31  H    2.153749   2.157889   2.818158   3.432833   2.886614
    32  H    1.098705   2.805557   3.425562   2.860224   2.145972
    33  H    2.713720   1.098970   2.134410   2.630437   3.187819
    34  H    2.842823   2.704655   2.150553   1.093766   2.156710
    35  H    3.493011   3.441321   2.161694   1.092431   2.156710
    36  H    2.149349   3.364433   2.775487   2.151259   1.090011
    37  H    2.157015   3.856920   3.427681   2.132714   1.091613
    38  H    4.413725   2.191776   3.356358   4.577494   5.077828
    39  H    4.208355   2.154726   2.773034   4.197331   4.589937
    40  H    5.491653   3.050816   3.278701   4.457571   5.571750
    41  H    5.638699   3.259416   3.050449   4.484480   5.516964
    42  H    4.487398   2.730364   2.158712   2.656376   4.069773
    43  H    4.462981   2.946703   2.168238   3.439345   4.046536
    44  H    4.158561   3.476519   2.146612   2.614309   3.182561
    45  H    3.192063   2.744633   2.182263   2.904804   2.820425
    46  H    5.287760   3.944383   2.533600   2.960331   4.304102
                   16         17         18         19         20
    16  C    0.000000
    17  C    1.540264   0.000000
    18  C    2.475829   1.546820   0.000000
    19  C    2.960872   3.085060   2.503630   0.000000
    20  O    3.611673   2.431231   1.410417   2.815679   0.000000
    21  H    7.186986   8.579023   8.590554   7.637950   9.787061
    22  H    5.146106   6.237516   5.847458   4.207457   6.710984
    23  H    6.646270   7.531883   6.846222   6.106123   7.840855
    24  H    6.617947   7.378512   6.531153   5.305993   7.279386
    25  H    7.672587   8.742992   8.214495   6.563508   9.009912
    26  H    8.553075   9.531399   8.853936   7.559049   9.694750
    27  H    5.267602   6.731259   7.050006   6.428041   8.328100
    28  H    4.704830   6.198093   6.510464   5.358382   7.628290
    29  H    3.543104   4.786262   5.003687   5.089009   6.375519
    30  H    2.848127   4.352228   4.979298   4.702718   6.245547
    31  H    2.876284   4.110536   4.131791   2.763194   5.117526
    32  H    4.258055   5.103879   4.579449   4.391762   5.767698
    33  H    2.137296   2.719088   2.579482   3.482406   3.975921
    34  H    3.988212   3.947244   2.753802   3.455278   3.638093
    35  H    4.532964   4.312646   2.896386   2.722680   3.153175
    36  H    4.608142   5.139055   4.249910   2.679770   4.827151
    37  H    5.334632   5.759569   4.688184   3.990884   5.397413
    38  H    1.087133   2.191855   3.330421   4.030732   4.512879
    39  H    1.088600   2.183711   3.089433   2.756388   3.963413
    40  H    2.185279   1.090171   2.183328   4.137546   3.018682
    41  H    2.196703   1.089471   2.159877   3.215237   2.437585
    42  H    3.066462   2.182628   1.103220   3.432595   2.049823
    43  H    2.753766   2.707332   2.574102   1.085937   2.690547
    44  H    3.965451   3.819300   2.913897   1.086306   2.782093
    45  H    3.269907   3.823541   3.435303   1.084356   3.894788
    46  H    4.194174   3.231780   1.945575   2.698337   0.968044
                   21         22         23         24         25
    21  H    0.000000
    22  H    3.956709   0.000000
    23  H    3.933786   3.061560   0.000000
    24  H    4.919642   2.466785   1.768777   0.000000
    25  H    3.871259   2.555558   3.052551   2.471002   0.000000
    26  H    4.244098   3.772643   2.504259   2.483070   1.770356
    27  H    2.327811   3.911261   4.618456   5.497541   5.148677
    28  H    3.061064   2.936659   4.814542   5.111614   4.576004
    29  H    4.224887   4.036448   4.355704   5.196879   5.929278
    30  H    4.715148   4.171541   5.540186   5.999983   6.345564
    31  H    5.027657   2.369640   4.631053   4.353265   4.907930
    32  H    4.582446   3.044077   2.557494   3.187404   4.715189
    33  H    6.397212   4.607012   5.113157   5.396024   6.875148
    34  H    7.255762   4.717103   4.590864   4.467380   6.587584
    35  H    8.025798   4.737307   5.214853   4.455307   6.547800
    36  H    6.116019   2.414046   3.771155   2.667998   4.264481
    37  H    6.080759   3.196864   2.805955   2.124072   4.441718
    38  H    7.101343   5.666760   6.988825   7.201217   8.127748
    39  H    7.197049   4.972079   6.938482   6.731899   7.519553
    40  H    9.053597   7.051344   8.061894   8.091995   9.522822
    41  H    9.305160   6.775416   8.361194   8.047457   9.305509
    42  H    8.734399   6.264373   6.764941   6.644426   8.512807
    43  H    8.261660   5.012868   7.076939   6.338097   7.432490
    44  H    8.332061   4.663411   6.396301   5.373586   6.790634
    45  H    6.848995   3.320343   5.605760   4.742156   5.682442
    46  H    9.768786   6.474067   7.523855   6.805925   8.629450
                   26         27         28         29         30
    26  H    0.000000
    27  H    5.817929   0.000000
    28  H    5.720689   1.751939   0.000000
    29  H    6.386813   2.432465   3.048186   0.000000
    30  H    7.218238   2.541698   2.382591   1.762627   0.000000
    31  H    6.026932   3.736098   2.609589   3.042125   2.493509
    32  H    4.883965   3.867261   4.012433   2.373963   3.630755
    33  H    7.349921   4.794262   4.730824   2.520718   3.056242
    34  H    6.768480   6.302360   6.107224   4.286275   5.118179
    35  H    6.933187   7.236858   6.641680   5.529476   5.997055
    36  H    5.016538   5.682524   4.816870   4.730459   5.014940
    37  H    4.539216   5.882003   5.519606   4.677171   5.543817
    38  H    8.957767   4.988748   4.690428   3.281502   2.488787
    39  H    8.598263   5.321208   4.435118   4.037429   2.944823
    40  H   10.201217   7.108339   6.804593   5.019017   4.724211
    41  H   10.222950   7.446292   6.725043   5.688091   5.008536
    42  H    8.945098   7.234062   6.944907   4.990555   5.298916
    43  H    8.523283   6.844154   5.713539   5.526796   4.851469
    44  H    7.716367   7.319982   6.238059   5.981970   5.738705
    45  H    6.830101   5.784876   4.550821   4.820358   4.333800
    46  H    9.265646   8.510182   7.760044   6.630490   6.618732
                   31         32         33         34         35
    31  H    0.000000
    32  H    3.042987   0.000000
    33  H    3.044969   2.565934   0.000000
    34  H    4.061703   2.710857   2.388667   0.000000
    35  H    4.267142   3.840190   3.640623   1.766907   0.000000
    36  H    2.789627   3.036632   3.925688   3.052343   2.450422
    37  H    3.883046   2.404777   3.931325   2.432429   2.473602
    38  H    3.428312   4.561849   2.429562   4.644441   5.449298
    39  H    2.616718   4.756601   3.036126   4.670439   4.899798
    40  H    4.939883   5.545147   2.998216   4.364171   5.002253
    41  H    4.599519   6.018205   3.749373   4.799996   4.838558
    42  H    4.725526   4.466108   2.471531   2.382784   3.007082
    43  H    3.241648   5.221953   3.896325   4.268162   3.635411
    44  H    3.664680   4.939601   4.258924   3.623814   2.372827
    45  H    2.059300   4.157472   3.754210   3.894159   3.256693
    46  H    5.182653   5.680574   4.281445   3.412278   2.515962
                   36         37         38         39         40
    36  H    0.000000
    37  H    1.765968   0.000000
    38  H    5.451472   6.026557   0.000000
    39  H    4.615866   5.659998   1.757600   0.000000
    40  H    6.011293   6.410929   2.357059   2.996375   0.000000
    41  H    5.635530   6.476640   2.845797   2.361562   1.757352
    42  H    4.656166   4.678845   3.691929   3.899167   2.331512
    43  H    3.737660   5.056216   3.805136   2.334596   3.792050
    44  H    2.722645   3.987171   5.045910   3.808385   4.826271
    45  H    2.260620   3.840471   4.240404   2.864438   4.869930
    46  H    4.372334   4.913488   5.164807   4.482638   3.887447
                   41         42         43         44         45
    41  H    0.000000
    42  H    2.981762   0.000000
    43  H    2.498796   3.652200   0.000000
    44  H    3.856651   3.753626   1.757836   0.000000
    45  H    3.991020   4.291904   1.762115   1.761979   0.000000
    46  H    3.294661   2.457314   2.849412   2.321839   3.749467
                   46
    46  H    0.000000
 Stoichiometry    C18H26O2
 Framework group  C1[X(C18H26O2)]
 Deg. of freedom   132
 Full point group                 C1      NOp   1
 Largest Abelian subgroup         C1      NOp   1
 Largest concise Abelian subgroup C1      NOp   1
                         Standard orientation:                         
 ---------------------------------------------------------------------
 Center     Atomic      Atomic             Coordinates (Angstroms)
 Number     Number       Type             X           Y           Z
 ---------------------------------------------------------------------
      1          6           0        4.685932   -0.169215    0.041007
      2          8           0        5.920296   -0.122959   -0.037671
      3          6           0        3.832395    0.971970   -0.052974
      4          6           0        2.482200    0.919535    0.077357
      5          6           0        1.761574   -0.386083    0.214780
      6          6           0        2.626925   -1.533330   -0.312071
      7          6           0        4.008879   -1.486322    0.315492
      8          6           0        1.706937    2.174122    0.200456
      9          6           0        0.275314    2.115063   -0.325237
     10          6           0       -0.416581    0.833227    0.128369
     11          6           0        0.368162   -0.358948   -0.444150
     12          6           0       -1.863895    0.766433   -0.343593
     13          6           0       -2.543384   -0.558935    0.028775
     14          6           0       -1.804844   -1.687307   -0.677487
     15          6           0       -0.343231   -1.702503   -0.234481
     16          6           0       -2.859579    1.801029    0.178572
     17          6           0       -4.229237    1.180975   -0.156065
     18          6           0       -3.971693   -0.306610   -0.492837
     19          6           0       -2.598599   -0.816536    1.537619
     20          8           0       -4.979009   -1.121176    0.064903
     21          1           0        4.316999    1.929698   -0.186038
     22          1           0        1.591844   -0.527984    1.293448
     23          1           0        2.716719   -1.452757   -1.399617
     24          1           0        2.168182   -2.494570   -0.079652
     25          1           0        3.919232   -1.577779    1.403310
     26          1           0        4.643285   -2.299390   -0.042092
     27          1           0        2.250899    2.999297   -0.262797
     28          1           0        1.673678    2.407512    1.281838
     29          1           0        0.282553    2.159253   -1.419010
     30          1           0       -0.273174    2.985054    0.035663
     31          1           0       -0.374691    0.791948    1.217850
     32          1           0        0.488706   -0.203362   -1.525082
     33          1           0       -1.858707    0.829383   -1.440747
     34          1           0       -1.859215   -1.537902   -1.759636
     35          1           0       -2.269119   -2.649331   -0.448657
     36          1           0       -0.287281   -1.967956    0.821231
     37          1           0        0.172364   -2.476306   -0.806328
     38          1           0       -2.732886    2.777635   -0.281913
     39          1           0       -2.734667    1.921762    1.253221
     40          1           0       -4.696787    1.689519   -0.999423
     41          1           0       -4.921436    1.235921    0.683452
     42          1           0       -3.970344   -0.446556   -1.587144
     43          1           0       -3.359305   -0.198372    2.005015
     44          1           0       -2.858763   -1.857222    1.708932
     45          1           0       -1.647343   -0.615593    2.017788
     46          1           0       -4.614689   -2.008214    0.197356
 ---------------------------------------------------------------------
 Rotational constants (GHZ):           0.9339098           0.1765687           0.1561892
 Standard basis: 6-31G(d) (6D, 7F)
 There are   352 symmetry adapted cartesian basis functions of A   symmetry.
 There are   352 symmetry adapted basis functions of A   symmetry.
   352 basis functions,   664 primitive gaussians,   352 cartesian basis functions
    75 alpha electrons       75 beta electrons
       nuclear repulsion energy      1672.1751434029 Hartrees.
 NAtoms=   46 NActive=   46 NUniq=   46 SFac= 1.00D+00 NAtFMM=   60 NAOKFM=F Big=F
 Integral buffers will be    131072 words long.
 Raffenetti 2 integral format.
 Two-electron integral symmetry is turned on.
 Nuclear repulsion after empirical dispersion term =     1672.1259395124 Hartrees.
 One-electron integrals computed using PRISM.
 NBasis=   352 RedAO= T EigKep=  1.21D-03  NBF=   352
 NBsUse=   352 1.00D-06 EigRej= -1.00D+00 NBFU=   352
 ExpMin= 1.61D-01 ExpMax= 5.48D+03 ExpMxC= 8.25D+02 IAcc=3 IRadAn=         5 AccDes= 0.00D+00
 Harris functional with IExCor= 4639 and IRadAn=       5 diagonalized for initial guess.
 HarFok:  IExCor= 4639 AccDes= 0.00D+00 IRadAn=         5 IDoV= 1 UseB2=F ITyADJ=14
 ICtDFT=  3500011 ScaDFX=  1.000000  1.000000  1.000000  1.000000
 FoFCou: FMM=F IPFlag=           0 FMFlag=      100000 FMFlg1=           0
         NFxFlg=           0 DoJE=T BraDBF=F KetDBF=T FulRan=T
         wScrn=  0.000000 ICntrl=       500 IOpCl=  0 I1Cent=   200000004 NGrid=           0
         NMat0=    1 NMatS0=      1 NMatT0=    0 NMatD0=    1 NMtDS0=    0 NMtDT0=    0
 Petite list used in FoFCou.
 Requested convergence on RMS density matrix=1.00D-08 within 128 cycles.
 Requested convergence on MAX density matrix=1.00D-06.
 Requested convergence on             energy=1.00D-06.
 No special actions if energy rises.
 Integral accuracy reduced to 1.0D-05 until final iterations.
 Initial convergence to 1.0D-05 achieved.  Increase integral accuracy.
 SCF Done:  E(RwB97XD) =  -851.788615462     A.U. after   15 cycles
            NFock= 15  Conv=0.38D-08     -V/T= 2.0088

 **********************************************************************

            Population analysis using the SCF Density.

 **********************************************************************

 Orbital symmetries:
       Occupied  (A) (A) (A) (A) (A) (A) (A) (A) (A) (A) (A) (A)
                 (A) (A) (A) (A) (A) (A) (A) (A) (A) (A) (A) (A)
                 (A) (A) (A) (A) (A) (A) (A) (A) (A) (A) (A) (A)
                 (A) (A) (A) (A) (A) (A) (A) (A) (A) (A) (A) (A)
                 (A) (A) (A) (A) (A) (A) (A) (A) (A) (A) (A) (A)
                 (A) (A) (A) (A) (A) (A) (A) (A) (A) (A) (A) (A)
                 (A) (A) (A)
       Virtual   (A) (A) (A) (A) (A) (A) (A) (A) (A) (A) (A) (A)
                 (A) (A) (A) (A) (A) (A) (A) (A) (A) (A) (A) (A)
                 (A) (A) (A) (A) (A) (A) (A) (A) (A) (A) (A) (A)
                 (A) (A) (A) (A) (A) (A) (A) (A) (A) (A) (A) (A)
                 (A) (A) (A) (A) (A) (A) (A) (A) (A) (A) (A) (A)
                 (A) (A) (A) (A) (A) (A) (A) (A) (A) (A) (A) (A)
                 (A) (A) (A) (A) (A) (A) (A) (A) (A) (A) (A) (A)
                 (A) (A) (A) (A) (A) (A) (A) (A) (A) (A) (A) (A)
                 (A) (A) (A) (A) (A) (A) (A) (A) (A) (A) (A) (A)
                 (A) (A) (A) (A) (A) (A) (A) (A) (A) (A) (A) (A)
                 (A) (A) (A) (A) (A) (A) (A) (A) (A) (A) (A) (A)
                 (A) (A) (A) (A) (A) (A) (A) (A) (A) (A) (A) (A)
                 (A) (A) (A) (A) (A) (A) (A) (A) (A) (A) (A) (A)
                 (A) (A) (A) (A) (A) (A) (A) (A) (A) (A) (A) (A)
                 (A) (A) (A) (A) (A) (A) (A) (A) (A) (A) (A) (A)
                 (A) (A) (A) (A) (A) (A) (A) (A) (A) (A) (A) (A)
                 (A) (A) (A) (A) (A) (A) (A) (A) (A) (A) (A) (A)
                 (A) (A) (A) (A) (A) (A) (A) (A) (A) (A) (A) (A)
                 (A) (A) (A) (A) (A) (A) (A) (A) (A) (A) (A) (A)
                 (A) (A) (A) (A) (A) (A) (A) (A) (A) (A) (A) (A)
                 (A) (A) (A) (A) (A) (A) (A) (A) (A) (A) (A) (A)
                 (A) (A) (A) (A) (A) (A) (A) (A) (A) (A) (A) (A)
                 (A) (A) (A) (A) (A) (A) (A) (A) (A) (A) (A) (A)
                 (A)
 The electronic state is 1-A.
 Alpha  occ. eigenvalues --  -19.26637 -19.23600 -10.36703 -10.34019 -10.33150
 Alpha  occ. eigenvalues --  -10.31572 -10.30919 -10.30891 -10.30431 -10.30260
 Alpha  occ. eigenvalues --  -10.30175 -10.30100 -10.29906 -10.29883 -10.29751
 Alpha  occ. eigenvalues --  -10.29234 -10.29229 -10.29211 -10.28847 -10.28728
 Alpha  occ. eigenvalues --   -1.12235  -1.10817  -0.98630  -0.96050  -0.91106
 Alpha  occ. eigenvalues --   -0.90546  -0.87557  -0.84566  -0.82707  -0.81804
 Alpha  occ. eigenvalues --   -0.78039  -0.77770  -0.73773  -0.72217  -0.69774
 Alpha  occ. eigenvalues --   -0.68024  -0.65683  -0.65560  -0.63238  -0.61138
 Alpha  occ. eigenvalues --   -0.59964  -0.58379  -0.57277  -0.55893  -0.55578
 Alpha  occ. eigenvalues --   -0.54495  -0.53494  -0.53244  -0.51885  -0.50865
 Alpha  occ. eigenvalues --   -0.50247  -0.49710  -0.49099  -0.48157  -0.47977
 Alpha  occ. eigenvalues --   -0.47106  -0.47001  -0.46524  -0.45173  -0.44851
 Alpha  occ. eigenvalues --   -0.44244  -0.43621  -0.43158  -0.42661  -0.42283
 Alpha  occ. eigenvalues --   -0.41556  -0.41106  -0.40449  -0.39788  -0.38402
 Alpha  occ. eigenvalues --   -0.36675  -0.36240  -0.34246  -0.32699  -0.30932
 Alpha virt. eigenvalues --    0.02109   0.13083   0.14070   0.14895   0.16600
 Alpha virt. eigenvalues --    0.17050   0.17656   0.18507   0.19371   0.20537
 Alpha virt. eigenvalues --    0.20620   0.21028   0.22036   0.23021   0.23448
 Alpha virt. eigenvalues --    0.23727   0.23815   0.24967   0.24988   0.25523
 Alpha virt. eigenvalues --    0.25850   0.26063   0.26445   0.26926   0.27485
 Alpha virt. eigenvalues --    0.27785   0.28345   0.28696   0.29285   0.30798
 Alpha virt. eigenvalues --    0.30898   0.31129   0.31879   0.32410   0.33313
 Alpha virt. eigenvalues --    0.33895   0.34288   0.35096   0.35936   0.36247
 Alpha virt. eigenvalues --    0.37284   0.37622   0.39100   0.39688   0.40899
 Alpha virt. eigenvalues --    0.41849   0.42614   0.44926   0.45309   0.50165
 Alpha virt. eigenvalues --    0.51674   0.58177   0.58893   0.59331   0.60110
 Alpha virt. eigenvalues --    0.61810   0.61917   0.62315   0.63204   0.65230
 Alpha virt. eigenvalues --    0.65712   0.66200   0.66631   0.68143   0.69428
 Alpha virt. eigenvalues --    0.70193   0.71169   0.72460   0.72874   0.73577
 Alpha virt. eigenvalues --    0.73951   0.74298   0.75180   0.76087   0.76448
 Alpha virt. eigenvalues --    0.77363   0.78220   0.78774   0.80223   0.81065
 Alpha virt. eigenvalues --    0.82968   0.83219   0.84602   0.85112   0.85768
 Alpha virt. eigenvalues --    0.86484   0.87393   0.88866   0.90097   0.90323
 Alpha virt. eigenvalues --    0.91294   0.92270   0.93358   0.93552   0.94901
 Alpha virt. eigenvalues --    0.94966   0.95580   0.96377   0.96684   0.97252
 Alpha virt. eigenvalues --    0.97564   0.97708   0.97981   0.98540   0.99077
 Alpha virt. eigenvalues --    0.99670   0.99971   1.00430   1.01051   1.02480
 Alpha virt. eigenvalues --    1.03325   1.03897   1.04190   1.04579   1.05093
 Alpha virt. eigenvalues --    1.05778   1.05969   1.07065   1.07888   1.08287
 Alpha virt. eigenvalues --    1.08611   1.10390   1.11147   1.12599   1.13650
 Alpha virt. eigenvalues --    1.14702   1.15748   1.16916   1.19732   1.20809
 Alpha virt. eigenvalues --    1.22200   1.23687   1.24894   1.27650   1.28953
 Alpha virt. eigenvalues --    1.30540   1.31479   1.34947   1.35782   1.38061
 Alpha virt. eigenvalues --    1.39922   1.43158   1.43757   1.44900   1.47109
 Alpha virt. eigenvalues --    1.51338   1.53645   1.54364   1.56359   1.58582
 Alpha virt. eigenvalues --    1.61556   1.62798   1.65852   1.66199   1.67006
 Alpha virt. eigenvalues --    1.70958   1.72314   1.72684   1.74596   1.77025
 Alpha virt. eigenvalues --    1.78149   1.79760   1.80421   1.82366   1.83676
 Alpha virt. eigenvalues --    1.85034   1.86924   1.87495   1.88234   1.89108
 Alpha virt. eigenvalues --    1.89553   1.92225   1.93623   1.95484   1.95763
 Alpha virt. eigenvalues --    1.95978   1.96935   1.97146   1.99412   1.99930
 Alpha virt. eigenvalues --    2.01045   2.01916   2.02433   2.03002   2.04225
 Alpha virt. eigenvalues --    2.05107   2.06390   2.07042   2.07322   2.08114
 Alpha virt. eigenvalues --    2.09414   2.09516   2.10822   2.11594   2.12638
 Alpha virt. eigenvalues --    2.13659   2.15383   2.15838   2.16210   2.18009
 Alpha virt. eigenvalues --    2.19714   2.20780   2.21217   2.24028   2.25439
 Alpha virt. eigenvalues --    2.26213   2.28549   2.30617   2.31358   2.32885
 Alpha virt. eigenvalues --    2.34633   2.35785   2.37145   2.38678   2.41117
 Alpha virt. eigenvalues --    2.41364   2.42639   2.43276   2.45818   2.46604
 Alpha virt. eigenvalues --    2.48841   2.50321   2.51496   2.52086   2.53460
 Alpha virt. eigenvalues --    2.55626   2.58359   2.59235   2.62163   2.62608
 Alpha virt. eigenvalues --    2.64062   2.64704   2.65266   2.66424   2.68249
 Alpha virt. eigenvalues --    2.69589   2.71795   2.72138   2.75417   2.77403
 Alpha virt. eigenvalues --    2.79441   2.79946   2.81128   2.83507   2.85102
 Alpha virt. eigenvalues --    2.86807   2.90455   2.94966   2.97747   3.00044
 Alpha virt. eigenvalues --    3.01500   3.02661   3.08334   3.09205   3.11113
 Alpha virt. eigenvalues --    3.22250   3.27367   4.01517   4.09419   4.25595
 Alpha virt. eigenvalues --    4.27510   4.31458   4.34483   4.36584   4.39240
 Alpha virt. eigenvalues --    4.42233   4.43053   4.48935   4.54510   4.55730
 Alpha virt. eigenvalues --    4.65892   4.68100   4.75232   4.77946   4.81505
 Alpha virt. eigenvalues --    4.86711   4.92851
          Condensed to atoms (all electrons):
               1          2          3          4          5          6
     1  C    4.420267   0.540337   0.363104   0.002951  -0.022427  -0.026678
     2  O    0.540337   8.097752  -0.060674   0.004954   0.000299   0.002573
     3  C    0.363104  -0.060674   5.309297   0.519736  -0.043725   0.004712
     4  C    0.002951   0.004954   0.519736   4.857097   0.376811  -0.045251
     5  C   -0.022427   0.000299  -0.043725   0.376811   5.097628   0.351457
     6  C   -0.026678   0.002573   0.004712  -0.045251   0.351457   5.146550
     7  C    0.342169  -0.081718  -0.140091  -0.000752  -0.035439   0.288451
     8  C    0.003735  -0.000091  -0.039095   0.362342  -0.067716   0.005134
     9  C   -0.000129   0.000000   0.003233  -0.033613  -0.012301  -0.000287
    10  C   -0.000014   0.000000   0.000462  -0.014251  -0.040987   0.004350
    11  C   -0.000107   0.000001   0.003714  -0.031364   0.365223  -0.049938
    12  C   -0.000000   0.000000   0.000003   0.000322   0.003864  -0.000143
    13  C   -0.000000   0.000000   0.000000   0.000007   0.000036  -0.000006
    14  C    0.000000  -0.000000   0.000001  -0.000099   0.003760   0.000280
    15  C   -0.000004  -0.000000  -0.000118   0.004651  -0.044584  -0.005006
    16  C   -0.000000  -0.000000  -0.000000  -0.000002  -0.000111   0.000001
    17  C   -0.000000   0.000000  -0.000000   0.000000   0.000002  -0.000000
    18  C    0.000000   0.000000  -0.000000   0.000000   0.000005   0.000000
    19  C   -0.000000   0.000000   0.000000   0.000002   0.000066  -0.000001
    20  O    0.000000   0.000000   0.000000   0.000000  -0.000000   0.000000
    21  H   -0.029523   0.000893   0.359195  -0.048184   0.004989  -0.000445
    22  H    0.000977   0.000008  -0.004593  -0.043333   0.367585  -0.032970
    23  H   -0.002556   0.000105   0.003619  -0.004274  -0.042527   0.386696
    24  H    0.003534  -0.000077  -0.000264   0.004817  -0.031657   0.377415
    25  H   -0.027927  -0.000210   0.002539  -0.001893  -0.003753  -0.039615
    26  H   -0.025823   0.003252   0.005733  -0.000199   0.004243  -0.030801
    27  H    0.000233  -0.000002  -0.002719  -0.039792   0.004188  -0.000161
    28  H   -0.000117   0.000004  -0.009285  -0.037867   0.000918   0.000101
    29  H    0.000001  -0.000000  -0.000231  -0.002964   0.000608   0.000011
    30  H    0.000001  -0.000000  -0.000085   0.004118   0.000024   0.000011
    31  H    0.000005   0.000000  -0.000273  -0.004729  -0.001268   0.000221
    32  H    0.000030  -0.000000  -0.000063  -0.003623  -0.039354  -0.004286
    33  H    0.000000   0.000000  -0.000001  -0.000070   0.000178   0.000002
    34  H    0.000000   0.000000  -0.000000   0.000003   0.000067  -0.000025
    35  H    0.000000  -0.000000  -0.000000   0.000001  -0.000109   0.000002
    36  H    0.000002  -0.000000  -0.000010   0.000201  -0.003458  -0.001629
    37  H   -0.000011  -0.000000   0.000015  -0.000135  -0.006768   0.001891
    38  H    0.000000  -0.000000   0.000000  -0.000001   0.000001  -0.000000
    39  H    0.000000   0.000000  -0.000000  -0.000000   0.000001   0.000000
    40  H    0.000000  -0.000000   0.000000   0.000000  -0.000000   0.000000
    41  H    0.000000  -0.000000   0.000000  -0.000000  -0.000000   0.000000
    42  H    0.000000  -0.000000  -0.000000   0.000000   0.000000  -0.000000
    43  H   -0.000000  -0.000000   0.000000   0.000000  -0.000002  -0.000000
    44  H    0.000000   0.000000  -0.000000  -0.000000  -0.000008   0.000000
    45  H    0.000000  -0.000000  -0.000000   0.000001   0.000084   0.000003
    46  H   -0.000000   0.000000  -0.000000   0.000000  -0.000000   0.000000
               7          8          9         10         11         12
     1  C    0.342169   0.003735  -0.000129  -0.000014  -0.000107  -0.000000
     2  O   -0.081718  -0.000091   0.000000   0.000000   0.000001   0.000000
     3  C   -0.140091  -0.039095   0.003233   0.000462   0.003714   0.000003
     4  C   -0.000752   0.362342  -0.033613  -0.014251  -0.031364   0.000322
     5  C   -0.035439  -0.067716  -0.012301  -0.040987   0.365223   0.003864
     6  C    0.288451   0.005134  -0.000287   0.004350  -0.049938  -0.000143
     7  C    5.365196  -0.000149   0.000038  -0.000101   0.004708   0.000002
     8  C   -0.000149   5.161379   0.335690  -0.043785  -0.016559   0.003936
     9  C    0.000038   0.335690   5.098512   0.368681  -0.044253  -0.042509
    10  C   -0.000101  -0.043785   0.368681   5.027353   0.370253   0.365110
    11  C    0.004708  -0.016559  -0.044253   0.370253   5.053508  -0.038586
    12  C    0.000002   0.003936  -0.042509   0.365110  -0.038586   5.105520
    13  C    0.000000  -0.000144   0.004377  -0.027131  -0.012632   0.354256
    14  C   -0.000003  -0.000011  -0.000083  -0.011753  -0.039176  -0.049704
    15  C    0.000208   0.000376   0.004510  -0.041376   0.366843  -0.018440
    16  C   -0.000000   0.000056  -0.003827  -0.034138   0.004341   0.361462
    17  C    0.000000  -0.000000   0.000093   0.004413  -0.000184  -0.062922
    18  C   -0.000000   0.000001  -0.000111   0.004062   0.000156  -0.064852
    19  C    0.000000  -0.000002   0.000270  -0.007657  -0.002502  -0.057678
    20  O    0.000000  -0.000000   0.000000  -0.000071  -0.000003   0.003626
    21  H    0.006991  -0.007911   0.000243   0.000003  -0.000097   0.000000
    22  H   -0.005778   0.001578  -0.000450  -0.006689  -0.044476   0.000058
    23  H   -0.042604   0.000015  -0.000036   0.000105  -0.003120  -0.000000
    24  H   -0.031209  -0.000120  -0.000007  -0.000025  -0.008614  -0.000003
    25  H    0.366330  -0.000046  -0.000002   0.000001   0.000062   0.000000
    26  H    0.368026   0.000009   0.000000   0.000002  -0.000074  -0.000000
    27  H    0.000012   0.379444  -0.031809   0.004238  -0.000196  -0.000110
    28  H   -0.000084   0.377838  -0.040199  -0.004420  -0.000574  -0.000030
    29  H   -0.000004  -0.035982   0.381409  -0.039146  -0.008181  -0.004527
    30  H   -0.000000  -0.031583   0.380033  -0.033953   0.005108  -0.006626
    31  H   -0.000014   0.001159  -0.047790   0.381608  -0.051470  -0.042250
    32  H   -0.000098   0.000143  -0.006396  -0.045418   0.377725  -0.003443
    33  H   -0.000000   0.000108  -0.005654  -0.043488  -0.005614   0.382758
    34  H   -0.000000   0.000000  -0.000036  -0.000460  -0.003974  -0.006792
    35  H   -0.000000  -0.000000   0.000011  -0.000124   0.004293   0.006785
    36  H   -0.000076  -0.000008  -0.000011  -0.003569  -0.044607  -0.000435
    37  H    0.000061  -0.000012  -0.000128   0.004338  -0.030752   0.000105
    38  H    0.000000  -0.000016   0.001129  -0.001483  -0.000074  -0.027639
    39  H   -0.000000  -0.000025  -0.000437  -0.004519   0.000087  -0.039188
    40  H   -0.000000  -0.000000  -0.000004  -0.000068   0.000004   0.001130
    41  H   -0.000000  -0.000000   0.000001  -0.000130   0.000003   0.003737
    42  H   -0.000000  -0.000000   0.000006  -0.000282  -0.000003  -0.002896
    43  H    0.000000  -0.000000  -0.000018   0.000048   0.000005  -0.002899
    44  H   -0.000000  -0.000000  -0.000000  -0.000026   0.000171   0.005787
    45  H    0.000000   0.000012  -0.000043   0.001979  -0.000364  -0.006543
    46  H    0.000000   0.000000   0.000000  -0.000008   0.000001   0.000507
              13         14         15         16         17         18
     1  C   -0.000000   0.000000  -0.000004  -0.000000  -0.000000   0.000000
     2  O    0.000000  -0.000000  -0.000000  -0.000000   0.000000   0.000000
     3  C    0.000000   0.000001  -0.000118  -0.000000  -0.000000  -0.000000
     4  C    0.000007  -0.000099   0.004651  -0.000002   0.000000   0.000000
     5  C    0.000036   0.003760  -0.044584  -0.000111   0.000002   0.000005
     6  C   -0.000006   0.000280  -0.005006   0.000001  -0.000000   0.000000
     7  C    0.000000  -0.000003   0.000208  -0.000000   0.000000  -0.000000
     8  C   -0.000144  -0.000011   0.000376   0.000056  -0.000000   0.000001
     9  C    0.004377  -0.000083   0.004510  -0.003827   0.000093  -0.000111
    10  C   -0.027131  -0.011753  -0.041376  -0.034138   0.004413   0.004062
    11  C   -0.012632  -0.039176   0.366843   0.004341  -0.000184   0.000156
    12  C    0.354256  -0.049704  -0.018440   0.361462  -0.062922  -0.064852
    13  C    5.113118   0.378681  -0.040172  -0.066579  -0.059101   0.384649
    14  C    0.378681   5.116666   0.352934   0.006268   0.007098  -0.046717
    15  C   -0.040172   0.352934   5.100862   0.000227  -0.000269   0.004710
    16  C   -0.066579   0.006268   0.000227   5.106619   0.344513  -0.061017
    17  C   -0.059101   0.007098  -0.000269   0.344513   5.185643   0.350716
    18  C    0.384649  -0.046717   0.004710  -0.061017   0.350716   4.790499
    19  C    0.333343  -0.069957  -0.004192  -0.002291  -0.011322  -0.054657
    20  O   -0.045347  -0.000685   0.000016   0.002391  -0.050106   0.252967
    21  H   -0.000000  -0.000000   0.000002  -0.000000  -0.000000  -0.000000
    22  H   -0.000039   0.000057  -0.007379  -0.000001   0.000000  -0.000000
    23  H   -0.000000  -0.000047  -0.001352   0.000000   0.000000  -0.000000
    24  H   -0.000004   0.000069   0.003657   0.000000   0.000000   0.000000
    25  H   -0.000000  -0.000000  -0.000033   0.000000   0.000000  -0.000000
    26  H   -0.000000  -0.000000  -0.000001   0.000000  -0.000000   0.000000
    27  H    0.000001  -0.000000   0.000009  -0.000001  -0.000000  -0.000000
    28  H    0.000003   0.000000  -0.000002  -0.000010  -0.000000  -0.000000
    29  H    0.000023  -0.000010   0.000122  -0.000386  -0.000019  -0.000004
    30  H    0.000030  -0.000004  -0.000142   0.003644  -0.000020  -0.000007
    31  H   -0.007889   0.000391  -0.002423  -0.004149   0.000022  -0.000001
    32  H   -0.001172  -0.000536  -0.044544  -0.000051   0.000004  -0.000054
    33  H   -0.052776  -0.006644  -0.000860  -0.044157  -0.002172  -0.002433
    34  H   -0.037698   0.379367  -0.037006   0.000076   0.000062  -0.005848
    35  H   -0.037469   0.371073  -0.034157  -0.000255   0.000001  -0.003815
    36  H   -0.009373  -0.035829   0.382247  -0.000015  -0.000000  -0.000025
    37  H    0.005085  -0.034770   0.381048   0.000009   0.000003  -0.000089
    38  H    0.006122  -0.000151  -0.000004   0.378356  -0.028522   0.002919
    39  H   -0.007240   0.000047  -0.000024   0.386268  -0.033521   0.001316
    40  H    0.003274  -0.000169   0.000004  -0.032383   0.377801  -0.027130
    41  H   -0.001419  -0.000127   0.000004  -0.025638   0.369902  -0.031253
    42  H   -0.065145  -0.009615   0.000158   0.004290  -0.054535   0.390755
    43  H   -0.033052   0.004685   0.000156   0.001352   0.002707  -0.006433
    44  H   -0.032661  -0.006284  -0.001139  -0.000137  -0.000008  -0.004574
    45  H   -0.034040  -0.003182   0.000917  -0.000383  -0.000276   0.005021
    46  H   -0.006542   0.001685  -0.000113  -0.000375   0.007334  -0.033411
              19         20         21         22         23         24
     1  C   -0.000000   0.000000  -0.029523   0.000977  -0.002556   0.003534
     2  O    0.000000   0.000000   0.000893   0.000008   0.000105  -0.000077
     3  C    0.000000   0.000000   0.359195  -0.004593   0.003619  -0.000264
     4  C    0.000002   0.000000  -0.048184  -0.043333  -0.004274   0.004817
     5  C    0.000066  -0.000000   0.004989   0.367585  -0.042527  -0.031657
     6  C   -0.000001   0.000000  -0.000445  -0.032970   0.386696   0.377415
     7  C    0.000000   0.000000   0.006991  -0.005778  -0.042604  -0.031209
     8  C   -0.000002  -0.000000  -0.007911   0.001578   0.000015  -0.000120
     9  C    0.000270   0.000000   0.000243  -0.000450  -0.000036  -0.000007
    10  C   -0.007657  -0.000071   0.000003  -0.006689   0.000105  -0.000025
    11  C   -0.002502  -0.000003  -0.000097  -0.044476  -0.003120  -0.008614
    12  C   -0.057678   0.003626   0.000000   0.000058  -0.000000  -0.000003
    13  C    0.333343  -0.045347  -0.000000  -0.000039  -0.000000  -0.000004
    14  C   -0.069957  -0.000685  -0.000000   0.000057  -0.000047   0.000069
    15  C   -0.004192   0.000016   0.000002  -0.007379  -0.001352   0.003657
    16  C   -0.002291   0.002391  -0.000000  -0.000001   0.000000   0.000000
    17  C   -0.011322  -0.050106  -0.000000   0.000000   0.000000   0.000000
    18  C   -0.054657   0.252967  -0.000000  -0.000000  -0.000000   0.000000
    19  C    5.229617   0.005366   0.000000  -0.000085  -0.000000  -0.000001
    20  O    0.005366   8.278140   0.000000  -0.000000  -0.000000   0.000000
    21  H    0.000000   0.000000   0.540083  -0.000226  -0.000120   0.000014
    22  H   -0.000085  -0.000000  -0.000226   0.587536   0.005346  -0.003004
    23  H   -0.000000  -0.000000  -0.000120   0.005346   0.554710  -0.029840
    24  H   -0.000001   0.000000   0.000014  -0.003004  -0.029840   0.552302
    25  H   -0.000000   0.000000  -0.000184   0.005476   0.005116  -0.004294
    26  H    0.000000  -0.000000  -0.000118  -0.000134  -0.002633  -0.003138
    27  H    0.000000   0.000000   0.005310  -0.000096  -0.000001   0.000002
    28  H   -0.000003   0.000000   0.000279   0.001090   0.000002   0.000007
    29  H   -0.000005  -0.000000  -0.000010   0.000082  -0.000005   0.000002
    30  H   -0.000005  -0.000000  -0.000008  -0.000010   0.000000   0.000000
    31  H    0.000996  -0.000002  -0.000002   0.006183   0.000007   0.000000
    32  H    0.000048   0.000000  -0.000015   0.005851   0.004646   0.000071
    33  H    0.006536   0.000043  -0.000000   0.000001  -0.000002  -0.000000
    34  H    0.006361  -0.000072  -0.000000   0.000004   0.000002   0.000010
    35  H   -0.007548   0.001262   0.000000  -0.000003   0.000000   0.000005
    36  H    0.004694  -0.000003  -0.000000   0.006002   0.000148   0.001088
    37  H   -0.000011   0.000001   0.000000   0.000063   0.000863   0.001223
    38  H    0.000051  -0.000043  -0.000000   0.000000   0.000000  -0.000000
    39  H    0.003263   0.000008   0.000000  -0.000003  -0.000000  -0.000000
    40  H    0.000191   0.002009   0.000000  -0.000000  -0.000000   0.000000
    41  H    0.000966   0.003687   0.000000  -0.000000  -0.000000   0.000000
    42  H    0.008088  -0.043935  -0.000000  -0.000000  -0.000000   0.000000
    43  H    0.383164   0.001794  -0.000000   0.000001   0.000000   0.000000
    44  H    0.374948   0.002464   0.000000   0.000001   0.000000  -0.000000
    45  H    0.374677   0.000540  -0.000000   0.000109   0.000000  -0.000001
    46  H   -0.000645   0.244360   0.000000  -0.000000   0.000000   0.000000
              25         26         27         28         29         30
     1  C   -0.027927  -0.025823   0.000233  -0.000117   0.000001   0.000001
     2  O   -0.000210   0.003252  -0.000002   0.000004  -0.000000  -0.000000
     3  C    0.002539   0.005733  -0.002719  -0.009285  -0.000231  -0.000085
     4  C   -0.001893  -0.000199  -0.039792  -0.037867  -0.002964   0.004118
     5  C   -0.003753   0.004243   0.004188   0.000918   0.000608   0.000024
     6  C   -0.039615  -0.030801  -0.000161   0.000101   0.000011   0.000011
     7  C    0.366330   0.368026   0.000012  -0.000084  -0.000004  -0.000000
     8  C   -0.000046   0.000009   0.379444   0.377838  -0.035982  -0.031583
     9  C   -0.000002   0.000000  -0.031809  -0.040199   0.381409   0.380033
    10  C    0.000001   0.000002   0.004238  -0.004420  -0.039146  -0.033953
    11  C    0.000062  -0.000074  -0.000196  -0.000574  -0.008181   0.005108
    12  C    0.000000  -0.000000  -0.000110  -0.000030  -0.004527  -0.006626
    13  C   -0.000000  -0.000000   0.000001   0.000003   0.000023   0.000030
    14  C   -0.000000  -0.000000  -0.000000   0.000000  -0.000010  -0.000004
    15  C   -0.000033  -0.000001   0.000009  -0.000002   0.000122  -0.000142
    16  C    0.000000   0.000000  -0.000001  -0.000010  -0.000386   0.003644
    17  C    0.000000  -0.000000  -0.000000  -0.000000  -0.000019  -0.000020
    18  C   -0.000000   0.000000  -0.000000  -0.000000  -0.000004  -0.000007
    19  C   -0.000000   0.000000   0.000000  -0.000003  -0.000005  -0.000005
    20  O    0.000000  -0.000000   0.000000   0.000000  -0.000000  -0.000000
    21  H   -0.000184  -0.000118   0.005310   0.000279  -0.000010  -0.000008
    22  H    0.005476  -0.000134  -0.000096   0.001090   0.000082  -0.000010
    23  H    0.005116  -0.002633  -0.000001   0.000002  -0.000005   0.000000
    24  H   -0.004294  -0.003138   0.000002   0.000007   0.000002   0.000000
    25  H    0.538007  -0.020782  -0.000000   0.000009   0.000000   0.000000
    26  H   -0.020782   0.509901   0.000000  -0.000001  -0.000000   0.000000
    27  H   -0.000000   0.000000   0.528173  -0.025245  -0.003867  -0.001176
    28  H    0.000009  -0.000001  -0.025245   0.550694   0.004961  -0.005953
    29  H    0.000000  -0.000000  -0.003867   0.004961   0.563516  -0.030435
    30  H    0.000000   0.000000  -0.001176  -0.005953  -0.030435   0.551665
    31  H   -0.000002   0.000000   0.000034   0.004132   0.005597  -0.002864
    32  H    0.000009  -0.000001  -0.000046   0.000091   0.005867   0.000097
    33  H   -0.000000   0.000000   0.000003   0.000003   0.004501  -0.000061
    34  H   -0.000000   0.000000  -0.000000  -0.000000  -0.000009   0.000001
    35  H    0.000000   0.000000   0.000000  -0.000000   0.000000  -0.000000
    36  H    0.000006   0.000001  -0.000000  -0.000001  -0.000001   0.000004
    37  H    0.000012   0.000001  -0.000000   0.000000  -0.000005   0.000002
    38  H    0.000000  -0.000000   0.000001   0.000004   0.000215   0.000995
    39  H   -0.000000   0.000000   0.000001  -0.000002   0.000048   0.000394
    40  H    0.000000   0.000000   0.000000   0.000000  -0.000000   0.000002
    41  H   -0.000000   0.000000   0.000000   0.000000   0.000000   0.000002
    42  H   -0.000000   0.000000   0.000000  -0.000000  -0.000002  -0.000000
    43  H    0.000000  -0.000000  -0.000000   0.000000   0.000000   0.000000
    44  H    0.000000  -0.000000   0.000000   0.000000   0.000000  -0.000000
    45  H    0.000000   0.000000  -0.000000  -0.000007  -0.000001   0.000005
    46  H    0.000000   0.000000   0.000000   0.000000   0.000000   0.000000
              31         32         33         34         35         36
     1  C    0.000005   0.000030   0.000000   0.000000   0.000000   0.000002
     2  O    0.000000  -0.000000   0.000000   0.000000  -0.000000  -0.000000
     3  C   -0.000273  -0.000063  -0.000001  -0.000000  -0.000000  -0.000010
     4  C   -0.004729  -0.003623  -0.000070   0.000003   0.000001   0.000201
     5  C   -0.001268  -0.039354   0.000178   0.000067  -0.000109  -0.003458
     6  C    0.000221  -0.004286   0.000002  -0.000025   0.000002  -0.001629
     7  C   -0.000014  -0.000098  -0.000000  -0.000000  -0.000000  -0.000076
     8  C    0.001159   0.000143   0.000108   0.000000  -0.000000  -0.000008
     9  C   -0.047790  -0.006396  -0.005654  -0.000036   0.000011  -0.000011
    10  C    0.381608  -0.045418  -0.043488  -0.000460  -0.000124  -0.003569
    11  C   -0.051470   0.377725  -0.005614  -0.003974   0.004293  -0.044607
    12  C   -0.042250  -0.003443   0.382758  -0.006792   0.006785  -0.000435
    13  C   -0.007889  -0.001172  -0.052776  -0.037698  -0.037469  -0.009373
    14  C    0.000391  -0.000536  -0.006644   0.379367   0.371073  -0.035829
    15  C   -0.002423  -0.044544  -0.000860  -0.037006  -0.034157   0.382247
    16  C   -0.004149  -0.000051  -0.044157   0.000076  -0.000255  -0.000015
    17  C    0.000022   0.000004  -0.002172   0.000062   0.000001  -0.000000
    18  C   -0.000001  -0.000054  -0.002433  -0.005848  -0.003815  -0.000025
    19  C    0.000996   0.000048   0.006536   0.006361  -0.007548   0.004694
    20  O   -0.000002   0.000000   0.000043  -0.000072   0.001262  -0.000003
    21  H   -0.000002  -0.000015  -0.000000  -0.000000   0.000000  -0.000000
    22  H    0.006183   0.005851   0.000001   0.000004  -0.000003   0.006002
    23  H    0.000007   0.004646  -0.000002   0.000002   0.000000   0.000148
    24  H    0.000000   0.000071  -0.000000   0.000010   0.000005   0.001088
    25  H   -0.000002   0.000009  -0.000000  -0.000000   0.000000   0.000006
    26  H    0.000000  -0.000001   0.000000   0.000000   0.000000   0.000001
    27  H    0.000034  -0.000046   0.000003  -0.000000   0.000000  -0.000000
    28  H    0.004132   0.000091   0.000003  -0.000000  -0.000000  -0.000001
    29  H    0.005597   0.005867   0.004501  -0.000009   0.000000  -0.000001
    30  H   -0.002864   0.000097  -0.000061   0.000001  -0.000000   0.000004
    31  H    0.606577   0.005842   0.005862   0.000039  -0.000004   0.001599
    32  H    0.005842   0.597935   0.004014   0.003220  -0.000071   0.005504
    33  H    0.005862   0.004014   0.614209   0.005352   0.000040   0.000066
    34  H    0.000039   0.003220   0.005352   0.570530  -0.031189   0.004977
    35  H   -0.000004  -0.000071   0.000040  -0.031189   0.590789  -0.003917
    36  H    0.001599   0.005504   0.000066   0.004977  -0.003917   0.572799
    37  H   -0.000076  -0.005087  -0.000073  -0.004238  -0.002478  -0.030743
    38  H   -0.000129  -0.000000  -0.005894  -0.000003   0.000003   0.000000
    39  H    0.004194   0.000003   0.005311  -0.000008   0.000005  -0.000007
    40  H    0.000001  -0.000000   0.000885  -0.000018   0.000001   0.000000
    41  H   -0.000008  -0.000000  -0.000029  -0.000000  -0.000002  -0.000000
    42  H   -0.000011  -0.000007   0.004530   0.005978  -0.000081  -0.000004
    43  H    0.000042   0.000002  -0.000088  -0.000134  -0.000030   0.000013
    44  H   -0.000036   0.000003  -0.000119   0.000101   0.005662   0.000753
    45  H    0.004419  -0.000024   0.000051  -0.000131  -0.000139   0.000316
    46  H   -0.000000  -0.000000  -0.000006  -0.000036   0.003336  -0.000006
              37         38         39         40         41         42
     1  C   -0.000011   0.000000   0.000000   0.000000   0.000000   0.000000
     2  O   -0.000000  -0.000000   0.000000  -0.000000  -0.000000  -0.000000
     3  C    0.000015   0.000000  -0.000000   0.000000   0.000000  -0.000000
     4  C   -0.000135  -0.000001  -0.000000   0.000000  -0.000000   0.000000
     5  C   -0.006768   0.000001   0.000001  -0.000000  -0.000000   0.000000
     6  C    0.001891  -0.000000   0.000000   0.000000   0.000000  -0.000000
     7  C    0.000061   0.000000  -0.000000  -0.000000  -0.000000  -0.000000
     8  C   -0.000012  -0.000016  -0.000025  -0.000000  -0.000000  -0.000000
     9  C   -0.000128   0.001129  -0.000437  -0.000004   0.000001   0.000006
    10  C    0.004338  -0.001483  -0.004519  -0.000068  -0.000130  -0.000282
    11  C   -0.030752  -0.000074   0.000087   0.000004   0.000003  -0.000003
    12  C    0.000105  -0.027639  -0.039188   0.001130   0.003737  -0.002896
    13  C    0.005085   0.006122  -0.007240   0.003274  -0.001419  -0.065145
    14  C   -0.034770  -0.000151   0.000047  -0.000169  -0.000127  -0.009615
    15  C    0.381048  -0.000004  -0.000024   0.000004   0.000004   0.000158
    16  C    0.000009   0.378356   0.386268  -0.032383  -0.025638   0.004290
    17  C    0.000003  -0.028522  -0.033521   0.377801   0.369902  -0.054535
    18  C   -0.000089   0.002919   0.001316  -0.027130  -0.031253   0.390755
    19  C   -0.000011   0.000051   0.003263   0.000191   0.000966   0.008088
    20  O    0.000001  -0.000043   0.000008   0.002009   0.003687  -0.043935
    21  H    0.000000  -0.000000   0.000000   0.000000   0.000000  -0.000000
    22  H    0.000063   0.000000  -0.000003  -0.000000  -0.000000  -0.000000
    23  H    0.000863   0.000000  -0.000000  -0.000000  -0.000000  -0.000000
    24  H    0.001223  -0.000000  -0.000000   0.000000   0.000000   0.000000
    25  H    0.000012   0.000000  -0.000000   0.000000  -0.000000  -0.000000
    26  H    0.000001  -0.000000   0.000000   0.000000   0.000000   0.000000
    27  H   -0.000000   0.000001   0.000001   0.000000   0.000000   0.000000
    28  H    0.000000   0.000004  -0.000002   0.000000   0.000000  -0.000000
    29  H   -0.000005   0.000215   0.000048  -0.000000   0.000000  -0.000002
    30  H    0.000002   0.000995   0.000394   0.000002   0.000002  -0.000000
    31  H   -0.000076  -0.000129   0.004194   0.000001  -0.000008  -0.000011
    32  H   -0.005087  -0.000000   0.000003  -0.000000  -0.000000  -0.000007
    33  H   -0.000073  -0.005894   0.005311   0.000885  -0.000029   0.004530
    34  H   -0.004238  -0.000003  -0.000008  -0.000018  -0.000000   0.005978
    35  H   -0.002478   0.000003   0.000005   0.000001  -0.000002  -0.000081
    36  H   -0.030743   0.000000  -0.000007   0.000000  -0.000000  -0.000004
    37  H    0.553995  -0.000000  -0.000000  -0.000000  -0.000000  -0.000005
    38  H   -0.000000   0.550096  -0.032599  -0.006819   0.002110  -0.000194
    39  H   -0.000000  -0.032599   0.563647   0.003890  -0.008645  -0.000180
    40  H   -0.000000  -0.006819   0.003890   0.542280  -0.026419  -0.006304
    41  H   -0.000000   0.002110  -0.008645  -0.026419   0.526402   0.004823
    42  H   -0.000005  -0.000194  -0.000180  -0.006304   0.004823   0.634851
    43  H   -0.000001   0.000028   0.000033  -0.000060   0.001056   0.000270
    44  H   -0.000059  -0.000001   0.000045  -0.000000   0.000006  -0.000062
    45  H    0.000055  -0.000035   0.000278   0.000002   0.000038  -0.000067
    46  H    0.000004   0.000005   0.000003  -0.000210  -0.000054   0.000179
              43         44         45         46
     1  C   -0.000000   0.000000   0.000000  -0.000000
     2  O   -0.000000   0.000000  -0.000000   0.000000
     3  C    0.000000  -0.000000  -0.000000  -0.000000
     4  C    0.000000  -0.000000   0.000001   0.000000
     5  C   -0.000002  -0.000008   0.000084  -0.000000
     6  C   -0.000000   0.000000   0.000003   0.000000
     7  C    0.000000  -0.000000   0.000000   0.000000
     8  C   -0.000000  -0.000000   0.000012   0.000000
     9  C   -0.000018  -0.000000  -0.000043   0.000000
    10  C    0.000048  -0.000026   0.001979  -0.000008
    11  C    0.000005   0.000171  -0.000364   0.000001
    12  C   -0.002899   0.005787  -0.006543   0.000507
    13  C   -0.033052  -0.032661  -0.034040  -0.006542
    14  C    0.004685  -0.006284  -0.003182   0.001685
    15  C    0.000156  -0.001139   0.000917  -0.000113
    16  C    0.001352  -0.000137  -0.000383  -0.000375
    17  C    0.002707  -0.000008  -0.000276   0.007334
    18  C   -0.006433  -0.004574   0.005021  -0.033411
    19  C    0.383164   0.374948   0.374677  -0.000645
    20  O    0.001794   0.002464   0.000540   0.244360
    21  H   -0.000000   0.000000  -0.000000   0.000000
    22  H    0.000001   0.000001   0.000109  -0.000000
    23  H    0.000000   0.000000   0.000000   0.000000
    24  H    0.000000  -0.000000  -0.000001   0.000000
    25  H    0.000000   0.000000   0.000000   0.000000
    26  H   -0.000000  -0.000000   0.000000   0.000000
    27  H   -0.000000   0.000000  -0.000000   0.000000
    28  H    0.000000   0.000000  -0.000007   0.000000
    29  H    0.000000   0.000000  -0.000001   0.000000
    30  H    0.000000  -0.000000   0.000005   0.000000
    31  H    0.000042  -0.000036   0.004419  -0.000000
    32  H    0.000002   0.000003  -0.000024  -0.000000
    33  H   -0.000088  -0.000119   0.000051  -0.000006
    34  H   -0.000134   0.000101  -0.000131  -0.000036
    35  H   -0.000030   0.005662  -0.000139   0.003336
    36  H    0.000013   0.000753   0.000316  -0.000006
    37  H   -0.000001  -0.000059   0.000055   0.000004
    38  H    0.000028  -0.000001  -0.000035   0.000005
    39  H    0.000033   0.000045   0.000278   0.000003
    40  H   -0.000060  -0.000000   0.000002  -0.000210
    41  H    0.001056   0.000006   0.000038  -0.000054
    42  H    0.000270  -0.000062  -0.000067   0.000179
    43  H    0.513893  -0.025357  -0.026217  -0.000025
    44  H   -0.025357   0.552687  -0.027748   0.002988
    45  H   -0.026217  -0.027748   0.546894  -0.000154
    46  H   -0.000025   0.002988  -0.000154   0.374588
 Mulliken charges:
               1
     1  C    0.457970
     2  O   -0.507406
     3  C   -0.274135
     4  C    0.174384
     5  C   -0.185843
     6  C   -0.332617
     7  C   -0.404071
     8  C   -0.389703
     9  C   -0.308104
    10  C   -0.131934
    11  C   -0.118709
    12  C   -0.120756
    13  C   -0.005376
    14  C   -0.307506
    15  C   -0.320321
    16  C   -0.323966
    17  C   -0.347337
    18  C    0.154654
    19  C   -0.514083
    20  O   -0.658408
    21  H    0.168843
    22  H    0.161259
    23  H    0.167737
    24  H    0.168042
    25  H    0.181176
    26  H    0.192535
    27  H    0.183573
    28  H    0.183665
    29  H    0.158829
    30  H    0.166795
    31  H    0.136457
    32  H    0.143189
    33  H    0.135689
    34  H    0.151527
    35  H    0.138122
    36  H    0.153308
    37  H    0.166668
    38  H    0.161573
    39  H    0.157557
    40  H    0.168113
    41  H    0.180991
    42  H    0.129397
    43  H    0.185069
    44  H    0.152604
    45  H    0.163955
    46  H    0.406596
 Sum of Mulliken charges =  -0.00000
 Mulliken charges with hydrogens summed into heavy atoms:
               1
     1  C    0.457970
     2  O   -0.507406
     3  C   -0.105292
     4  C    0.174384
     5  C   -0.024584
     6  C    0.003161
     7  C   -0.030360
     8  C   -0.022465
     9  C    0.017520
    10  C    0.004523
    11  C    0.024480
    12  C    0.014933
    13  C   -0.005376
    14  C   -0.017857
    15  C   -0.000346
    16  C   -0.004836
    17  C    0.001766
    18  C    0.284051
    19  C   -0.012455
    20  O   -0.251812
 Electronic spatial extent (au):  <R**2>=           6834.2217
 Charge=             -0.0000 electrons
 Dipole moment (field-independent basis, Debye):
    X=             -3.3464    Y=             -0.1889    Z=              0.2371  Tot=              3.3601
 Quadrupole moment (field-independent basis, Debye-Ang):
   XX=           -174.2638   YY=           -112.3309   ZZ=           -118.7137
   XY=              0.4967   XZ=              1.8862   YZ=             -0.4312
 Traceless Quadrupole moment (field-independent basis, Debye-Ang):
   XX=            -39.1610   YY=             22.7719   ZZ=             16.3891
   XY=              0.4967   XZ=              1.8862   YZ=             -0.4312
 Octapole moment (field-independent basis, Debye-Ang**2):
  XXX=           -182.4526  YYY=            -12.0998  ZZZ=             -0.3256  XYY=             -4.7543
  XXY=              2.2302  XXZ=              2.9676  XZZ=             -0.4608  YZZ=             -1.3097
  YYZ=              0.8068  XYZ=              2.0256
 Hexadecapole moment (field-independent basis, Debye-Ang**3):
 XXXX=          -9559.0248 YYYY=          -1381.4488 ZZZZ=           -400.8251 XXXY=            -24.8928
 XXXZ=             27.1989 YYYX=             79.0119 YYYZ=             -7.9888 ZZZX=              6.6461
 ZZZY=              2.5296 XXYY=          -1296.5499 XXZZ=          -1222.6654 YYZZ=           -305.8203
 XXYZ=            -13.4309 YYXZ=            -10.0765 ZZXY=             -4.8197
 N-N= 1.672125939512D+03 E-N=-5.321329030310D+03  KE= 8.443547155920D+02

 **********************************************************************

            Electrostatic Properties Using The SCF Density.

 **********************************************************************

       Atomic Center    1 is at   4.685932 -0.169215  0.041007
       Atomic Center    2 is at   5.920296 -0.122959 -0.037671
       Atomic Center    3 is at   3.832395  0.971970 -0.052974
       Atomic Center    4 is at   2.482200  0.919535  0.077357
       Atomic Center    5 is at   1.761574 -0.386083  0.214780
       Atomic Center    6 is at   2.626925 -1.533330 -0.312071
       Atomic Center    7 is at   4.008879 -1.486322  0.315492
       Atomic Center    8 is at   1.706937  2.174122  0.200456
       Atomic Center    9 is at   0.275314  2.115063 -0.325237
       Atomic Center   10 is at  -0.416581  0.833227  0.128369
       Atomic Center   11 is at   0.368162 -0.358948 -0.444150
       Atomic Center   12 is at  -1.863895  0.766433 -0.343593
       Atomic Center   13 is at  -2.543384 -0.558935  0.028775
       Atomic Center   14 is at  -1.804844 -1.687307 -0.677487
       Atomic Center   15 is at  -0.343231 -1.702503 -0.234481
       Atomic Center   16 is at  -2.859579  1.801029  0.178572
       Atomic Center   17 is at  -4.229237  1.180975 -0.156065
       Atomic Center   18 is at  -3.971693 -0.306610 -0.492837
       Atomic Center   19 is at  -2.598599 -0.816536  1.537619
       Atomic Center   20 is at  -4.979009 -1.121176  0.064903
       Atomic Center   21 is at   4.316999  1.929698 -0.186038
       Atomic Center   22 is at   1.591844 -0.527984  1.293448
       Atomic Center   23 is at   2.716719 -1.452757 -1.399617
       Atomic Center   24 is at   2.168182 -2.494570 -0.079652
       Atomic Center   25 is at   3.919232 -1.577779  1.403310
       Atomic Center   26 is at   4.643285 -2.299390 -0.042092
       Atomic Center   27 is at   2.250899  2.999297 -0.262797
       Atomic Center   28 is at   1.673678  2.407512  1.281838
       Atomic Center   29 is at   0.282553  2.159253 -1.419010
       Atomic Center   30 is at  -0.273174  2.985054  0.035663
       Atomic Center   31 is at  -0.374691  0.791948  1.217850
       Atomic Center   32 is at   0.488706 -0.203362 -1.525082
       Atomic Center   33 is at  -1.858707  0.829383 -1.440747
       Atomic Center   34 is at  -1.859215 -1.537902 -1.759636
       Atomic Center   35 is at  -2.269119 -2.649331 -0.448657
       Atomic Center   36 is at  -0.287281 -1.967956  0.821231
       Atomic Center   37 is at   0.172364 -2.476306 -0.806328
       Atomic Center   38 is at  -2.732886  2.777635 -0.281913
       Atomic Center   39 is at  -2.734667  1.921762  1.253221
       Atomic Center   40 is at  -4.696787  1.689519 -0.999423
       Atomic Center   41 is at  -4.921436  1.235921  0.683452
       Atomic Center   42 is at  -3.970344 -0.446556 -1.587144
       Atomic Center   43 is at  -3.359305 -0.198372  2.005015
       Atomic Center   44 is at  -2.858763 -1.857222  1.708932
       Atomic Center   45 is at  -1.647343 -0.615593  2.017788
       Atomic Center   46 is at  -4.614689 -2.008214  0.197356
 -----------------------------------------------------------------

              Electrostatic Properties (Atomic Units)

 -----------------------------------------------------------------
    Center     Electric         -------- Electric Field --------
               Potential          X             Y             Z
 -----------------------------------------------------------------
    1 Atom    -14.674081      0.002117     -0.004372     -0.000007
    2 Atom    -22.352265      0.106093      0.003420     -0.007034
    3 Atom    -14.748714     -0.009152      0.001147      0.000492
    4 Atom    -14.709648      0.012982     -0.000823     -0.001855
    5 Atom    -14.719612     -0.002478     -0.004279     -0.003230
    6 Atom    -14.733637     -0.000062     -0.000764      0.000856
    7 Atom    -14.744075      0.001790     -0.000250     -0.002962
    8 Atom    -14.725830     -0.002187      0.003412     -0.000651
    9 Atom    -14.733019     -0.002385     -0.002076      0.000220
   10 Atom    -14.730955     -0.001136      0.000188     -0.003773
   11 Atom    -14.726060     -0.001890      0.000559      0.002176
   12 Atom    -14.737278     -0.000511     -0.001206      0.004278
   13 Atom    -14.733542     -0.001212      0.001580     -0.003657
   14 Atom    -14.737863     -0.001159      0.004326      0.001888
   15 Atom    -14.735905     -0.000177      0.000396     -0.001231
   16 Atom    -14.742388      0.001252     -0.000568     -0.000805
   17 Atom    -14.747687     -0.002656     -0.001441      0.000982
   18 Atom    -14.693823      0.018890      0.013265     -0.008218
   19 Atom    -14.746654     -0.000748      0.001910     -0.001826
   20 Atom    -22.314230     -0.106143      0.037629      0.024808
   21 Atom     -1.108320      0.018556      0.032479     -0.003870
   22 Atom     -1.101161     -0.005144     -0.008012      0.032246
   23 Atom     -1.116570      0.001243      0.000546     -0.032626
   24 Atom     -1.117895     -0.014243     -0.028607      0.004498
   25 Atom     -1.106893     -0.000461     -0.006686      0.032826
   26 Atom     -1.119312      0.021783     -0.020736     -0.008529
   27 Atom     -1.107874      0.016545      0.024933     -0.012918
   28 Atom     -1.100024     -0.001304      0.008582      0.025913
   29 Atom     -1.116456     -0.001704      0.003078     -0.032086
   30 Atom     -1.117105     -0.017406      0.027581      0.008871
   31 Atom     -1.115307     -0.001321     -0.000548      0.036306
   32 Atom     -1.115956      0.003812      0.004762     -0.031909
   33 Atom     -1.120876      0.000137      0.002074     -0.032754
   34 Atom     -1.118805     -0.003435      0.002229     -0.032816
   35 Atom     -1.116767     -0.011948     -0.031984      0.003619
   36 Atom     -1.117260      0.002912     -0.012866      0.032860
   37 Atom     -1.119549      0.016194     -0.023834     -0.013457
   38 Atom     -1.125234      0.003941      0.031620     -0.013224
   39 Atom     -1.124761      0.003095      0.006127      0.034227
   40 Atom     -1.128856     -0.015968      0.014916     -0.023485
   41 Atom     -1.128362     -0.022993     -0.000052      0.023694
   42 Atom     -1.134336     -0.000989     -0.003789     -0.030354
   43 Atom     -1.119139     -0.025010      0.016167      0.017602
   44 Atom     -1.114361     -0.007692     -0.032707      0.012703
   45 Atom     -1.114586      0.028850      0.004157      0.019078
   46 Atom     -0.996615      0.010949     -0.039902      0.005751
 -----------------------------------------------------------------
 -----------------------------------------------------
    Center         ---- Electric Field Gradient ----
                     XX            YY            ZZ
 -----------------------------------------------------
    1 Atom     -493.310551   -493.243670   -493.981652
    2 Atom    -1217.117175  -1214.550761  -1217.567317
    3 Atom     -493.130333   -493.192981   -493.434445
    4 Atom     -493.177507   -493.266784   -493.844911
    5 Atom     -492.770088   -492.806621   -492.803865
    6 Atom     -492.644930   -492.617863   -492.619458
    7 Atom     -492.735966   -492.749440   -492.767979
    8 Atom     -492.583312   -492.619749   -492.602963
    9 Atom     -492.687600   -492.634290   -492.645914
   10 Atom     -492.786599   -492.802683   -492.795755
   11 Atom     -492.851254   -492.818710   -492.830817
   12 Atom     -492.922936   -492.933302   -492.924563
   13 Atom     -492.969532   -492.965592   -493.015350
   14 Atom     -492.749525   -492.729330   -492.732733
   15 Atom     -492.668379   -492.662904   -492.637532
   16 Atom     -492.685462   -492.630548   -492.617947
   17 Atom     -492.675403   -492.704529   -492.632797
   18 Atom     -492.828540   -492.778640   -492.676494
   19 Atom     -492.577847   -492.607333   -492.630613
   20 Atom    -1214.384893  -1215.644686  -1213.013556
   21 Atom       -1.708873     -1.981191     -1.607678
   22 Atom       -1.630805     -1.627847     -2.016091
   23 Atom       -1.626383     -1.622311     -2.049544
   24 Atom       -1.715774     -1.977474     -1.651106
   25 Atom       -1.607990     -1.607767     -2.032412
   26 Atom       -1.754946     -1.853719     -1.655113
   27 Atom       -1.734863     -1.872732     -1.696558
   28 Atom       -1.600726     -1.618634     -1.985933
   29 Atom       -1.628046     -1.627380     -2.058418
   30 Atom       -1.745629     -1.915678     -1.678677
   31 Atom       -1.649604     -1.648010     -2.083135
   32 Atom       -1.640626     -1.646046     -2.039629
   33 Atom       -1.646721     -1.642444     -2.057332
   34 Atom       -1.631413     -1.637703     -2.054844
   35 Atom       -1.720713     -1.978315     -1.654312
   36 Atom       -1.636853     -1.659914     -2.050050
   37 Atom       -1.736419     -1.855607     -1.751168
   38 Atom       -1.640766     -2.001003     -1.715487
   39 Atom       -1.640757     -1.639377     -2.072969
   40 Atom       -1.710808     -1.729503     -1.898591
   41 Atom       -1.792933     -1.614673     -1.882548
   42 Atom       -1.675106     -1.680469     -2.070358
   43 Atom       -1.828370     -1.759227     -1.699595
   44 Atom       -1.644232     -2.044607     -1.636796
   45 Atom       -1.979631     -1.633799     -1.712002
   46 Atom       -1.549778     -2.002031     -1.429101
 -----------------------------------------------------
 -----------------------------------------------------
    Center         ---- Electric Field Gradient ----
                     XY            XZ            YZ
 -----------------------------------------------------
    1 Atom       -0.016506     -0.034992     -0.112505
    2 Atom       -0.076649     -0.005803     -0.438894
    3 Atom       -0.008123     -0.028708     -0.027782
    4 Atom       -0.001631     -0.059398     -0.007781
    5 Atom       -0.020492     -0.010858     -0.005454
    6 Atom        0.028748     -0.002318     -0.025845
    7 Atom       -0.006721     -0.033885      0.001738
    8 Atom        0.022314     -0.020288     -0.009187
    9 Atom       -0.007694     -0.017864      0.021383
   10 Atom       -0.001791      0.005776     -0.003275
   11 Atom       -0.009121     -0.016048     -0.008475
   12 Atom        0.010265     -0.009047      0.005145
   13 Atom       -0.000349      0.003259      0.006653
   14 Atom       -0.017456     -0.007445     -0.009425
   15 Atom       -0.019274     -0.007384      0.014588
   16 Atom       -0.003188      0.000034     -0.015954
   17 Atom       -0.014882     -0.021629     -0.037710
   18 Atom       -0.178448      0.127024      0.122254
   19 Atom       -0.013209     -0.005009      0.015872
   20 Atom       -0.147595      0.678759      0.938046
   21 Atom       -0.178208      0.026216      0.051510
   22 Atom       -0.008203      0.064128      0.054706
   23 Atom       -0.000213      0.033435      0.031228
   24 Atom       -0.164062      0.039222      0.082568
   25 Atom       -0.004926      0.036500      0.037142
   26 Atom        0.189489      0.082418     -0.108668
   27 Atom       -0.162919      0.093301      0.142978
   28 Atom        0.005911      0.013329     -0.084016
   29 Atom       -0.002483      0.001603      0.016540
   30 Atom        0.177490      0.073086     -0.118522
   31 Atom       -0.000998     -0.015564      0.018609
   32 Atom       -0.006840      0.044697      0.059091
   33 Atom       -0.000578      0.002357      0.023063
   34 Atom        0.004469     -0.021777      0.059190
   35 Atom       -0.165648      0.041854      0.081457
   36 Atom        0.003119     -0.023679      0.105434
   37 Atom        0.147172      0.108361     -0.163205
   38 Atom       -0.048589      0.021699      0.174003
   39 Atom       -0.005746     -0.050141     -0.048919
   40 Atom        0.087769     -0.148766      0.160909
   41 Atom        0.015784      0.217486     -0.020122
   42 Atom       -0.004574      0.004628     -0.049062
   43 Atom        0.185033      0.138729     -0.110581
   44 Atom       -0.108648      0.015235      0.068071
   45 Atom       -0.076471     -0.179216     -0.036078
   46 Atom        0.222803     -0.017371      0.094547
 -----------------------------------------------------
 -----------------------------------------------------
    Center         ---- Electric Field Gradient ----
                   ----       Eigenvalues       ----
 -----------------------------------------------------
    1 Atom     -494.000412   -493.310057   -493.225404
    2 Atom    -1217.630412  -1217.118781  -1214.486060
    3 Atom     -493.440397   -493.190194   -493.127168
    4 Atom     -493.850263   -493.266686   -493.172252
    5 Atom     -492.821221   -492.799828   -492.759525
    6 Atom     -492.666760   -492.631610   -492.583880
    7 Atom     -492.789563   -492.750536   -492.713287
    8 Atom     -492.630346   -492.614751   -492.560928
    9 Atom     -492.694209   -492.659660   -492.613935
   10 Atom     -492.804003   -492.797712   -492.783323
   11 Atom     -492.863342   -492.823118   -492.814320
   12 Atom     -492.944090   -492.923256   -492.913454
   13 Atom     -493.016453   -492.969304   -492.964717
   14 Atom     -492.763676   -492.730279   -492.717633
   15 Atom     -492.685491   -492.658074   -492.625249
   16 Atom     -492.685659   -492.641246   -492.607052
   17 Atom     -492.730027   -492.669490   -492.613213
   18 Atom     -493.063848   -492.625611   -492.594216
   19 Atom     -492.638696   -492.606226   -492.570870
   20 Atom    -1216.023791  -1214.503275  -1212.516070
   21 Atom       -2.076428     -1.620783     -1.600531
   22 Atom       -2.034017     -1.621013     -1.619712
   23 Atom       -2.054415     -1.624803     -1.619020
   24 Atom       -2.076135     -1.636813     -1.631405
   25 Atom       -2.038778     -1.606447     -1.602944
   26 Atom       -2.047548     -1.609346     -1.606884
   27 Atom       -2.060735     -1.627009     -1.616410
   28 Atom       -2.004743     -1.603212     -1.597338
   29 Atom       -2.059058     -1.629897     -1.624888
   30 Atom       -2.076224     -1.634209     -1.629550
   31 Atom       -2.084483     -1.650030     -1.646237
   32 Atom       -2.053264     -1.637407     -1.635629
   33 Atom       -2.058624     -1.646743     -1.641130
   34 Atom       -2.064218     -1.631351     -1.628392
   35 Atom       -2.079082     -1.640233     -1.634026
   36 Atom       -2.077996     -1.637425     -1.631397
   37 Atom       -2.073757     -1.637484     -1.631952
   38 Atom       -2.089622     -1.635139     -1.632495
   39 Atom       -2.084164     -1.635034     -1.633904
   40 Atom       -2.077230     -1.633020     -1.628653
   41 Atom       -2.061258     -1.615775     -1.613120
   42 Atom       -2.076478     -1.679847     -1.669608
   43 Atom       -2.067543     -1.615161     -1.604487
   44 Atom       -2.083084     -1.626300     -1.616251
   45 Atom       -2.085304     -1.622946     -1.617181
   46 Atom       -2.106431     -1.466112     -1.408367
 -----------------------------------------------------
 -----------------------------------------------------
    Center         ---- Electric Field Gradient ----
                       ( tensor representation )
                   3XX-RR        3YY-RR        3ZZ-RR
 -----------------------------------------------------
    1 Atom        0.201407      0.268287     -0.469695
    2 Atom       -0.705424      1.860990     -1.155566
    3 Atom        0.122254      0.059605     -0.181859
    4 Atom        0.252227      0.162950     -0.415177
    5 Atom        0.023437     -0.013096     -0.010341
    6 Atom       -0.017513      0.009554      0.007959
    7 Atom        0.015163      0.001688     -0.016851
    8 Atom        0.018696     -0.017741     -0.000954
    9 Atom       -0.031665      0.021645      0.010020
   10 Atom        0.008414     -0.007671     -0.000743
   11 Atom       -0.017660      0.014884      0.002776
   12 Atom        0.003998     -0.006369      0.002371
   13 Atom        0.013960      0.017899     -0.031859
   14 Atom       -0.012329      0.007866      0.004463
   15 Atom       -0.012107     -0.006632      0.018740
   16 Atom       -0.040809      0.014104      0.026705
   17 Atom       -0.004493     -0.033619      0.038112
   18 Atom       -0.067315     -0.017416      0.084731
   19 Atom        0.027418     -0.002069     -0.025349
   20 Atom       -0.037181     -1.296974      1.334155
   21 Atom        0.057041     -0.215277      0.158236
   22 Atom        0.127442      0.130401     -0.257843
   23 Atom        0.139696      0.143768     -0.283464
   24 Atom        0.065677     -0.196023      0.130345
   25 Atom        0.141399      0.141623     -0.283022
   26 Atom       -0.000353     -0.099126      0.099480
   27 Atom        0.033188     -0.104680      0.071493
   28 Atom        0.134372      0.116464     -0.250835
   29 Atom        0.143235      0.143902     -0.287137
   30 Atom        0.034366     -0.135683      0.101318
   31 Atom        0.143979      0.145573     -0.289552
   32 Atom        0.134808      0.129388     -0.264195
   33 Atom        0.135445      0.139722     -0.275166
   34 Atom        0.143240      0.136950     -0.280191
   35 Atom        0.063734     -0.193868      0.130134
   36 Atom        0.145419      0.122358     -0.267777
   37 Atom        0.044646     -0.074543      0.029897
   38 Atom        0.144986     -0.215251      0.070265
   39 Atom        0.143611      0.144991     -0.288601
   40 Atom        0.068826      0.050131     -0.118957
   41 Atom       -0.029548      0.148712     -0.119163
   42 Atom        0.133539      0.128175     -0.261714
   43 Atom       -0.065973      0.003170      0.062802
   44 Atom        0.130980     -0.269395      0.138416
   45 Atom       -0.204487      0.141344      0.063142
   46 Atom        0.110525     -0.341728      0.231202
 -----------------------------------------------------
 -----------------------------------------------------
    Center         ---- Electric Field Gradient ----
                       ( tensor representation )
                   ----       Eigenvalues       ----
 -----------------------------------------------------
    1 Atom       -0.488454      0.201901      0.286553
    2 Atom       -1.218662     -0.707030      1.925691
    3 Atom       -0.187810      0.062392      0.125418
    4 Atom       -0.420529      0.163048      0.257482
    5 Atom       -0.027697     -0.006303      0.034000
    6 Atom       -0.039344     -0.004193      0.043537
    7 Atom       -0.038434      0.000593      0.037841
    8 Atom       -0.028338     -0.012743      0.041081
    9 Atom       -0.038274     -0.003726      0.041999
   10 Atom       -0.008990     -0.002700      0.011690
   11 Atom       -0.029749      0.010475      0.019274
   12 Atom       -0.017157      0.003678      0.013479
   13 Atom       -0.032962      0.014187      0.018775
   14 Atom       -0.026480      0.006917      0.019563
   15 Atom       -0.029220     -0.001802      0.031022
   16 Atom       -0.041006      0.003406      0.037600
   17 Atom       -0.059117      0.001420      0.057697
   18 Atom       -0.302623      0.135614      0.167009
   19 Atom       -0.033432     -0.000962      0.034394
   20 Atom       -1.676079     -0.155563      1.831642
   21 Atom       -0.310514      0.145131      0.165383
   22 Atom       -0.275769      0.137234      0.138535
   23 Atom       -0.288335      0.141276      0.147060
   24 Atom       -0.294684      0.144638      0.150046
   25 Atom       -0.289388      0.142943      0.146445
   26 Atom       -0.292955      0.145247      0.147708
   27 Atom       -0.292684      0.141042      0.151641
   28 Atom       -0.269646      0.131886      0.137760
   29 Atom       -0.287777      0.141384      0.146393
   30 Atom       -0.296230      0.145786      0.150444
   31 Atom       -0.290900      0.143553      0.147347
   32 Atom       -0.277831      0.138026      0.139805
   33 Atom       -0.276458      0.135423      0.141036
   34 Atom       -0.289564      0.143302      0.146262
   35 Atom       -0.294635      0.144214      0.150421
   36 Atom       -0.295723      0.144848      0.150876
   37 Atom       -0.292693      0.143580      0.149112
   38 Atom       -0.303870      0.150613      0.153257
   39 Atom       -0.299796      0.149333      0.150463
   40 Atom       -0.297596      0.146614      0.150981
   41 Atom       -0.297873      0.147609      0.150264
   42 Atom       -0.267833      0.128797      0.139036
   43 Atom       -0.305146      0.147236      0.157910
   44 Atom       -0.307873      0.148912      0.158961
   45 Atom       -0.310160      0.152198      0.157962
   46 Atom       -0.446127      0.194191      0.251936
 -----------------------------------------------------
 Unable to Open any file for archive entry.
 1\1\GINC-EXP-3-49\SP\RwB97XD\6-31G(d)\C18H26O2\HKLEM\12-Aug-2024\0\\# 
 wb97xd 6-31G(d) prop=efg\\19nt_xstal_distance_cutoff3_xtb_ligand_conf_
 1\\0,1\C,0,43.1007,41.1877,31.3174\O,0,42.8141,40.1537,31.9344\C,0,43.
 2341,42.4736,31.9243\C,0,43.5062,43.6109,31.2349\C,0,43.8103,43.5809,2
 9.7688\C,0,44.2596,42.1809,29.3437\C,0,43.2652,41.1373,29.8211\C,0,43.
 3929,44.9234,31.9092\C,0,44.3076,46.0195,31.3695\C,0,44.3014,46.0287,2
 9.8439\C,0,44.8246,44.6667,29.358\C,0,45.1713,47.1429,29.2749\C,0,45.2
 457,47.1063,27.7419\C,0,45.897,45.794,27.3282\C,0,45.0646,44.6214,27.8
 429\C,0,44.7833,48.5953,29.5477\C,0,45.5981,49.3855,28.5065\C,0,46.101
 3,48.3582,27.4653\C,0,43.8846,47.2679,27.0583\O,0,46.0056,48.8883,26.1
 618\H,0,43.054,42.5276,32.9894\H,0,42.8671,43.8281,29.2572\H,0,45.2447
 ,41.9688,29.7702\H,0,44.3393,42.1194,28.2582\H,0,42.2817,41.3438,29.38
 54\H,0,43.5627,40.1298,29.5247\H,0,43.5301,44.8062,32.9857\H,0,42.3427
 ,45.2459,31.7749\H,0,45.3285,45.8578,31.73\H,0,43.9725,46.9837,31.7516
 \H,0,43.27,46.1496,29.5092\H,0,45.7816,44.4677,29.8597\H,0,46.1927,46.
 9919,29.6513\H,0,46.9062,45.7397,27.7464\H,0,45.9818,45.7362,26.2406\H
 ,0,44.1001,44.6112,27.3352\H,0,45.5911,43.6995,27.5889\H,0,45.0107,48.
 9085,30.5636\H,0,43.7139,48.7257,29.3914\H,0,46.4377,49.9019,28.9722\H
 ,0,44.9952,50.1358,27.9961\H,0,47.1565,48.108,27.6679\H,0,43.5537,48.3
 013,27.1013\H,0,43.979,46.9881,26.0129\H,0,43.1253,46.6429,27.5151\H,0
 ,45.9314,48.1516,25.5382\\Version=ES64L-G16RevC.01\State=1-A\HF=-851.7
 886155\RMSD=3.755e-09\Dipole=0.301207,1.0917179,-0.6819329\Quadrupole=
 9.6444095,-16.9314895,7.28708,-9.1897845,4.2502255,18.0193452\PG=C01 [
 X(C18H26O2)]\\@
 The archive entry for this job was punched.


 THE SOLUTION TO A PROBLEM CHANGES THE PROBLEM.

                                 -- JOHN PEERS
           PAUL DICKSON'S "THE OFFICIAL RULES"
 Job cpu time:       0 days  0 hours 10 minutes 42.6 seconds.
 Elapsed time:       0 days  0 hours  0 minutes 27.4 seconds.
 File lengths (MBytes):  RWF=     71 Int=      0 D2E=      0 Chk=      8 Scr=      1
 Normal termination of Gaussian 16 at Mon Aug 12 07:19:58 2024.
