 Entering Gaussian System, Link 0=g16
 Input=cutoff7_19nt.com
 Output=cutoff7_19nt.log
 Initial command:
 /usr/local/packages/license/gaussian/g16-c01/g16/l1.exe "/work/arkanil/gauss_scratch/Gau-26072.inp" -scrdir="/work/arkanil/gauss_scratch/"
 Entering Link 1 = /usr/local/packages/license/gaussian/g16-c01/g16/l1.exe PID=     26074.
  
 Copyright (c) 1988-2019, Gaussian, Inc.  All Rights Reserved.
  
 This is part of the Gaussian(R) 16 program.  It is based on
 the Gaussian(R) 09 system (copyright 2009, Gaussian, Inc.),
 the Gaussian(R) 03 system (copyright 2003, Gaussian, Inc.),
 the Gaussian(R) 98 system (copyright 1998, Gaussian, Inc.),
 the Gaussian(R) 94 system (copyright 1995, Gaussian, Inc.),
 the Gaussian 92(TM) system (copyright 1992, Gaussian, Inc.),
 the Gaussian 90(TM) system (copyright 1990, Gaussian, Inc.),
 the Gaussian 88(TM) system (copyright 1988, Gaussian, Inc.),
 the Gaussian 86(TM) system (copyright 1986, Carnegie Mellon
 University), and the Gaussian 82(TM) system (copyright 1983,
 Carnegie Mellon University). Gaussian is a federally registered
 trademark of Gaussian, Inc.
  
 This software contains proprietary and confidential information,
 including trade secrets, belonging to Gaussian, Inc.
  
 This software is provided under written license and may be
 used, copied, transmitted, or stored only in accord with that
 written license.
  
 The following legend is applicable only to US Government
 contracts under FAR:
  
                    RESTRICTED RIGHTS LEGEND
  
 Use, reproduction and disclosure by the US Government is
 subject to restrictions as set forth in subparagraphs (a)
 and (c) of the Commercial Computer Software - Restricted
 Rights clause in FAR 52.227-19.
  
 Gaussian, Inc.
 340 Quinnipiac St., Bldg. 40, Wallingford CT 06492
  
  
 ---------------------------------------------------------------
 Warning -- This program may not be used in any manner that
 competes with the business of Gaussian, Inc. or will provide
 assistance to any competitor of Gaussian, Inc.  The licensee
 of this program is prohibited from giving any competitor of
 Gaussian, Inc. access to this program.  By using this program,
 the user acknowledges that Gaussian, Inc. is engaged in the
 business of creating and licensing software in the field of
 computational chemistry and represents and warrants to the
 licensee that it is not a competitor of Gaussian, Inc. and that
 it will not use this program in any manner prohibited above.
 ---------------------------------------------------------------
  

 Cite this work as:
 Gaussian 16, Revision C.01,
 M. J. Frisch, G. W. Trucks, H. B. Schlegel, G. E. Scuseria, 
 M. A. Robb, J. R. Cheeseman, G. Scalmani, V. Barone, 
 G. A. Petersson, H. Nakatsuji, X. Li, M. Caricato, A. V. Marenich, 
 J. Bloino, B. G. Janesko, R. Gomperts, B. Mennucci, H. P. Hratchian, 
 J. V. Ortiz, A. F. Izmaylov, J. L. Sonnenberg, D. Williams-Young, 
 F. Ding, F. Lipparini, F. Egidi, J. Goings, B. Peng, A. Petrone, 
 T. Henderson, D. Ranasinghe, V. G. Zakrzewski, J. Gao, N. Rega, 
 G. Zheng, W. Liang, M. Hada, M. Ehara, K. Toyota, R. Fukuda, 
 J. Hasegawa, M. Ishida, T. Nakajima, Y. Honda, O. Kitao, H. Nakai, 
 T. Vreven, K. Throssell, J. A. Montgomery, Jr., J. E. Peralta, 
 F. Ogliaro, M. J. Bearpark, J. J. Heyd, E. N. Brothers, K. N. Kudin, 
 V. N. Staroverov, T. A. Keith, R. Kobayashi, J. Normand, 
 K. Raghavachari, A. P. Rendell, J. C. Burant, S. S. Iyengar, 
 J. Tomasi, M. Cossi, J. M. Millam, M. Klene, C. Adamo, R. Cammi, 
 J. W. Ochterski, R. L. Martin, K. Morokuma, O. Farkas, 
 J. B. Foresman, and D. J. Fox, Gaussian, Inc., Wallingford CT, 2019.
 
 ******************************************
 Gaussian 16:  ES64L-G16RevC.01  3-Jul-2019
                 1-May-2026 
 ******************************************
 %chk=ksi_reactant_trial_ligand.chk
 %nprocshared=64
 Will use up to   64 processors via shared memory.
 %mem=200GB
 --------------------------
 # wb97xd/6-31g(d) prop=efg
 --------------------------
 1/38=1,172=1/1;
 2/12=2,17=6,18=5,40=1/2;
 3/5=1,6=6,7=1,11=2,25=1,30=1,74=-58/1,2,3;
 4//1;
 5/5=2,38=5/2;
 6/7=2,8=2,9=2,10=2,14=1,28=1/1,2;
 99/5=1,9=1/99;
 -------------------------------
 None_sub_reg_combined_truncated
 -------------------------------
 Symbolic Z-matrix:
 Charge =  0 Multiplicity = 1
 C                    0    -1.7609    1.67584  -1.26135 
 O                    0    -2.50464   1.8923   -2.22142 
 C                    0    -1.72787   0.3927   -0.58797 
 C                    0    -0.84395   0.0987    0.39186 
 C                    0     0.19727   1.1025    0.85966 
 C                    0     0.43299   2.20448  -0.17992 
 C                    0    -0.86791   2.76698  -0.73694 
 C                    0    -0.94734  -1.21231   1.11264 
 C                    0     0.38857  -1.78552   1.58015 
 C                    0     1.20616  -0.71482   2.3003 
 C                    0     1.51375   0.42348   1.30388 
 C                    0     2.49664  -1.25917   2.88814 
 C                    0     3.3704   -0.17747   3.55168 
 C                    0     3.77728   0.8348    2.48009 
 C                    0     2.53344   1.45533   1.82587 
 C                    0     2.40699  -2.37395   3.93776 
 C                    0     3.78854  -2.33521   4.63429 
 C                    0     4.50184  -1.07194   4.0912 
 C                    0     2.68032   0.54432   4.72395 
 O                    0     5.37612  -0.47028   5.04472 
 H                    0    -2.48218  -0.33177  -0.8901 
 H                    0    -0.23304   1.5603    1.76585 
 H                    0     1.03316   1.79527  -1.00482 
 H                    0     1.02052   3.02016   0.25426 
 H                    0    -1.43478   3.28421   0.04986 
 H                    0    -0.69964   3.5      -1.52916 
 H                    0    -1.49018  -1.93547   0.49451 
 H                    0    -1.58993  -1.04739   1.99103 
 H                    0     0.96699  -2.17352   0.72732 
 H                    0     0.19257  -2.6353    2.24091 
 H                    0     0.58317  -0.30898   3.10962 
 H                    0     1.96191  -0.05069   0.41387 
 H                    0     3.09654  -1.65201   2.04825 
 H                    0     4.37645   0.32388   1.71184 
 H                    0     4.40287   1.63016   2.90472 
 H                    0     2.04214   2.11596   2.55296 
 H                    0     2.86045   2.09654   0.99971 
 H                    0     2.18392  -3.3491    3.50023 
 H                    0     1.59755  -2.16081   4.64567 
 H                    0     4.38307  -3.23059   4.43103 
 H                    0     3.69097  -2.26544   5.72451 
 H                    0     5.15336  -1.34842   3.25769 
 H                    0     2.4607   -0.131     5.56028 
 H                    0     3.32741   1.35355   5.08379 
 H                    0     1.7302    1.00217   4.43701 
 H                    0     4.8439   -0.18411   5.79826 
 
                          Input orientation:                          
 ---------------------------------------------------------------------
 Center     Atomic      Atomic             Coordinates (Angstroms)
 Number     Number       Type             X           Y           Z
 ---------------------------------------------------------------------
      1          6           0       -1.760899    1.675839   -1.261345
      2          8           0       -2.504640    1.892297   -2.221418
      3          6           0       -1.727869    0.392697   -0.587965
      4          6           0       -0.843950    0.098696    0.391860
      5          6           0        0.197273    1.102498    0.859664
      6          6           0        0.432994    2.204483   -0.179916
      7          6           0       -0.867911    2.766980   -0.736936
      8          6           0       -0.947336   -1.212314    1.112644
      9          6           0        0.388565   -1.785521    1.580150
     10          6           0        1.206164   -0.714821    2.300304
     11          6           0        1.513753    0.423475    1.303875
     12          6           0        2.496643   -1.259174    2.888142
     13          6           0        3.370401   -0.177468    3.551680
     14          6           0        3.777278    0.834803    2.480094
     15          6           0        2.533444    1.455332    1.825869
     16          6           0        2.406985   -2.373947    3.937764
     17          6           0        3.788541   -2.335209    4.634291
     18          6           0        4.501838   -1.071941    4.091197
     19          6           0        2.680321    0.544323    4.723949
     20          8           0        5.376121   -0.470283    5.044718
     21          1           0       -2.482183   -0.331771   -0.890095
     22          1           0       -0.233044    1.560295    1.765848
     23          1           0        1.033162    1.795268   -1.004821
     24          1           0        1.020521    3.020163    0.254260
     25          1           0       -1.434784    3.284214    0.049856
     26          1           0       -0.699636    3.499998   -1.529163
     27          1           0       -1.490184   -1.935470    0.494513
     28          1           0       -1.589931   -1.047394    1.991032
     29          1           0        0.966994   -2.173519    0.727324
     30          1           0        0.192568   -2.635299    2.240907
     31          1           0        0.583174   -0.308984    3.109617
     32          1           0        1.961908   -0.050692    0.413873
     33          1           0        3.096535   -1.652009    2.048253
     34          1           0        4.376445    0.323884    1.711841
     35          1           0        4.402875    1.630157    2.904718
     36          1           0        2.042138    2.115964    2.552962
     37          1           0        2.860447    2.096544    0.999708
     38          1           0        2.183920   -3.349103    3.500233
     39          1           0        1.597552   -2.160812    4.645674
     40          1           0        4.383067   -3.230594    4.431026
     41          1           0        3.690974   -2.265442    5.724510
     42          1           0        5.153360   -1.348418    3.257693
     43          1           0        2.460700   -0.131001    5.560281
     44          1           0        3.327409    1.353554    5.083790
     45          1           0        1.730197    1.002174    4.437014
     46          1           0        4.843898   -0.184111    5.798255
 ---------------------------------------------------------------------
                    Distance matrix (angstroms):
                    1          2          3          4          5
     1  C    0.000000
     2  O    1.233590   0.000000
     3  C    1.449477   2.349541   0.000000
     4  C    2.461963   3.578284   1.351964   0.000000
     5  C    2.943100   4.173390   2.511099   1.520067   0.000000
     6  C    2.502423   3.590945   2.849281   2.528211   1.533187
     7  C    1.504334   2.376476   2.529613   2.897325   2.540521
     8  C    3.826112   4.814538   2.465231   1.499655   2.594703
     9  C    4.967424   6.029005   3.731575   2.545859   2.982674
    10  C    5.215751   6.404147   4.263478   2.916665   2.529022
    11  C    4.344205   5.543700   3.753414   2.548728   1.546452
    12  C    6.630174   7.813591   5.714762   4.385749   3.870313
    13  C    7.275314   8.492861   6.591973   5.274607   4.353620
    14  C    6.736254   7.917386   6.317839   5.124288   3.938768
    15  C    5.293477   6.477172   5.011445   3.911986   2.552595
    16  C    7.797612   8.958818   6.725590   5.408879   5.142295
    17  C    9.035669  10.221383   8.071196   6.736623   6.242022
    18  C    8.684577   9.885674   7.927734   6.605523   5.805193
    19  C    7.538469   8.771487   6.904459   5.602327   4.627071
    20  O    9.762649  10.976562   9.107059   7.788588   6.841695
    21  H    2.165312   2.592181   1.088635   2.124269   3.506889
    22  H    3.392873   4.600942   3.022949   2.096979   1.102688
    23  H    2.808353   3.742401   3.124783   2.890091   2.157532
    24  H    3.441012   4.452844   3.894428   3.468451   2.172945
    25  H    2.100588   2.870664   2.975497   3.257848   2.842408
    26  H    2.127337   2.514351   3.405648   3.908965   3.501278
    27  H    4.024659   4.801792   2.578491   2.136817   3.494295
    28  H    4.245372   5.217587   2.957045   2.104130   3.015979
    29  H    5.119938   6.105586   3.946864   2.924896   3.367829
    30  H    5.887929   6.905534   4.567204   3.459490   3.984844
    31  H    5.342238   6.542184   4.416491   3.096625   2.683932
    32  H    4.432444   5.538052   3.848990   2.809918   2.154649
    33  H    6.754456   7.884501   5.865607   4.619094   4.172023
    34  H    6.952310   8.079590   6.523534   5.389395   4.335657
    35  H    7.439777   8.605798   7.163530   6.015729   4.706140
    36  H    5.404233   6.596811   5.200772   4.131493   2.701462
    37  H    5.161995   6.261112   5.145527   4.252462   2.846091
    38  H    7.967701   9.065989   6.783548   5.542319   5.544017
    39  H    7.803330   8.967309   6.705953   5.400115   5.190746
    40  H    9.706930  10.859997   8.698393   7.397347   7.003655
    41  H    9.698391  10.900009   8.733665   7.388629   6.871368
    42  H    8.796295   9.958306   8.072910   6.802563   6.026635
    43  H    8.223208   9.450036   7.457835   6.138896   5.361009
    44  H    8.139747   9.363178   7.658191   6.402274   5.263461
    45  H    6.716612   7.941088   6.130261   4.879116   3.893245
    46  H    9.844832  11.073736   9.181756   7.852433   6.901896
                    6          7          8          9         10
     6  C    0.000000
     7  C    1.522836   0.000000
     8  C    3.905192   4.388854   0.000000
     9  C    4.361185   5.260502   1.527010   0.000000
    10  C    3.907892   5.064539   2.509103   1.527576   0.000000
    11  C    2.557668   3.915258   2.961306   2.494402   1.543761
    12  C    5.066414   6.377408   3.874994   2.536115   1.518950
    13  C    5.312896   6.710089   5.065832   3.919708   2.557071
    14  C    4.487306   5.971630   5.327531   4.377142   3.007372
    15  C    2.999382   4.456187   4.443068   3.894100   2.587726
    16  C    6.466371   7.681595   4.536757   3.158894   2.622202
    17  C    7.419238   8.750140   6.007614   4.603235   3.839508
    18  C    6.747803   8.178165   6.211681   4.871711   3.767798
    19  C    5.643979   6.881237   5.411764   4.534732   3.103649
    20  O    7.673700   9.104687   7.483176   6.213598   4.998014
    21  H    3.928765   3.497369   2.672466   4.056685   4.891756
    22  H    2.155129   2.850100   2.936707   3.408132   2.744652
    23  H    1.099148   2.151759   4.177509   4.463141   4.153833
    24  H    1.095003   2.147731   4.745856   5.025132   4.262730
    25  H    2.169610   1.099053   4.646062   5.600769   5.294469
    26  H    2.186705   1.092362   5.407993   6.228059   6.005130
    27  H    4.614399   4.900686   1.095319   2.175038   3.467154
    28  H    4.402266   4.744741   1.100769   2.151302   2.832737
    29  H    4.502793   5.469869   2.176476   1.101106   2.158534
    30  H    5.416796   6.259136   2.144119   1.094138   2.172358
    31  H    4.142596   5.134508   2.673269   2.134784   1.099003
    32  H    2.788544   4.155901   3.209571   2.616341   2.137952
    33  H    5.189578   6.557559   4.173918   2.751372   2.124936
    34  H    4.760904   6.282396   5.573292   4.513327   3.387607
    35  H    5.060116   6.506550   6.317905   5.434705   4.010386
    36  H    3.172665   4.440229   4.699884   4.347672   2.962437
    37  H    2.701054   4.167262   5.045841   4.638700   3.511691
    38  H    6.888509   8.041999   4.480091   3.058563   3.055369
    39  H    6.610470   7.702865   4.456277   3.316614   2.782954
    40  H    8.148860   9.500079   6.595325   5.115836   4.578406
    41  H    8.090544   9.373313   6.625127   5.320897   4.505984
    42  H    6.835358   8.315604   6.468249   5.070353   4.110766
    43  H    6.520425   7.689791   5.706612   4.782533   3.541491
    44  H    6.066986   7.312957   6.373941   5.546719   4.065175
    45  H    4.944120   6.052641   4.808802   4.211044   2.790737
    46  H    7.803844   9.167465   7.520010   6.340892   5.074487
                   11         12         13         14         15
    11  C    0.000000
    12  C    2.511430   0.000000
    13  C    2.976727   1.540722   0.000000
    14  C    2.583840   2.488226   1.529228   0.000000
    15  C    1.541745   2.915188   2.518920   1.536291   0.000000
    16  C    3.944719   1.533774   2.429352   3.781346   4.374868
    17  C    4.886376   2.424023   2.450048   3.832710   4.881670
    18  C    4.351331   2.345891   1.539906   2.599291   3.923442
    19  C    3.615576   2.580024   1.539937   2.514474   3.041443
    20  O    5.450743   3.683010   2.517502   3.291936   4.706357
    21  H    4.620758   6.318533   7.348872   7.204160   5.977183
    22  H    2.134731   4.081684   4.381077   4.137532   2.769129
    23  H    2.728161   5.160092   5.487811   4.538425   3.221678
    24  H    2.843898   5.237270   5.159434   4.162913   2.684695
    25  H    4.295377   6.644875   6.880103   6.250701   4.716552
    26  H    4.731827   7.237299   7.476893   6.574205   5.088193
    27  H    3.904270   4.699109   6.005175   6.274002   5.427673
    28  H    3.502641   4.189241   5.272313   5.708658   4.826296
    29  H    2.715830   2.800890   4.211600   4.474360   4.102332
    30  H    3.461164   2.760687   4.225835   4.994894   4.731302
    31  H    2.159439   2.147854   2.825128   3.450630   2.926495
    32  H    1.103531   2.805063   3.441767   2.889453   2.142077
    33  H    2.714209   1.104357   2.123574   2.614217   3.165769
    34  H    2.893330   2.724594   2.156035   1.100115   2.165601
    35  H    3.516505   3.461536   2.179924   1.097390   2.165468
    36  H    2.168854   3.422057   2.832234   2.158100   1.098399
    37  H    2.169162   3.867736   3.455972   2.150375   1.095731
    38  H    4.416498   2.200058   3.386688   4.591791   5.099829
    39  H    4.225303   2.170307   2.876364   4.291230   4.680138
    40  H    5.600380   3.134579   3.334714   4.549788   5.671495
    41  H    5.613607   3.237898   3.030444   4.488341   5.512117
    42  H    4.494858   2.683780   2.153252   2.695314   4.095741
    43  H    4.395582   2.900757   2.205492   3.486217   4.058026
    44  H    4.294433   3.512462   2.166388   2.692716   3.354816
    45  H    3.193478   2.846074   2.205820   2.836916   2.769230
    46  H    5.626587   3.890260   2.686696   3.631261   4.879121
                   16         17         18         19         20
    16  C    0.000000
    17  C    1.547691   0.000000
    18  C    2.471269   1.549061   0.000000
    19  C    3.034650   3.086729   2.516070   0.000000
    20  O    3.696627   2.483306   1.426732   2.898216   0.000000
    21  H    7.168171   8.593869   8.610324   7.677010   9.848560
    22  H    5.212028   6.290951   5.895339   4.274372   6.807126
    23  H    6.610514   7.513490   6.798676   6.090714   7.784018
    24  H    6.677343   7.451618   6.602043   5.372415   7.355471
    25  H    7.867007   8.937454   8.399524   6.803546   9.243015
    26  H    8.604744   9.601122   8.918879   7.698151   9.792541
    27  H    5.218828   6.720304   7.041743   6.436662   8.366438
    28  H    4.639488   6.129702   6.443675   5.313892   7.627840
    29  H    3.524297   4.821998   5.002423   5.127881   6.401664
    30  H    2.802012   4.330053   4.943427   4.739663   6.278365
    31  H    2.876836   4.087126   4.111147   2.780688   5.171361
    32  H    4.244221   5.134933   4.584420   4.409866   5.768677
    33  H    2.137037   2.762830   2.546562   3.486611   3.946111
    34  H    4.013950   3.994636   2.761410   3.463845   3.569051
    35  H    4.591689   4.369549   2.952772   2.730536   3.152563
    36  H    4.712758   5.214863   4.310340   2.755089   4.900302
    37  H    5.368714   5.806202   4.721310   4.038788   5.411037
    38  H    1.091843   2.211081   3.302643   4.111285   4.567624
    39  H    1.096241   2.197948   3.150867   2.914836   4.158691
    40  H    2.209537   1.093843   2.188464   4.151523   2.997014
    41  H    2.202921   1.096797   2.179371   3.149178   2.554297
    42  H    3.009449   2.175203   1.093458   3.442136   2.003547
    43  H    2.768800   2.734804   2.685111   1.097154   2.980033
    44  H    4.006847   3.744551   2.871855   1.096842   2.743197
    45  H    3.479294   3.926044   3.479014   1.093021   3.978718
    46  H    3.767672   2.663797   1.954301   2.523057   0.965906
                   21         22         23         24         25
    21  H    0.000000
    22  H    3.961385   0.000000
    23  H    4.110366   3.055339   0.000000
    24  H    4.981360   2.446945   1.756648   0.000000
    25  H    3.880193   2.713062   3.069212   2.477908   0.000000
    26  H    4.274147   3.851916   2.486690   2.523842   1.755080
    27  H    2.339455   3.926457   4.746966   5.560545   5.238883
    28  H    3.099858   2.948202   4.892492   5.135743   4.749217
    29  H    4.231418   4.057091   4.330817   5.215457   6.001196
    30  H    4.718443   4.243800   5.556192   6.051159   6.518406
    31  H    5.039308   2.442566   4.643163   4.407670   5.132773
    32  H    4.639966   3.039890   2.506557   3.215873   4.774057
    33  H    6.441973   4.635164   5.046037   5.418250   6.992334
    34  H    7.364831   4.772737   4.552226   4.544963   6.730240
    35  H    8.102703   4.774270   5.163983   4.516344   6.705550
    36  H    6.189954   2.470783   3.711967   2.673071   4.440646
    37  H    6.165368   3.231752   2.729079   2.189542   4.556511
    38  H    7.081793   5.740383   6.934285   7.242747   8.306685
    39  H    7.115783   5.048873   6.920780   6.816156   7.743701
    40  H    9.156919   7.166887   8.125859   8.235536   9.771631
    41  H    9.252024   6.760561   8.296820   8.061797   9.448480
    42  H    8.748670   6.300759   6.710277   6.722014   8.669206
    43  H    8.128945   4.951208   6.989202   6.337019   7.563285
    44  H    8.501705   4.871171   6.521493   5.605683   7.193499
    45  H    6.921101   3.361687   5.543322   4.698016   5.871283
    46  H    9.921053   6.714060   8.044967   7.457980   9.192128
                   26         27         28         29         30
    26  H    0.000000
    27  H    5.853592   0.000000
    28  H    5.819207   1.743043   0.000000
    29  H    6.329154   2.479635   3.066428   0.000000
    30  H    7.256123   2.524145   2.400246   1.761792   0.000000
    31  H    6.137770   3.712552   2.553207   3.049447   2.513756
    32  H    4.844234   3.933933   4.012033   2.365270   3.626129
    33  H    7.331575   4.851026   4.725653   2.559643   3.071970
    34  H    6.808701   6.403429   6.128295   4.339430   5.151844
    35  H    7.013646   7.297323   6.627053   5.569046   6.030045
    36  H    5.108485   5.755747   4.849178   4.784198   5.108110
    37  H    4.586836   5.953180   5.538315   4.678974   5.572117
    38  H    8.973288   4.952954   4.670921   3.248374   2.461890
    39  H    8.686222   5.178516   4.294982   3.968782   2.825247
    40  H   10.327565   7.188084   6.811508   5.148240   4.765635
    41  H   10.253464   7.369271   6.581068   5.692134   4.950871
    42  H    8.982132   7.219174   6.867825   4.960768   5.224880
    43  H    8.569253   6.672900   5.476032   5.455319   4.736473
    44  H    8.034641   7.422152   6.285693   6.081990   5.815510
    45  H    6.909304   5.877408   4.605085   4.942601   4.518672
    46  H    9.899216   8.444971   7.525580   6.685991   6.348064
                   31         32         33         34         35
    31  H    0.000000
    32  H    3.038858   0.000000
    33  H    3.040920   2.553976   0.000000
    34  H    4.091846   2.766770   2.378129   0.000000
    35  H    4.288632   3.871419   3.634924   1.769182   0.000000
    36  H    2.884235   3.045741   3.945137   3.060723   2.435738
    37  H    3.927372   2.400249   3.899594   2.438792   2.495128
    38  H    3.457932   4.522657   2.412725   4.636415   5.483742
    39  H    2.611073   4.742731   3.041780   4.743768   5.027147
    40  H    4.972033   5.666684   3.134438   4.475302   5.094792
    41  H    4.508194   6.008132   3.774192   4.824520   4.861453
    42  H    4.689238   4.467300   2.405295   2.406211   3.091881
    43  H    3.092335   5.171147   3.879703   4.322903   3.731720
    44  H    3.767256   5.064052   4.277990   3.678415   2.445709
    45  H    2.190155   4.165079   3.823316   3.858662   3.144122
    46  H    5.039656   6.108620   4.389820   4.144315   3.443636
                   36         37         38         39         40
    36  H    0.000000
    37  H    1.755735   0.000000
    38  H    5.548367   6.030372   0.000000
    39  H    4.782041   5.745699   1.751542   0.000000
    40  H    6.131293   6.516956   2.390955   2.991588   0.000000
    41  H    5.654564   6.483861   2.897057   2.357382   1.756022
    42  H    4.709383   4.714203   3.588752   3.902595   2.347903
    43  H    3.777302   5.091226   3.831003   2.387816   3.818139
    44  H    2.939095   4.177297   5.092171   3.941462   4.749203
    45  H    2.210766   3.780236   4.474040   3.172635   4.995406
    46  H    4.865401   5.671113   4.730070   3.971719   3.370866
                   41         42         43         44         45
    41  H    0.000000
    42  H    3.010763   0.000000
    43  H    2.469086   3.746256   0.000000
    44  H    3.693215   3.737563   1.783853   0.000000
    45  H    4.022388   4.316726   1.754836   1.758657   0.000000
    46  H    2.380464   2.811731   2.395639   2.274778   3.599359
                   46
    46  H    0.000000
 Stoichiometry    C18H26O2
 Framework group  C1[X(C18H26O2)]
 Deg. of freedom   132
 Full point group                 C1      NOp   1
 Largest Abelian subgroup         C1      NOp   1
 Largest concise Abelian subgroup C1      NOp   1
                         Standard orientation:                         
 ---------------------------------------------------------------------
 Center     Atomic      Atomic             Coordinates (Angstroms)
 Number     Number       Type             X           Y           Z
 ---------------------------------------------------------------------
      1          6           0        4.701591   -0.148254   -0.001311
      2          8           0        5.912185   -0.058090   -0.220580
      3          6           0        3.835380    1.013707    0.021234
      4          6           0        2.492186    0.927539    0.148557
      5          6           0        1.783018   -0.411306    0.271764
      6          6           0        2.653006   -1.565496   -0.239732
      7          6           0        4.082890   -1.490560    0.278770
      8          6           0        1.678849    2.181305    0.273129
      9          6           0        0.281190    2.093088   -0.335580
     10          6           0       -0.422326    0.817914    0.125381
     11          6           0        0.381306   -0.398883   -0.381354
     12          6           0       -1.859937    0.734059   -0.357789
     13          6           0       -2.560752   -0.581115    0.033365
     14          6           0       -1.813900   -1.738757   -0.630423
     15          6           0       -0.340461   -1.748522   -0.195601
     16          6           0       -2.840059    1.831778    0.074459
     17          6           0       -4.231420    1.199439   -0.169693
     18          6           0       -3.966274   -0.285538   -0.522019
     19          6           0       -2.644933   -0.810699    1.553763
     20          8           0       -5.008341   -1.157770   -0.087425
     21          1           0        4.325591    1.983817   -0.039649
     22          1           0        1.616693   -0.548899    1.353117
     23          1           0        2.664720   -1.544539   -1.338618
     24          1           0        2.217054   -2.528463    0.046048
     25          1           0        4.107196   -1.624928    1.369308
     26          1           0        4.720584   -2.270786   -0.142952
     27          1           0        2.235019    3.028885   -0.141607
     28          1           0        1.584978    2.399127    1.348040
     29          1           0        0.332801    2.103578   -1.435426
     30          1           0       -0.286526    2.979851   -0.038111
     31          1           0       -0.409192    0.809525    1.224273
     32          1           0        0.519677   -0.254092   -1.466559
     33          1           0       -1.833027    0.739664   -1.461803
     34          1           0       -1.870553   -1.623774   -1.723045
     35          1           0       -2.275742   -2.702338   -0.380463
     36          1           0       -0.283670   -2.048787    0.859433
     37          1           0        0.183196   -2.524671   -0.764813
     38          1           0       -2.699538    2.764169   -0.476015
     39          1           0       -2.692250    2.073293    1.133500
     40          1           0       -4.778667    1.695009   -0.976801
     41          1           0       -4.866594    1.260612    0.722370
     42          1           0       -3.942776   -0.406140   -1.608551
     43          1           0       -3.259052   -0.054109    2.057923
     44          1           0       -3.074147   -1.801139    1.748359
     45          1           0       -1.665590   -0.788926    2.038643
     46          1           0       -5.057071   -1.107246    0.875927
 ---------------------------------------------------------------------
 Rotational constants (GHZ):           0.9186981           0.1750418           0.1546759
 Standard basis: 6-31G(d) (6D, 7F)
 There are   352 symmetry adapted cartesian basis functions of A   symmetry.
 There are   352 symmetry adapted basis functions of A   symmetry.
   352 basis functions,   664 primitive gaussians,   352 cartesian basis functions
    75 alpha electrons       75 beta electrons
       nuclear repulsion energy      1662.8625369290 Hartrees.
 NAtoms=   46 NActive=   46 NUniq=   46 SFac= 1.00D+00 NAtFMM=   60 NAOKFM=F Big=F
 Integral buffers will be    131072 words long.
 Raffenetti 2 integral format.
 Two-electron integral symmetry is turned on.
 Nuclear repulsion after empirical dispersion term =     1662.8136768098 Hartrees.
 One-electron integrals computed using PRISM.
 NBasis=   352 RedAO= T EigKep=  1.30D-03  NBF=   352
 NBsUse=   352 1.00D-06 EigRej= -1.00D+00 NBFU=   352
 ExpMin= 1.61D-01 ExpMax= 5.48D+03 ExpMxC= 8.25D+02 IAcc=3 IRadAn=         5 AccDes= 0.00D+00
 Harris functional with IExCor= 4639 and IRadAn=       5 diagonalized for initial guess.
 HarFok:  IExCor= 4639 AccDes= 0.00D+00 IRadAn=         5 IDoV= 1 UseB2=F ITyADJ=14
 ICtDFT=  3500011 ScaDFX=  1.000000  1.000000  1.000000  1.000000
 FoFCou: FMM=F IPFlag=           0 FMFlag=      100000 FMFlg1=           0
         NFxFlg=           0 DoJE=T BraDBF=F KetDBF=T FulRan=T
         wScrn=  0.000000 ICntrl=       500 IOpCl=  0 I1Cent=   200000004 NGrid=           0
         NMat0=    1 NMatS0=      1 NMatT0=    0 NMatD0=    1 NMtDS0=    0 NMtDT0=    0
 Petite list used in FoFCou.
 Requested convergence on RMS density matrix=1.00D-08 within 128 cycles.
 Requested convergence on MAX density matrix=1.00D-06.
 Requested convergence on             energy=1.00D-06.
 No special actions if energy rises.
 Integral accuracy reduced to 1.0D-05 until final iterations.
 Initial convergence to 1.0D-05 achieved.  Increase integral accuracy.
 SCF Done:  E(RwB97XD) =  -851.795203846     A.U. after   15 cycles
            NFock= 15  Conv=0.80D-08     -V/T= 2.0093

 **********************************************************************

            Population analysis using the SCF Density.

 **********************************************************************

 Orbital symmetries:
       Occupied  (A) (A) (A) (A) (A) (A) (A) (A) (A) (A) (A) (A)
                 (A) (A) (A) (A) (A) (A) (A) (A) (A) (A) (A) (A)
                 (A) (A) (A) (A) (A) (A) (A) (A) (A) (A) (A) (A)
                 (A) (A) (A) (A) (A) (A) (A) (A) (A) (A) (A) (A)
                 (A) (A) (A) (A) (A) (A) (A) (A) (A) (A) (A) (A)
                 (A) (A) (A) (A) (A) (A) (A) (A) (A) (A) (A) (A)
                 (A) (A) (A)
       Virtual   (A) (A) (A) (A) (A) (A) (A) (A) (A) (A) (A) (A)
                 (A) (A) (A) (A) (A) (A) (A) (A) (A) (A) (A) (A)
                 (A) (A) (A) (A) (A) (A) (A) (A) (A) (A) (A) (A)
                 (A) (A) (A) (A) (A) (A) (A) (A) (A) (A) (A) (A)
                 (A) (A) (A) (A) (A) (A) (A) (A) (A) (A) (A) (A)
                 (A) (A) (A) (A) (A) (A) (A) (A) (A) (A) (A) (A)
                 (A) (A) (A) (A) (A) (A) (A) (A) (A) (A) (A) (A)
                 (A) (A) (A) (A) (A) (A) (A) (A) (A) (A) (A) (A)
                 (A) (A) (A) (A) (A) (A) (A) (A) (A) (A) (A) (A)
                 (A) (A) (A) (A) (A) (A) (A) (A) (A) (A) (A) (A)
                 (A) (A) (A) (A) (A) (A) (A) (A) (A) (A) (A) (A)
                 (A) (A) (A) (A) (A) (A) (A) (A) (A) (A) (A) (A)
                 (A) (A) (A) (A) (A) (A) (A) (A) (A) (A) (A) (A)
                 (A) (A) (A) (A) (A) (A) (A) (A) (A) (A) (A) (A)
                 (A) (A) (A) (A) (A) (A) (A) (A) (A) (A) (A) (A)
                 (A) (A) (A) (A) (A) (A) (A) (A) (A) (A) (A) (A)
                 (A) (A) (A) (A) (A) (A) (A) (A) (A) (A) (A) (A)
                 (A) (A) (A) (A) (A) (A) (A) (A) (A) (A) (A) (A)
                 (A) (A) (A) (A) (A) (A) (A) (A) (A) (A) (A) (A)
                 (A) (A) (A) (A) (A) (A) (A) (A) (A) (A) (A) (A)
                 (A) (A) (A) (A) (A) (A) (A) (A) (A) (A) (A) (A)
                 (A) (A) (A) (A) (A) (A) (A) (A) (A) (A) (A) (A)
                 (A) (A) (A) (A) (A) (A) (A) (A) (A) (A) (A) (A)
                 (A)
 The electronic state is 1-A.
 Alpha  occ. eigenvalues --  -19.26475 -19.23712 -10.36899 -10.34190 -10.33040
 Alpha  occ. eigenvalues --  -10.31778 -10.30951 -10.30856 -10.30487 -10.30473
 Alpha  occ. eigenvalues --  -10.30363 -10.30232 -10.30016 -10.29878 -10.29691
 Alpha  occ. eigenvalues --  -10.29686 -10.29516 -10.29454 -10.29380 -10.29350
 Alpha  occ. eigenvalues --   -1.11629  -1.11143  -0.98056  -0.95548  -0.90757
 Alpha  occ. eigenvalues --   -0.90078  -0.87238  -0.84445  -0.82472  -0.81626
 Alpha  occ. eigenvalues --   -0.78017  -0.77685  -0.73565  -0.71954  -0.69734
 Alpha  occ. eigenvalues --   -0.67683  -0.66538  -0.65393  -0.63305  -0.60762
 Alpha  occ. eigenvalues --   -0.59212  -0.57492  -0.56168  -0.55591  -0.55343
 Alpha  occ. eigenvalues --   -0.54040  -0.53285  -0.52858  -0.51046  -0.50879
 Alpha  occ. eigenvalues --   -0.50161  -0.49737  -0.49455  -0.48398  -0.48193
 Alpha  occ. eigenvalues --   -0.47581  -0.47062  -0.46822  -0.45204  -0.44555
 Alpha  occ. eigenvalues --   -0.43722  -0.43499  -0.43023  -0.42250  -0.41714
 Alpha  occ. eigenvalues --   -0.41504  -0.40803  -0.40490  -0.39480  -0.39233
 Alpha  occ. eigenvalues --   -0.37410  -0.36329  -0.33599  -0.32766  -0.30985
 Alpha virt. eigenvalues --    0.02566   0.13069   0.14530   0.14843   0.16680
 Alpha virt. eigenvalues --    0.16879   0.17951   0.18599   0.19116   0.20285
 Alpha virt. eigenvalues --    0.20717   0.20939   0.22092   0.22496   0.23108
 Alpha virt. eigenvalues --    0.23591   0.23685   0.24611   0.24719   0.25070
 Alpha virt. eigenvalues --    0.25477   0.25913   0.26260   0.26455   0.26967
 Alpha virt. eigenvalues --    0.27607   0.28097   0.28517   0.29161   0.30019
 Alpha virt. eigenvalues --    0.30414   0.31059   0.31465   0.32134   0.32780
 Alpha virt. eigenvalues --    0.33679   0.34620   0.34929   0.35871   0.36136
 Alpha virt. eigenvalues --    0.36852   0.37603   0.38777   0.39157   0.40768
 Alpha virt. eigenvalues --    0.41713   0.42255   0.44968   0.45231   0.49402
 Alpha virt. eigenvalues --    0.51832   0.57765   0.58438   0.59280   0.60043
 Alpha virt. eigenvalues --    0.61243   0.61541   0.62132   0.62807   0.65119
 Alpha virt. eigenvalues --    0.65607   0.65871   0.66526   0.68011   0.69184
 Alpha virt. eigenvalues --    0.70326   0.71290   0.72330   0.72930   0.73325
 Alpha virt. eigenvalues --    0.73834   0.74352   0.75274   0.75773   0.76497
 Alpha virt. eigenvalues --    0.77549   0.78130   0.78466   0.80025   0.81019
 Alpha virt. eigenvalues --    0.82952   0.83174   0.84418   0.84705   0.86152
 Alpha virt. eigenvalues --    0.86734   0.87147   0.88845   0.89731   0.89923
 Alpha virt. eigenvalues --    0.91180   0.91846   0.93111   0.93968   0.94387
 Alpha virt. eigenvalues --    0.94699   0.95163   0.96032   0.96104   0.96569
 Alpha virt. eigenvalues --    0.97240   0.97382   0.97733   0.98636   0.98749
 Alpha virt. eigenvalues --    0.99166   0.99768   1.00705   1.00862   1.02703
 Alpha virt. eigenvalues --    1.03161   1.03293   1.04050   1.04536   1.04728
 Alpha virt. eigenvalues --    1.05438   1.05657   1.06454   1.07313   1.07559
 Alpha virt. eigenvalues --    1.08835   1.10024   1.10663   1.12295   1.13718
 Alpha virt. eigenvalues --    1.14300   1.15957   1.16401   1.19043   1.20036
 Alpha virt. eigenvalues --    1.21328   1.23351   1.25690   1.26386   1.29727
 Alpha virt. eigenvalues --    1.30549   1.31473   1.33225   1.35545   1.37944
 Alpha virt. eigenvalues --    1.39345   1.41489   1.42737   1.43537   1.47711
 Alpha virt. eigenvalues --    1.51467   1.53003   1.54756   1.56017   1.58269
 Alpha virt. eigenvalues --    1.61141   1.61393   1.63916   1.65624   1.68068
 Alpha virt. eigenvalues --    1.69199   1.70620   1.73231   1.74211   1.76664
 Alpha virt. eigenvalues --    1.77384   1.78421   1.80647   1.81465   1.82818
 Alpha virt. eigenvalues --    1.83999   1.85523   1.86507   1.87216   1.88638
 Alpha virt. eigenvalues --    1.88891   1.91452   1.93035   1.93870   1.94845
 Alpha virt. eigenvalues --    1.95265   1.95935   1.96343   1.98341   1.98810
 Alpha virt. eigenvalues --    2.00010   2.00773   2.01021   2.01522   2.03303
 Alpha virt. eigenvalues --    2.04258   2.05015   2.06009   2.06692   2.07691
 Alpha virt. eigenvalues --    2.08565   2.10010   2.10640   2.10908   2.11953
 Alpha virt. eigenvalues --    2.12468   2.14763   2.15142   2.16012   2.18340
 Alpha virt. eigenvalues --    2.18938   2.19707   2.21258   2.23070   2.24461
 Alpha virt. eigenvalues --    2.25778   2.27343   2.29533   2.29977   2.31682
 Alpha virt. eigenvalues --    2.33934   2.34751   2.35736   2.37337   2.38967
 Alpha virt. eigenvalues --    2.39935   2.40763   2.42685   2.43115   2.46019
 Alpha virt. eigenvalues --    2.48119   2.48581   2.50475   2.50652   2.52771
 Alpha virt. eigenvalues --    2.53637   2.56513   2.58147   2.60548   2.61838
 Alpha virt. eigenvalues --    2.63647   2.64159   2.65138   2.65962   2.67265
 Alpha virt. eigenvalues --    2.68853   2.70448   2.71388   2.75063   2.76792
 Alpha virt. eigenvalues --    2.78896   2.79431   2.80790   2.82453   2.84225
 Alpha virt. eigenvalues --    2.86467   2.90154   2.93353   2.97028   2.98568
 Alpha virt. eigenvalues --    3.00142   3.02460   3.07741   3.08016   3.09137
 Alpha virt. eigenvalues --    3.20680   3.26493   3.99014   4.08230   4.23661
 Alpha virt. eigenvalues --    4.26373   4.30316   4.33813   4.35707   4.37574
 Alpha virt. eigenvalues --    4.41317   4.42378   4.47708   4.54041   4.55724
 Alpha virt. eigenvalues --    4.64783   4.66849   4.73617   4.76557   4.80568
 Alpha virt. eigenvalues --    4.85690   4.89924
          Condensed to atoms (all electrons):
               1          2          3          4          5          6
     1  C    4.425554   0.537827   0.364444  -0.000346  -0.020076  -0.026172
     2  O    0.537827   8.093182  -0.062942   0.005232   0.000340   0.002243
     3  C    0.364444  -0.062942   5.307974   0.514944  -0.042440   0.002350
     4  C   -0.000346   0.005232   0.514944   4.866984   0.377114  -0.040574
     5  C   -0.020076   0.000340  -0.042440   0.377114   5.079998   0.349441
     6  C   -0.026172   0.002243   0.002350  -0.040574   0.349441   5.137726
     7  C    0.341562  -0.078954  -0.131494   0.000775  -0.035363   0.292119
     8  C    0.003578  -0.000097  -0.035443   0.356211  -0.063622   0.004599
     9  C   -0.000126   0.000000   0.002503  -0.033170  -0.010801  -0.000293
    10  C   -0.000011   0.000000   0.000488  -0.013696  -0.039358   0.004028
    11  C   -0.000112   0.000001   0.003418  -0.031067   0.364801  -0.047078
    12  C   -0.000000   0.000000   0.000001   0.000288   0.003749  -0.000126
    13  C   -0.000000   0.000000   0.000000   0.000006   0.000034  -0.000004
    14  C    0.000000  -0.000000   0.000001  -0.000080   0.003363   0.000208
    15  C   -0.000003  -0.000000  -0.000113   0.004204  -0.041447  -0.004045
    16  C   -0.000000  -0.000000   0.000000  -0.000000  -0.000106   0.000001
    17  C    0.000000  -0.000000  -0.000000   0.000000   0.000002  -0.000000
    18  C    0.000000   0.000000  -0.000000  -0.000000   0.000004   0.000000
    19  C   -0.000000   0.000000   0.000000   0.000001   0.000013   0.000001
    20  O   -0.000000   0.000000   0.000000   0.000000  -0.000000   0.000000
    21  H   -0.028526   0.000980   0.360182  -0.044752   0.004412  -0.000319
    22  H    0.000647   0.000001  -0.004270  -0.044332   0.367308  -0.034369
    23  H   -0.002647   0.000092   0.003046  -0.004170  -0.043257   0.386097
    24  H    0.003508  -0.000070  -0.000379   0.004446  -0.029460   0.376811
    25  H   -0.028879  -0.000107   0.002665  -0.001733  -0.002559  -0.036480
    26  H   -0.027051   0.003824   0.005582  -0.000313   0.003871  -0.028777
    27  H    0.000230  -0.000001  -0.002661  -0.038813   0.003767  -0.000134
    28  H   -0.000124   0.000002  -0.007462  -0.037518   0.001051   0.000081
    29  H   -0.000001  -0.000000  -0.000158  -0.002922   0.000597   0.000007
    30  H    0.000001  -0.000000  -0.000077   0.004110   0.000022   0.000010
    31  H    0.000003  -0.000000  -0.000247  -0.004492  -0.001460   0.000167
    32  H    0.000031  -0.000000  -0.000034  -0.003780  -0.041589  -0.004849
    33  H    0.000000   0.000000  -0.000001  -0.000067   0.000163   0.000001
    34  H    0.000000   0.000000  -0.000000   0.000003   0.000037  -0.000025
    35  H   -0.000000  -0.000000  -0.000000   0.000001  -0.000091   0.000002
    36  H    0.000001  -0.000000  -0.000008   0.000154  -0.003304  -0.001706
    37  H   -0.000010  -0.000000   0.000013  -0.000127  -0.006201   0.002629
    38  H    0.000000  -0.000000   0.000000  -0.000001   0.000001  -0.000000
    39  H    0.000000   0.000000  -0.000000  -0.000001   0.000001   0.000000
    40  H    0.000000   0.000000   0.000000   0.000000  -0.000000   0.000000
    41  H    0.000000  -0.000000   0.000000  -0.000000  -0.000000   0.000000
    42  H    0.000000  -0.000000  -0.000000   0.000000   0.000000  -0.000000
    43  H   -0.000000  -0.000000   0.000000   0.000000  -0.000002  -0.000000
    44  H    0.000000  -0.000000  -0.000000  -0.000000  -0.000003   0.000000
    45  H    0.000000  -0.000000  -0.000000  -0.000001   0.000049   0.000001
    46  H   -0.000000   0.000000  -0.000000   0.000000  -0.000000   0.000000
               7          8          9         10         11         12
     1  C    0.341562   0.003578  -0.000126  -0.000011  -0.000112  -0.000000
     2  O   -0.078954  -0.000097   0.000000   0.000000   0.000001   0.000000
     3  C   -0.131494  -0.035443   0.002503   0.000488   0.003418   0.000001
     4  C    0.000775   0.356211  -0.033170  -0.013696  -0.031067   0.000288
     5  C   -0.035363  -0.063622  -0.010801  -0.039358   0.364801   0.003749
     6  C    0.292119   0.004599  -0.000293   0.004028  -0.047078  -0.000126
     7  C    5.348734  -0.000101   0.000034  -0.000085   0.004261   0.000001
     8  C   -0.000101   5.152540   0.336848  -0.043377  -0.014782   0.003913
     9  C    0.000034   0.336848   5.101921   0.367668  -0.042951  -0.042474
    10  C   -0.000085  -0.043377   0.367668   5.019495   0.371431   0.368262
    11  C    0.004261  -0.014782  -0.042951   0.371431   5.047121  -0.037490
    12  C    0.000001   0.003913  -0.042474   0.368262  -0.037490   5.103523
    13  C    0.000000  -0.000134   0.004305  -0.028402  -0.011176   0.354444
    14  C   -0.000002  -0.000008  -0.000112  -0.010619  -0.037262  -0.050633
    15  C    0.000192   0.000296   0.004283  -0.039695   0.360456  -0.016460
    16  C   -0.000000   0.000057  -0.003940  -0.034448   0.004236   0.355607
    17  C    0.000000  -0.000001   0.000161   0.004200  -0.000188  -0.052566
    18  C   -0.000000   0.000002  -0.000131   0.004047   0.000136  -0.065323
    19  C    0.000000  -0.000001   0.000171  -0.006174  -0.002268  -0.058133
    20  O    0.000000  -0.000000   0.000000  -0.000059  -0.000002   0.002836
    21  H    0.005971  -0.007808   0.000216  -0.000001  -0.000085   0.000000
    22  H   -0.004153   0.001350  -0.000468  -0.005998  -0.045563  -0.000001
    23  H   -0.041232  -0.000014  -0.000035   0.000137  -0.003420  -0.000002
    24  H   -0.030901  -0.000104  -0.000005  -0.000061  -0.007841  -0.000001
    25  H    0.365328  -0.000030  -0.000001   0.000002   0.000022   0.000000
    26  H    0.367721   0.000008   0.000000   0.000001  -0.000059  -0.000000
    27  H    0.000009   0.379277  -0.031310   0.004220  -0.000167  -0.000111
    28  H   -0.000060   0.377587  -0.039647  -0.005084  -0.000655  -0.000017
    29  H   -0.000004  -0.034381   0.379550  -0.039330  -0.008170  -0.004128
    30  H   -0.000000  -0.032451   0.378947  -0.032827   0.004792  -0.006933
    31  H   -0.000009   0.000618  -0.050064   0.380128  -0.050608  -0.043462
    32  H   -0.000099   0.000152  -0.007054  -0.047672   0.375449  -0.004201
    33  H   -0.000000   0.000099  -0.005937  -0.044272  -0.005741   0.381399
    34  H   -0.000000   0.000000  -0.000033  -0.000358  -0.003634  -0.006520
    35  H   -0.000000  -0.000000   0.000009  -0.000048   0.003930   0.005907
    36  H   -0.000069  -0.000007  -0.000028  -0.003271  -0.044978  -0.000328
    37  H    0.000076  -0.000009  -0.000113   0.004107  -0.029472   0.000102
    38  H    0.000000  -0.000009   0.001178  -0.001401  -0.000091  -0.025493
    39  H   -0.000000  -0.000037  -0.000633  -0.004140   0.000076  -0.040203
    40  H   -0.000000  -0.000000  -0.000005  -0.000052   0.000003   0.001149
    41  H   -0.000000  -0.000000   0.000001  -0.000149   0.000002   0.003286
    42  H   -0.000000  -0.000000   0.000006  -0.000252  -0.000008  -0.003829
    43  H    0.000000  -0.000000  -0.000024  -0.000096   0.000031  -0.003905
    44  H    0.000000  -0.000000   0.000000   0.000023   0.000068   0.005469
    45  H   -0.000000   0.000010  -0.000045   0.001815  -0.000309  -0.005753
    46  H    0.000000  -0.000000   0.000000  -0.000007   0.000001   0.000118
              13         14         15         16         17         18
     1  C   -0.000000   0.000000  -0.000003  -0.000000   0.000000   0.000000
     2  O    0.000000  -0.000000  -0.000000  -0.000000  -0.000000   0.000000
     3  C    0.000000   0.000001  -0.000113   0.000000  -0.000000  -0.000000
     4  C    0.000006  -0.000080   0.004204  -0.000000   0.000000  -0.000000
     5  C    0.000034   0.003363  -0.041447  -0.000106   0.000002   0.000004
     6  C   -0.000004   0.000208  -0.004045   0.000001  -0.000000   0.000000
     7  C    0.000000  -0.000002   0.000192  -0.000000   0.000000  -0.000000
     8  C   -0.000134  -0.000008   0.000296   0.000057  -0.000001   0.000002
     9  C    0.004305  -0.000112   0.004283  -0.003940   0.000161  -0.000131
    10  C   -0.028402  -0.010619  -0.039695  -0.034448   0.004200   0.004047
    11  C   -0.011176  -0.037262   0.360456   0.004236  -0.000188   0.000136
    12  C    0.354444  -0.050633  -0.016460   0.355607  -0.052566  -0.065323
    13  C    5.087809   0.377790  -0.040081  -0.051335  -0.085288   0.354501
    14  C    0.377790   5.098674   0.350026   0.005489   0.006564  -0.039154
    15  C   -0.040081   0.350026   5.112217   0.000233  -0.000204   0.004108
    16  C   -0.051335   0.005489   0.000233   5.136208   0.311208  -0.059775
    17  C   -0.085288   0.006564  -0.000204   0.311208   5.229433   0.346791
    18  C    0.354501  -0.039154   0.004108  -0.059775   0.346791   4.817821
    19  C    0.331052  -0.065176  -0.004288  -0.002920  -0.008501  -0.047821
    20  O   -0.046589   0.001215   0.000026   0.003226  -0.046217   0.265815
    21  H   -0.000000  -0.000000   0.000002  -0.000000  -0.000000  -0.000000
    22  H   -0.000031   0.000023  -0.006885  -0.000001   0.000000  -0.000000
    23  H   -0.000000  -0.000052  -0.001681   0.000000   0.000000  -0.000000
    24  H   -0.000002   0.000068   0.003719  -0.000000   0.000000   0.000000
    25  H   -0.000000  -0.000000  -0.000025   0.000000   0.000000  -0.000000
    26  H   -0.000000  -0.000000   0.000000   0.000000  -0.000000   0.000000
    27  H    0.000001  -0.000000   0.000008  -0.000001  -0.000000  -0.000000
    28  H    0.000003   0.000000  -0.000002  -0.000011  -0.000000  -0.000000
    29  H   -0.000015  -0.000010   0.000109  -0.000454  -0.000018  -0.000002
    30  H    0.000033  -0.000004  -0.000128   0.003925   0.000002  -0.000009
    31  H   -0.008808   0.000355  -0.002350  -0.004453  -0.000026   0.000081
    32  H   -0.001078  -0.000375  -0.045422  -0.000060   0.000004  -0.000053
    33  H   -0.054043  -0.006262  -0.001030  -0.044807  -0.001871  -0.003051
    34  H   -0.037648   0.378399  -0.037710   0.000048   0.000066  -0.005815
    35  H   -0.032344   0.376377  -0.034384  -0.000220   0.000066  -0.003715
    36  H   -0.008035  -0.036142   0.379677  -0.000018   0.000001  -0.000046
    37  H    0.004656  -0.033099   0.380240   0.000008   0.000003  -0.000073
    38  H    0.004542  -0.000133  -0.000003   0.377069  -0.026055   0.002274
    39  H   -0.005138  -0.000001  -0.000019   0.382983  -0.031808   0.001830
    40  H    0.004392  -0.000128   0.000003  -0.027854   0.377113  -0.024554
    41  H   -0.001118  -0.000104   0.000003  -0.028205   0.372493  -0.033533
    42  H   -0.051922  -0.007697   0.000076   0.003394  -0.048499   0.394579
    43  H   -0.033447   0.004824   0.000059   0.001758   0.003245  -0.004447
    44  H   -0.030362  -0.004890  -0.000427  -0.000267   0.000567  -0.005663
    45  H   -0.028407  -0.004204   0.001493  -0.000061  -0.000124   0.004694
    46  H   -0.014074  -0.000182  -0.000004   0.000008  -0.004642  -0.026674
              19         20         21         22         23         24
     1  C   -0.000000  -0.000000  -0.028526   0.000647  -0.002647   0.003508
     2  O    0.000000   0.000000   0.000980   0.000001   0.000092  -0.000070
     3  C    0.000000   0.000000   0.360182  -0.004270   0.003046  -0.000379
     4  C    0.000001   0.000000  -0.044752  -0.044332  -0.004170   0.004446
     5  C    0.000013  -0.000000   0.004412   0.367308  -0.043257  -0.029460
     6  C    0.000001   0.000000  -0.000319  -0.034369   0.386097   0.376811
     7  C    0.000000   0.000000   0.005971  -0.004153  -0.041232  -0.030901
     8  C   -0.000001  -0.000000  -0.007808   0.001350  -0.000014  -0.000104
     9  C    0.000171   0.000000   0.000216  -0.000468  -0.000035  -0.000005
    10  C   -0.006174  -0.000059  -0.000001  -0.005998   0.000137  -0.000061
    11  C   -0.002268  -0.000002  -0.000085  -0.045563  -0.003420  -0.007841
    12  C   -0.058133   0.002836   0.000000  -0.000001  -0.000002  -0.000001
    13  C    0.331052  -0.046589  -0.000000  -0.000031  -0.000000  -0.000002
    14  C   -0.065176   0.001215  -0.000000   0.000023  -0.000052   0.000068
    15  C   -0.004288   0.000026   0.000002  -0.006885  -0.001681   0.003719
    16  C   -0.002920   0.003226  -0.000000  -0.000001   0.000000  -0.000000
    17  C   -0.008501  -0.046217  -0.000000   0.000000   0.000000   0.000000
    18  C   -0.047821   0.265815  -0.000000  -0.000000  -0.000000   0.000000
    19  C    5.262234  -0.001160   0.000000  -0.000074  -0.000000  -0.000001
    20  O   -0.001160   8.266070   0.000000  -0.000000  -0.000000   0.000000
    21  H    0.000000   0.000000   0.532933  -0.000198  -0.000062   0.000012
    22  H   -0.000074  -0.000000  -0.000198   0.592628   0.005452  -0.003939
    23  H   -0.000000  -0.000000  -0.000062   0.005452   0.557719  -0.031823
    24  H   -0.000001   0.000000   0.000012  -0.003939  -0.031823   0.552404
    25  H   -0.000000  -0.000000  -0.000166   0.003995   0.004887  -0.005003
    26  H    0.000000   0.000000  -0.000105  -0.000144  -0.003363  -0.002382
    27  H    0.000000   0.000000   0.005011  -0.000089   0.000001   0.000001
    28  H   -0.000004  -0.000000   0.000383   0.001141   0.000001   0.000006
    29  H   -0.000002  -0.000000  -0.000003   0.000085  -0.000005   0.000002
    30  H   -0.000006   0.000000  -0.000007  -0.000009   0.000000   0.000000
    31  H    0.002116  -0.000000  -0.000002   0.005933   0.000008   0.000000
    32  H    0.000056   0.000000  -0.000012   0.006141   0.005387   0.000063
    33  H    0.006658   0.000049  -0.000000   0.000003  -0.000002  -0.000000
    34  H    0.005961  -0.000094  -0.000000   0.000004   0.000003   0.000008
    35  H   -0.006267   0.002650   0.000000  -0.000002   0.000000   0.000002
    36  H    0.002809  -0.000002  -0.000000   0.005777   0.000177   0.001207
    37  H    0.000051   0.000001   0.000000   0.000022   0.000995   0.000591
    38  H    0.000066  -0.000037  -0.000000   0.000000   0.000000  -0.000000
    39  H    0.002217  -0.000017   0.000000  -0.000002  -0.000000  -0.000000
    40  H    0.000140   0.002358   0.000000  -0.000000  -0.000000  -0.000000
    41  H    0.000519  -0.000999   0.000000   0.000000   0.000000   0.000000
    42  H    0.006346  -0.038500   0.000000  -0.000000  -0.000000   0.000000
    43  H    0.375363  -0.000762  -0.000000   0.000001   0.000000   0.000000
    44  H    0.371300   0.004451   0.000000   0.000000   0.000000   0.000000
    45  H    0.376884   0.000299  -0.000000   0.000165   0.000000  -0.000002
    46  H    0.011408   0.241469   0.000000  -0.000000   0.000000   0.000000
              25         26         27         28         29         30
     1  C   -0.028879  -0.027051   0.000230  -0.000124  -0.000001   0.000001
     2  O   -0.000107   0.003824  -0.000001   0.000002  -0.000000  -0.000000
     3  C    0.002665   0.005582  -0.002661  -0.007462  -0.000158  -0.000077
     4  C   -0.001733  -0.000313  -0.038813  -0.037518  -0.002922   0.004110
     5  C   -0.002559   0.003871   0.003767   0.001051   0.000597   0.000022
     6  C   -0.036480  -0.028777  -0.000134   0.000081   0.000007   0.000010
     7  C    0.365328   0.367721   0.000009  -0.000060  -0.000004  -0.000000
     8  C   -0.000030   0.000008   0.379277   0.377587  -0.034381  -0.032451
     9  C   -0.000001   0.000000  -0.031310  -0.039647   0.379550   0.378947
    10  C    0.000002   0.000001   0.004220  -0.005084  -0.039330  -0.032827
    11  C    0.000022  -0.000059  -0.000167  -0.000655  -0.008170   0.004792
    12  C    0.000000  -0.000000  -0.000111  -0.000017  -0.004128  -0.006933
    13  C   -0.000000  -0.000000   0.000001   0.000003  -0.000015   0.000033
    14  C   -0.000000  -0.000000  -0.000000   0.000000  -0.000010  -0.000004
    15  C   -0.000025   0.000000   0.000008  -0.000002   0.000109  -0.000128
    16  C    0.000000   0.000000  -0.000001  -0.000011  -0.000454   0.003925
    17  C    0.000000  -0.000000  -0.000000  -0.000000  -0.000018   0.000002
    18  C   -0.000000   0.000000  -0.000000  -0.000000  -0.000002  -0.000009
    19  C   -0.000000   0.000000   0.000000  -0.000004  -0.000002  -0.000006
    20  O   -0.000000   0.000000   0.000000  -0.000000  -0.000000   0.000000
    21  H   -0.000166  -0.000105   0.005011   0.000383  -0.000003  -0.000007
    22  H    0.003995  -0.000144  -0.000089   0.001141   0.000085  -0.000009
    23  H    0.004887  -0.003363   0.000001   0.000001  -0.000005   0.000000
    24  H   -0.005003  -0.002382   0.000001   0.000006   0.000002   0.000000
    25  H    0.538163  -0.022756   0.000000   0.000005  -0.000000   0.000000
    26  H   -0.022756   0.508890   0.000000  -0.000001  -0.000000   0.000000
    27  H    0.000000   0.000000   0.531798  -0.027466  -0.003348  -0.001412
    28  H    0.000005  -0.000001  -0.027466   0.553250   0.004840  -0.005456
    29  H   -0.000000  -0.000000  -0.003348   0.004840   0.564179  -0.031469
    30  H    0.000000   0.000000  -0.001412  -0.005456  -0.031469   0.555432
    31  H   -0.000001   0.000000   0.000061   0.004565   0.005633  -0.002603
    32  H    0.000008  -0.000002  -0.000037   0.000096   0.006342   0.000089
    33  H   -0.000000   0.000000   0.000003   0.000003   0.004415  -0.000054
    34  H    0.000000   0.000000  -0.000000  -0.000000  -0.000008   0.000001
    35  H    0.000000   0.000000   0.000000  -0.000000   0.000000  -0.000000
    36  H    0.000004   0.000000  -0.000000  -0.000001  -0.000000   0.000004
    37  H    0.000009   0.000000  -0.000000   0.000000  -0.000006   0.000002
    38  H    0.000000  -0.000000   0.000001   0.000004   0.000236   0.000763
    39  H   -0.000000   0.000000   0.000001   0.000001   0.000068   0.000575
    40  H    0.000000   0.000000   0.000000   0.000000  -0.000000   0.000002
    41  H   -0.000000   0.000000   0.000000   0.000000   0.000000   0.000002
    42  H   -0.000000   0.000000   0.000000  -0.000000  -0.000001  -0.000000
    43  H    0.000000   0.000000  -0.000000   0.000000   0.000000   0.000000
    44  H    0.000000  -0.000000   0.000000   0.000000   0.000000  -0.000000
    45  H    0.000000   0.000000  -0.000000  -0.000004  -0.000000   0.000002
    46  H    0.000000   0.000000  -0.000000   0.000000  -0.000000  -0.000000
              31         32         33         34         35         36
     1  C    0.000003   0.000031   0.000000   0.000000  -0.000000   0.000001
     2  O   -0.000000  -0.000000   0.000000   0.000000  -0.000000  -0.000000
     3  C   -0.000247  -0.000034  -0.000001  -0.000000  -0.000000  -0.000008
     4  C   -0.004492  -0.003780  -0.000067   0.000003   0.000001   0.000154
     5  C   -0.001460  -0.041589   0.000163   0.000037  -0.000091  -0.003304
     6  C    0.000167  -0.004849   0.000001  -0.000025   0.000002  -0.001706
     7  C   -0.000009  -0.000099  -0.000000  -0.000000  -0.000000  -0.000069
     8  C    0.000618   0.000152   0.000099   0.000000  -0.000000  -0.000007
     9  C   -0.050064  -0.007054  -0.005937  -0.000033   0.000009  -0.000028
    10  C    0.380128  -0.047672  -0.044272  -0.000358  -0.000048  -0.003271
    11  C   -0.050608   0.375449  -0.005741  -0.003634   0.003930  -0.044978
    12  C   -0.043462  -0.004201   0.381399  -0.006520   0.005907  -0.000328
    13  C   -0.008808  -0.001078  -0.054043  -0.037648  -0.032344  -0.008035
    14  C    0.000355  -0.000375  -0.006262   0.378399   0.376377  -0.036142
    15  C   -0.002350  -0.045422  -0.001030  -0.037710  -0.034384   0.379677
    16  C   -0.004453  -0.000060  -0.044807   0.000048  -0.000220  -0.000018
    17  C   -0.000026   0.000004  -0.001871   0.000066   0.000066   0.000001
    18  C    0.000081  -0.000053  -0.003051  -0.005815  -0.003715  -0.000046
    19  C    0.002116   0.000056   0.006658   0.005961  -0.006267   0.002809
    20  O   -0.000000   0.000000   0.000049  -0.000094   0.002650  -0.000002
    21  H   -0.000002  -0.000012  -0.000000  -0.000000   0.000000  -0.000000
    22  H    0.005933   0.006141   0.000003   0.000004  -0.000002   0.005777
    23  H    0.000008   0.005387  -0.000002   0.000003   0.000000   0.000177
    24  H    0.000000   0.000063  -0.000000   0.000008   0.000002   0.001207
    25  H   -0.000001   0.000008  -0.000000   0.000000   0.000000   0.000004
    26  H    0.000000  -0.000002   0.000000   0.000000   0.000000   0.000000
    27  H    0.000061  -0.000037   0.000003  -0.000000   0.000000  -0.000000
    28  H    0.004565   0.000096   0.000003  -0.000000  -0.000000  -0.000001
    29  H    0.005633   0.006342   0.004415  -0.000008   0.000000  -0.000000
    30  H   -0.002603   0.000089  -0.000054   0.000001  -0.000000   0.000004
    31  H    0.615229   0.006159   0.006162   0.000038  -0.000006   0.001461
    32  H    0.006159   0.608785   0.004606   0.002990  -0.000081   0.005596
    33  H    0.006162   0.004606   0.619360   0.005524   0.000043   0.000085
    34  H    0.000038   0.002990   0.005524   0.574705  -0.029245   0.005004
    35  H   -0.000006  -0.000081   0.000043  -0.029245   0.552935  -0.004308
    36  H    0.001461   0.005596   0.000085   0.005004  -0.004308   0.582715
    37  H   -0.000086  -0.005741  -0.000099  -0.004646  -0.001646  -0.033076
    38  H   -0.000130   0.000000  -0.006245  -0.000002   0.000003   0.000000
    39  H    0.004471   0.000004   0.005340  -0.000005   0.000005  -0.000004
    40  H    0.000001  -0.000000   0.000382  -0.000011  -0.000001   0.000000
    41  H   -0.000009  -0.000000  -0.000050  -0.000001  -0.000001  -0.000000
    42  H   -0.000008  -0.000005   0.004226   0.005395  -0.000039   0.000001
    43  H    0.000166   0.000001  -0.000062  -0.000134  -0.000026  -0.000013
    44  H   -0.000014   0.000002  -0.000116   0.000035   0.005015   0.000466
    45  H    0.003407  -0.000006   0.000006  -0.000055  -0.000101   0.001707
    46  H   -0.000002  -0.000000   0.000002   0.000008  -0.000056  -0.000002
              37         38         39         40         41         42
     1  C   -0.000010   0.000000   0.000000   0.000000   0.000000   0.000000
     2  O   -0.000000  -0.000000   0.000000   0.000000  -0.000000  -0.000000
     3  C    0.000013   0.000000  -0.000000   0.000000   0.000000  -0.000000
     4  C   -0.000127  -0.000001  -0.000001   0.000000  -0.000000   0.000000
     5  C   -0.006201   0.000001   0.000001  -0.000000  -0.000000   0.000000
     6  C    0.002629  -0.000000   0.000000   0.000000   0.000000  -0.000000
     7  C    0.000076   0.000000  -0.000000  -0.000000  -0.000000  -0.000000
     8  C   -0.000009  -0.000009  -0.000037  -0.000000  -0.000000  -0.000000
     9  C   -0.000113   0.001178  -0.000633  -0.000005   0.000001   0.000006
    10  C    0.004107  -0.001401  -0.004140  -0.000052  -0.000149  -0.000252
    11  C   -0.029472  -0.000091   0.000076   0.000003   0.000002  -0.000008
    12  C    0.000102  -0.025493  -0.040203   0.001149   0.003286  -0.003829
    13  C    0.004656   0.004542  -0.005138   0.004392  -0.001118  -0.051922
    14  C   -0.033099  -0.000133  -0.000001  -0.000128  -0.000104  -0.007697
    15  C    0.380240  -0.000003  -0.000019   0.000003   0.000003   0.000076
    16  C    0.000008   0.377069   0.382983  -0.027854  -0.028205   0.003394
    17  C    0.000003  -0.026055  -0.031808   0.377113   0.372493  -0.048499
    18  C   -0.000073   0.002274   0.001830  -0.024554  -0.033533   0.394579
    19  C    0.000051   0.000066   0.002217   0.000140   0.000519   0.006346
    20  O    0.000001  -0.000037  -0.000017   0.002358  -0.000999  -0.038500
    21  H    0.000000  -0.000000   0.000000   0.000000   0.000000   0.000000
    22  H    0.000022   0.000000  -0.000002  -0.000000   0.000000  -0.000000
    23  H    0.000995   0.000000  -0.000000  -0.000000   0.000000  -0.000000
    24  H    0.000591  -0.000000  -0.000000  -0.000000   0.000000   0.000000
    25  H    0.000009   0.000000  -0.000000   0.000000  -0.000000  -0.000000
    26  H    0.000000  -0.000000   0.000000   0.000000   0.000000   0.000000
    27  H   -0.000000   0.000001   0.000001   0.000000   0.000000   0.000000
    28  H    0.000000   0.000004   0.000001   0.000000   0.000000  -0.000000
    29  H   -0.000006   0.000236   0.000068  -0.000000   0.000000  -0.000001
    30  H    0.000002   0.000763   0.000575   0.000002   0.000002  -0.000000
    31  H   -0.000086  -0.000130   0.004471   0.000001  -0.000009  -0.000008
    32  H   -0.005741   0.000000   0.000004  -0.000000  -0.000000  -0.000005
    33  H   -0.000099  -0.006245   0.005340   0.000382  -0.000050   0.004226
    34  H   -0.004646  -0.000002  -0.000005  -0.000011  -0.000001   0.005395
    35  H   -0.001646   0.000003   0.000005  -0.000001  -0.000001  -0.000039
    36  H   -0.033076   0.000000  -0.000004   0.000000  -0.000000   0.000001
    37  H    0.554473  -0.000000  -0.000000  -0.000000  -0.000000  -0.000006
    38  H   -0.000000   0.546919  -0.033861  -0.006335   0.002558  -0.000086
    39  H   -0.000000  -0.033861   0.569899   0.003429  -0.009349  -0.000147
    40  H   -0.000000  -0.006335   0.003429   0.531594  -0.028631  -0.006561
    41  H   -0.000000   0.002558  -0.009349  -0.028631   0.559777   0.004221
    42  H   -0.000006  -0.000086  -0.000147  -0.006561   0.004221   0.575871
    43  H   -0.000001   0.000009   0.000477  -0.000033   0.001102   0.000041
    44  H   -0.000035   0.000002   0.000022  -0.000007  -0.000050  -0.000104
    45  H    0.000029  -0.000012   0.000140   0.000000  -0.000005  -0.000095
    46  H   -0.000000   0.000001  -0.000065  -0.000257   0.005562   0.006837
              43         44         45         46
     1  C   -0.000000   0.000000   0.000000  -0.000000
     2  O   -0.000000  -0.000000  -0.000000   0.000000
     3  C    0.000000  -0.000000  -0.000000  -0.000000
     4  C    0.000000  -0.000000  -0.000001   0.000000
     5  C   -0.000002  -0.000003   0.000049  -0.000000
     6  C   -0.000000   0.000000   0.000001   0.000000
     7  C    0.000000   0.000000  -0.000000   0.000000
     8  C   -0.000000  -0.000000   0.000010  -0.000000
     9  C   -0.000024   0.000000  -0.000045   0.000000
    10  C   -0.000096   0.000023   0.001815  -0.000007
    11  C    0.000031   0.000068  -0.000309   0.000001
    12  C   -0.003905   0.005469  -0.005753   0.000118
    13  C   -0.033447  -0.030362  -0.028407  -0.014074
    14  C    0.004824  -0.004890  -0.004204  -0.000182
    15  C    0.000059  -0.000427   0.001493  -0.000004
    16  C    0.001758  -0.000267  -0.000061   0.000008
    17  C    0.003245   0.000567  -0.000124  -0.004642
    18  C   -0.004447  -0.005663   0.004694  -0.026674
    19  C    0.375363   0.371300   0.376884   0.011408
    20  O   -0.000762   0.004451   0.000299   0.241469
    21  H   -0.000000   0.000000  -0.000000   0.000000
    22  H    0.000001   0.000000   0.000165  -0.000000
    23  H    0.000000   0.000000   0.000000   0.000000
    24  H    0.000000   0.000000  -0.000002   0.000000
    25  H    0.000000   0.000000   0.000000   0.000000
    26  H    0.000000  -0.000000   0.000000   0.000000
    27  H   -0.000000   0.000000  -0.000000  -0.000000
    28  H    0.000000   0.000000  -0.000004   0.000000
    29  H    0.000000   0.000000  -0.000000  -0.000000
    30  H    0.000000  -0.000000   0.000002  -0.000000
    31  H    0.000166  -0.000014   0.003407  -0.000002
    32  H    0.000001   0.000002  -0.000006  -0.000000
    33  H   -0.000062  -0.000116   0.000006   0.000002
    34  H   -0.000134   0.000035  -0.000055   0.000008
    35  H   -0.000026   0.005015  -0.000101  -0.000056
    36  H   -0.000013   0.000466   0.001707  -0.000002
    37  H   -0.000001  -0.000035   0.000029  -0.000000
    38  H    0.000009   0.000002  -0.000012   0.000001
    39  H    0.000477   0.000022   0.000140  -0.000065
    40  H   -0.000033  -0.000007   0.000000  -0.000257
    41  H    0.001102  -0.000050  -0.000005   0.005562
    42  H    0.000041  -0.000104  -0.000095   0.006837
    43  H    0.550558  -0.028487  -0.027278   0.001555
    44  H   -0.028487   0.536154  -0.026742   0.001268
    45  H   -0.027278  -0.026742   0.529772  -0.000084
    46  H    0.001555   0.001268  -0.000084   0.373444
 Mulliken charges:
               1
     1  C    0.456696
     2  O   -0.501554
     3  C   -0.279879
     4  C    0.167482
     5  C   -0.178997
     6  C   -0.333573
     7  C   -0.404256
     8  C   -0.384729
     9  C   -0.308402
    10  C   -0.129109
    11  C   -0.115058
    12  C   -0.121963
    13  C    0.045910
    14  C   -0.307046
    15  C   -0.325024
    16  C   -0.326521
    17  C   -0.345911
    18  C    0.123157
    19  C   -0.552571
    20  O   -0.656025
    21  H    0.171942
    22  H    0.159851
    23  H    0.167763
    24  H    0.169126
    25  H    0.182651
    26  H    0.195055
    27  H    0.181159
    28  H    0.180490
    29  H    0.158372
    30  H    0.164730
    31  H    0.132075
    32  H    0.140189
    33  H    0.135179
    34  H    0.147715
    35  H    0.165634
    36  H    0.148499
    37  H    0.166438
    38  H    0.164269
    39  H    0.153891
    40  H    0.173866
    41  H    0.152678
    42  H    0.156764
    43  H    0.159525
    44  H    0.172324
    45  H    0.172817
    46  H    0.404369
 Sum of Mulliken charges =  -0.00000
 Mulliken charges with hydrogens summed into heavy atoms:
               1
     1  C    0.456696
     2  O   -0.501554
     3  C   -0.107938
     4  C    0.167482
     5  C   -0.019146
     6  C    0.003317
     7  C   -0.026550
     8  C   -0.023080
     9  C    0.014700
    10  C    0.002966
    11  C    0.025130
    12  C    0.013216
    13  C    0.045910
    14  C    0.006303
    15  C   -0.010087
    16  C   -0.008361
    17  C   -0.019368
    18  C    0.279922
    19  C   -0.047904
    20  O   -0.251656
 Electronic spatial extent (au):  <R**2>=           6902.3527
 Charge=             -0.0000 electrons
 Dipole moment (field-independent basis, Debye):
    X=             -3.6180    Y=              0.8524    Z=              1.6882  Tot=              4.0824
 Quadrupole moment (field-independent basis, Debye-Ang):
   XX=           -167.5311   YY=           -117.1416   ZZ=           -117.1059
   XY=             -6.3808   XZ=             -2.3463   YZ=             -1.7810
 Traceless Quadrupole moment (field-independent basis, Debye-Ang):
   XX=            -33.6049   YY=             16.7846   ZZ=             16.8203
   XY=             -6.3808   XZ=             -2.3463   YZ=             -1.7810
 Octapole moment (field-independent basis, Debye-Ang**2):
  XXX=           -208.3907  YYY=              0.4808  ZZZ=             -1.1738  XYY=             19.9287
  XXY=             21.2797  XXZ=             51.5526  XZZ=            -11.3180  YZZ=             -3.9991
  YYZ=              1.7645  XYZ=             10.0459
 Hexadecapole moment (field-independent basis, Debye-Ang**3):
 XXXX=          -9306.0449 YYYY=          -1429.9326 ZZZZ=           -402.3194 XXXY=           -151.7763
 XXXZ=            -83.8934 YYYX=             18.3693 YYYZ=             -6.5930 ZZZX=              1.1349
 ZZZY=              0.8749 XXYY=          -1414.7518 XXZZ=          -1189.9567 YYZZ=           -307.2761
 XXYZ=            -55.0286 YYXZ=            -13.7987 ZZXY=              4.4311
 N-N= 1.662813676810D+03 E-N=-5.302455827413D+03  KE= 8.439286157024D+02

 **********************************************************************

            Electrostatic Properties Using The SCF Density.

 **********************************************************************

       Atomic Center    1 is at   4.701591 -0.148254 -0.001311
       Atomic Center    2 is at   5.912185 -0.058090 -0.220580
       Atomic Center    3 is at   3.835380  1.013707  0.021234
       Atomic Center    4 is at   2.492186  0.927539  0.148557
       Atomic Center    5 is at   1.783018 -0.411306  0.271764
       Atomic Center    6 is at   2.653006 -1.565496 -0.239732
       Atomic Center    7 is at   4.082890 -1.490560  0.278770
       Atomic Center    8 is at   1.678849  2.181305  0.273129
       Atomic Center    9 is at   0.281190  2.093088 -0.335580
       Atomic Center   10 is at  -0.422326  0.817914  0.125381
       Atomic Center   11 is at   0.381306 -0.398883 -0.381354
       Atomic Center   12 is at  -1.859937  0.734059 -0.357789
       Atomic Center   13 is at  -2.560752 -0.581115  0.033365
       Atomic Center   14 is at  -1.813900 -1.738757 -0.630423
       Atomic Center   15 is at  -0.340461 -1.748522 -0.195601
       Atomic Center   16 is at  -2.840059  1.831778  0.074459
       Atomic Center   17 is at  -4.231420  1.199439 -0.169693
       Atomic Center   18 is at  -3.966274 -0.285538 -0.522019
       Atomic Center   19 is at  -2.644933 -0.810699  1.553763
       Atomic Center   20 is at  -5.008341 -1.157770 -0.087425
       Atomic Center   21 is at   4.325591  1.983817 -0.039649
       Atomic Center   22 is at   1.616693 -0.548899  1.353117
       Atomic Center   23 is at   2.664720 -1.544539 -1.338618
       Atomic Center   24 is at   2.217054 -2.528463  0.046048
       Atomic Center   25 is at   4.107196 -1.624928  1.369308
       Atomic Center   26 is at   4.720584 -2.270786 -0.142952
       Atomic Center   27 is at   2.235019  3.028885 -0.141607
       Atomic Center   28 is at   1.584978  2.399127  1.348040
       Atomic Center   29 is at   0.332801  2.103578 -1.435426
       Atomic Center   30 is at  -0.286526  2.979851 -0.038111
       Atomic Center   31 is at  -0.409192  0.809525  1.224273
       Atomic Center   32 is at   0.519677 -0.254092 -1.466559
       Atomic Center   33 is at  -1.833027  0.739664 -1.461803
       Atomic Center   34 is at  -1.870553 -1.623774 -1.723045
       Atomic Center   35 is at  -2.275742 -2.702338 -0.380463
       Atomic Center   36 is at  -0.283670 -2.048787  0.859433
       Atomic Center   37 is at   0.183196 -2.524671 -0.764813
       Atomic Center   38 is at  -2.699538  2.764169 -0.476015
       Atomic Center   39 is at  -2.692250  2.073293  1.133500
       Atomic Center   40 is at  -4.778667  1.695009 -0.976801
       Atomic Center   41 is at  -4.866594  1.260612  0.722370
       Atomic Center   42 is at  -3.942776 -0.406140 -1.608551
       Atomic Center   43 is at  -3.259052 -0.054109  2.057923
       Atomic Center   44 is at  -3.074147 -1.801139  1.748359
       Atomic Center   45 is at  -1.665590 -0.788926  2.038643
       Atomic Center   46 is at  -5.057071 -1.107246  0.875927
 -----------------------------------------------------------------

              Electrostatic Properties (Atomic Units)

 -----------------------------------------------------------------
    Center     Electric         -------- Electric Field --------
               Potential          X             Y             Z
 -----------------------------------------------------------------
    1 Atom    -14.671950      0.001478     -0.002127     -0.001066
    2 Atom    -22.351204      0.104741      0.007667     -0.019577
    3 Atom    -14.747135     -0.009093     -0.000710      0.000944
    4 Atom    -14.710057      0.012266      0.000207     -0.001399
    5 Atom    -14.716771     -0.002727     -0.003311     -0.001827
    6 Atom    -14.730441     -0.000751     -0.001254     -0.000588
    7 Atom    -14.740610      0.001810     -0.000419     -0.002336
    8 Atom    -14.725828     -0.001411      0.002561     -0.001081
    9 Atom    -14.732175     -0.002311     -0.001834     -0.000223
   10 Atom    -14.730265     -0.000850     -0.000173     -0.001850
   11 Atom    -14.725250     -0.001737      0.000810     -0.000081
   12 Atom    -14.735971      0.000027     -0.001640      0.002915
   13 Atom    -14.730555     -0.000841      0.001365     -0.004139
   14 Atom    -14.740119     -0.002172      0.001975      0.000904
   15 Atom    -14.735379     -0.000600     -0.000106     -0.000156
   16 Atom    -14.737240      0.001490     -0.000223     -0.000109
   17 Atom    -14.741127     -0.000682     -0.002218     -0.000880
   18 Atom    -14.692560      0.017056      0.011670     -0.005453
   19 Atom    -14.737550      0.001304     -0.000277     -0.002757
   20 Atom    -22.315971     -0.063724     -0.061847     -0.072919
   21 Atom     -1.106247      0.015761      0.027704     -0.003485
   22 Atom     -1.104854     -0.005042     -0.006897      0.031588
   23 Atom     -1.117674      0.000176     -0.000010     -0.029801
   24 Atom     -1.117274     -0.012624     -0.025651      0.007055
   25 Atom     -1.105587      0.000143     -0.006326      0.030545
   26 Atom     -1.117381      0.020090     -0.019334     -0.012662
   27 Atom     -1.109917      0.015269      0.022711     -0.012139
   28 Atom     -1.103400     -0.003672      0.007043      0.029483
   29 Atom     -1.116714      0.001644      0.001677     -0.028177
   30 Atom     -1.117298     -0.017443      0.024782      0.007178
   31 Atom     -1.118003     -0.002160      0.000170      0.032485
   32 Atom     -1.120189      0.004052      0.003361     -0.029960
   33 Atom     -1.122051      0.001434      0.000857     -0.030029
   34 Atom     -1.123873     -0.003247      0.000734     -0.028895
   35 Atom     -1.125369     -0.014510     -0.025077      0.004395
   36 Atom     -1.120663      0.002714     -0.010499      0.028204
   37 Atom     -1.121208      0.014185     -0.021012     -0.014102
   38 Atom     -1.122251      0.003688      0.026343     -0.016069
   39 Atom     -1.121723      0.003408      0.007316      0.029229
   40 Atom     -1.123339     -0.015912      0.013367     -0.020515
   41 Atom     -1.118872     -0.018288      0.003230      0.022215
   42 Atom     -1.125416      0.000144     -0.004800     -0.032146
   43 Atom     -1.107308     -0.014715      0.019756      0.015418
   44 Atom     -1.110071     -0.010478     -0.025962      0.006326
   45 Atom     -1.109779      0.025571     -0.000009      0.013315
   46 Atom     -1.001197     -0.004640      0.000202      0.043937
 -----------------------------------------------------------------
 -----------------------------------------------------
    Center         ---- Electric Field Gradient ----
                     XX            YY            ZZ
 -----------------------------------------------------
    1 Atom     -493.315434   -493.232263   -493.967615
    2 Atom    -1217.073346  -1214.516569  -1217.618293
    3 Atom     -493.104822   -493.185509   -493.422325
    4 Atom     -493.128399   -493.243066   -493.776424
    5 Atom     -492.717766   -492.764793   -492.732041
    6 Atom     -492.605285   -492.569326   -492.562348
    7 Atom     -492.700883   -492.710313   -492.713272
    8 Atom     -492.565501   -492.610439   -492.574974
    9 Atom     -492.665258   -492.620255   -492.635479
   10 Atom     -492.764691   -492.787024   -492.777792
   11 Atom     -492.815827   -492.783850   -492.785624
   12 Atom     -492.905997   -492.925041   -492.910652
   13 Atom     -492.890268   -492.893781   -492.965053
   14 Atom     -492.702446   -492.660241   -492.678448
   15 Atom     -492.631238   -492.634396   -492.602793
   16 Atom     -492.650139   -492.596934   -492.582523
   17 Atom     -492.712360   -492.699317   -492.673270
   18 Atom     -492.922263   -492.877504   -492.706379
   19 Atom     -492.563819   -492.570321   -492.586737
   20 Atom    -1214.127935  -1213.624987  -1215.494999
   21 Atom       -1.694076     -1.959285     -1.591204
   22 Atom       -1.629827     -1.628228     -2.014769
   23 Atom       -1.621204     -1.616661     -2.038730
   24 Atom       -1.698810     -1.959142     -1.654123
   25 Atom       -1.599462     -1.606461     -2.018001
   26 Atom       -1.751830     -1.830190     -1.671219
   27 Atom       -1.733618     -1.875422     -1.676773
   28 Atom       -1.611261     -1.623693     -2.007372
   29 Atom       -1.619837     -1.618232     -2.033608
   30 Atom       -1.746536     -1.912241     -1.658044
   31 Atom       -1.641510     -1.639688     -2.057920
   32 Atom       -1.640883     -1.643346     -2.026499
   33 Atom       -1.644390     -1.638941     -2.042073
   34 Atom       -1.625607     -1.628531     -2.037585
   35 Atom       -1.693949     -1.948945     -1.642220
   36 Atom       -1.629849     -1.657696     -2.019209
   37 Atom       -1.729075     -1.842754     -1.741381
   38 Atom       -1.635235     -1.948388     -1.740813
   39 Atom       -1.633845     -1.644713     -2.029284
   40 Atom       -1.729145     -1.712159     -1.861243
   41 Atom       -1.760618     -1.623887     -1.908264
   42 Atom       -1.671211     -1.671791     -2.087656
   43 Atom       -1.742700     -1.809040     -1.697046
   44 Atom       -1.668939     -1.950907     -1.614876
   45 Atom       -1.961626     -1.601635     -1.691155
   46 Atom       -1.448671     -1.442276     -2.116568
 -----------------------------------------------------
 -----------------------------------------------------
    Center         ---- Electric Field Gradient ----
                     XY            XZ            YZ
 -----------------------------------------------------
    1 Atom       -0.019707     -0.110388     -0.079272
    2 Atom       -0.218854     -0.053885     -0.273569
    3 Atom       -0.002547     -0.032567     -0.014317
    4 Atom       -0.000395     -0.049354      0.004769
    5 Atom       -0.023586     -0.009380     -0.003367
    6 Atom        0.026611     -0.004725     -0.027208
    7 Atom       -0.007366     -0.038621      0.004527
    8 Atom        0.027651     -0.022897     -0.009521
    9 Atom       -0.008963     -0.020175      0.020041
   10 Atom        0.001006      0.007657     -0.001058
   11 Atom       -0.006397     -0.018060     -0.010846
   12 Atom        0.015276     -0.005143      0.004546
   13 Atom        0.001771      0.011948      0.015057
   14 Atom        0.006470     -0.008778     -0.021267
   15 Atom       -0.020987     -0.006679      0.016093
   16 Atom       -0.005887     -0.001502     -0.016684
   17 Atom       -0.019100      0.001609     -0.025553
   18 Atom       -0.181978      0.123274      0.116315
   19 Atom        0.005780      0.009883      0.004342
   20 Atom       -1.215221      0.698811      0.354314
   21 Atom       -0.172926      0.012278      0.023193
   22 Atom       -0.007705      0.062320      0.052092
   23 Atom        0.002431      0.003715      0.008238
   24 Atom       -0.150121      0.045072      0.099474
   25 Atom       -0.001544     -0.006909      0.052245
   26 Atom        0.180599      0.097382     -0.123015
   27 Atom       -0.166243      0.083135      0.128270
   28 Atom        0.009997      0.036845     -0.080688
   29 Atom       -0.002370      0.019439      0.003040
   30 Atom        0.181753      0.060653     -0.096956
   31 Atom       -0.001498     -0.004284      0.004410
   32 Atom       -0.006559      0.049761      0.052871
   33 Atom       -0.000803      0.009700      0.001678
   34 Atom        0.005212     -0.021623      0.044569
   35 Atom       -0.156410      0.041860      0.085666
   36 Atom        0.003803     -0.022106      0.110659
   37 Atom        0.144556      0.107041     -0.158594
   38 Atom       -0.049069      0.028251      0.191965
   39 Atom       -0.012895     -0.054583     -0.090453
   40 Atom        0.098044     -0.161005      0.146313
   41 Atom        0.012230      0.203203     -0.017054
   42 Atom       -0.004809      0.014655     -0.043105
   43 Atom        0.169000      0.109981     -0.135465
   44 Atom       -0.153265      0.031500      0.069731
   45 Atom       -0.008124     -0.173533     -0.003897
   46 Atom       -0.026107      0.038608     -0.036365
 -----------------------------------------------------
 -----------------------------------------------------
    Center         ---- Electric Field Gradient ----
                   ----       Eigenvalues       ----
 -----------------------------------------------------
    1 Atom     -493.994490   -493.297830   -493.222992
    2 Atom    -1217.651626  -1217.081483  -1214.475099
    3 Atom     -493.426503   -493.184651   -493.101501
    4 Atom     -493.780203   -493.243029   -493.124656
    5 Atom     -492.775635   -492.733118   -492.705847
    6 Atom     -492.620954   -492.584091   -492.531913
    7 Atom     -492.746243   -492.711922   -492.666304
    8 Atom     -492.623638   -492.590854   -492.536422
    9 Atom     -492.675466   -492.644833   -492.600693
   10 Atom     -492.787349   -492.781002   -492.761156
   11 Atom     -492.826838   -492.786459   -492.772004
   12 Atom     -492.935233   -492.909362   -492.897095
   13 Atom     -492.969731   -492.893883   -492.885488
   14 Atom     -492.705321   -492.691416   -492.644397
   15 Atom     -492.654998   -492.623144   -492.590286
   16 Atom     -492.650955   -492.607136   -492.571505
   17 Atom     -492.730008   -492.699748   -492.655190
   18 Atom     -493.148193   -492.716869   -492.641084
   19 Atom     -492.590635   -492.573631   -492.556610
   20 Atom    -1216.099723  -1214.523225  -1212.624974
   21 Atom       -2.046109     -1.608794     -1.589662
   22 Atom       -2.031483     -1.621520     -1.619821
   23 Atom       -2.038923     -1.622260     -1.615413
   24 Atom       -2.057255     -1.630297     -1.624523
   25 Atom       -2.024634     -1.602051     -1.597239
   26 Atom       -2.042166     -1.606997     -1.604077
   27 Atom       -2.048160     -1.623940     -1.613713
   28 Atom       -2.027140     -1.610102     -1.605085
   29 Atom       -2.034543     -1.620821     -1.616314
   30 Atom       -2.061545     -1.630071     -1.625206
   31 Atom       -2.058010     -1.642347     -1.638761
   32 Atom       -2.039973     -1.636204     -1.634552
   33 Atom       -2.042317     -1.644263     -1.638825
   34 Atom       -2.043549     -1.626973     -1.621202
   35 Atom       -2.045764     -1.620703     -1.618647
   36 Atom       -2.051572     -1.630161     -1.625022
   37 Atom       -2.057173     -1.630683     -1.625354
   38 Atom       -2.070195     -1.628254     -1.625987
   39 Atom       -2.056931     -1.626626     -1.624285
   40 Atom       -2.058726     -1.622655     -1.621165
   41 Atom       -2.051668     -1.622869     -1.618232
   42 Atom       -2.092548     -1.675552     -1.662557
   43 Atom       -2.037516     -1.607870     -1.603400
   44 Atom       -2.032197     -1.602171     -1.600354
   45 Atom       -2.046578     -1.606386     -1.601452
   46 Atom       -2.120581     -1.471743     -1.415191
 -----------------------------------------------------
 -----------------------------------------------------
    Center         ---- Electric Field Gradient ----
                       ( tensor representation )
                   3XX-RR        3YY-RR        3ZZ-RR
 -----------------------------------------------------
    1 Atom        0.189670      0.272841     -0.462511
    2 Atom       -0.670610      1.886167     -1.215557
    3 Atom        0.132730      0.052042     -0.184773
    4 Atom        0.254231      0.139564     -0.393795
    5 Atom        0.020434     -0.026593      0.006159
    6 Atom       -0.026298      0.009660      0.016638
    7 Atom        0.007273     -0.002157     -0.005116
    8 Atom        0.018137     -0.026801      0.008664
    9 Atom       -0.024927      0.020075      0.004852
   10 Atom        0.011811     -0.010522     -0.001290
   11 Atom       -0.020727      0.011250      0.009476
   12 Atom        0.007900     -0.011144      0.003245
   13 Atom        0.026099      0.022586     -0.048685
   14 Atom       -0.022068      0.020137      0.001931
   15 Atom       -0.008429     -0.011587      0.020016
   16 Atom       -0.040274      0.012932      0.027342
   17 Atom       -0.017377     -0.004335      0.021712
   18 Atom       -0.086881     -0.042123      0.129003
   19 Atom        0.009807      0.003304     -0.013111
   20 Atom        0.288039      0.790987     -1.079026
   21 Atom        0.054112     -0.211097      0.156984
   22 Atom        0.127781      0.129380     -0.257161
   23 Atom        0.137661      0.142204     -0.279865
   24 Atom        0.071881     -0.188450      0.116569
   25 Atom        0.141846      0.134847     -0.276693
   26 Atom       -0.000750     -0.079110      0.079861
   27 Atom        0.028320     -0.113485      0.085165
   28 Atom        0.136181      0.123749     -0.259930
   29 Atom        0.137388      0.138993     -0.276382
   30 Atom        0.025738     -0.139967      0.114230
   31 Atom        0.138196      0.140018     -0.278214
   32 Atom        0.129360      0.126897     -0.256256
   33 Atom        0.130744      0.136194     -0.266939
   34 Atom        0.138301      0.135377     -0.273677
   35 Atom        0.067756     -0.187241      0.119485
   36 Atom        0.139069      0.111222     -0.250291
   37 Atom        0.041995     -0.071684      0.029690
   38 Atom        0.139577     -0.173576      0.033999
   39 Atom        0.135435      0.124568     -0.260004
   40 Atom        0.038371      0.055356     -0.093727
   41 Atom        0.003638      0.140369     -0.144008
   42 Atom        0.139008      0.138428     -0.277437
   43 Atom        0.006895     -0.059445      0.052550
   44 Atom        0.075968     -0.206000      0.130031
   45 Atom       -0.210154      0.149837      0.060317
   46 Atom        0.220501      0.226896     -0.447396
 -----------------------------------------------------
 -----------------------------------------------------
    Center         ---- Electric Field Gradient ----
                       ( tensor representation )
                   ----       Eigenvalues       ----
 -----------------------------------------------------
    1 Atom       -0.489386      0.207274      0.282112
    2 Atom       -1.248890     -0.678747      1.927636
    3 Atom       -0.188951      0.052901      0.136051
    4 Atom       -0.397574      0.139600      0.257973
    5 Atom       -0.037435      0.005082      0.032353
    6 Atom       -0.041968     -0.005105      0.047073
    7 Atom       -0.038087     -0.003766      0.041852
    8 Atom       -0.040000     -0.007216      0.047216
    9 Atom       -0.035135     -0.004502      0.039637
   10 Atom       -0.010847     -0.004499      0.015346
   11 Atom       -0.031738      0.008642      0.023096
   12 Atom       -0.021336      0.004535      0.016801
   13 Atom       -0.053364      0.022484      0.030880
   14 Atom       -0.024943     -0.011038      0.035981
   15 Atom       -0.032189     -0.000334      0.032523
   16 Atom       -0.041090      0.002729      0.038360
   17 Atom       -0.035026     -0.004766      0.039792
   18 Atom       -0.312811      0.118513      0.194298
   19 Atom       -0.017010     -0.000006      0.017015
   20 Atom       -1.683750     -0.107251      1.791000
   21 Atom       -0.297921      0.139394      0.158526
   22 Atom       -0.273875      0.136088      0.137787
   23 Atom       -0.280058      0.136605      0.143453
   24 Atom       -0.286563      0.140395      0.146168
   25 Atom       -0.283326      0.139257      0.144069
   26 Atom       -0.291086      0.144083      0.147003
   27 Atom       -0.286222      0.137998      0.148224
   28 Atom       -0.279698      0.137340      0.142358
   29 Atom       -0.277317      0.136405      0.140912
   30 Atom       -0.289272      0.142203      0.147068
   31 Atom       -0.278304      0.137359      0.140945
   32 Atom       -0.269730      0.134039      0.135691
   33 Atom       -0.267182      0.130872      0.136310
   34 Atom       -0.279641      0.136935      0.142706
   35 Atom       -0.284059      0.141001      0.143058
   36 Atom       -0.282654      0.138758      0.143897
   37 Atom       -0.286103      0.140387      0.145716
   38 Atom       -0.295383      0.146558      0.148825
   39 Atom       -0.287650      0.142655      0.144995
   40 Atom       -0.291211      0.144860      0.146350
   41 Atom       -0.287412      0.141388      0.146024
   42 Atom       -0.282329      0.134667      0.147662
   43 Atom       -0.287921      0.141725      0.146196
   44 Atom       -0.287290      0.142736      0.144554
   45 Atom       -0.295106      0.145086      0.150020
   46 Atom       -0.451410      0.197429      0.253981
 -----------------------------------------------------
 Unable to Open any file for archive entry.
 1\1\GINC-MIKE062\SP\RwB97XD\6-31G(d)\C18H26O2\ARKANIL\01-May-2026\0\\#
  wb97xd/6-31g(d) prop=efg\\None_sub_reg_combined_truncated\\0,1\C,0,-1
 .760899,1.675839,-1.261345\O,0,-2.50464,1.892297,-2.221418\C,0,-1.7278
 69,0.392697,-0.587965\C,0,-0.84395,0.098696,0.39186\C,0,0.197273,1.102
 498,0.859664\C,0,0.432994,2.204483,-0.179916\C,0,-0.867911,2.76698,-0.
 736936\C,0,-0.947336,-1.212314,1.112644\C,0,0.388565,-1.785521,1.58015
 \C,0,1.206164,-0.714821,2.300304\C,0,1.513753,0.423475,1.303875\C,0,2.
 496643,-1.259174,2.888142\C,0,3.370401,-0.177468,3.55168\C,0,3.777278,
 0.834803,2.480094\C,0,2.533444,1.455332,1.825869\C,0,2.406985,-2.37394
 7,3.937764\C,0,3.788541,-2.335209,4.634291\C,0,4.501838,-1.071941,4.09
 1197\C,0,2.680321,0.544323,4.723949\O,0,5.376121,-0.470283,5.044718\H,
 0,-2.482183,-0.331771,-0.890095\H,0,-0.233044,1.560295,1.765848\H,0,1.
 033162,1.795268,-1.004821\H,0,1.020521,3.020163,0.25426\H,0,-1.434784,
 3.284214,0.049856\H,0,-0.699636,3.499998,-1.529163\H,0,-1.490184,-1.93
 547,0.494513\H,0,-1.589931,-1.047394,1.991032\H,0,0.966994,-2.173519,0
 .727324\H,0,0.192568,-2.635299,2.240907\H,0,0.583174,-0.308984,3.10961
 7\H,0,1.961908,-0.050692,0.413873\H,0,3.096535,-1.652009,2.048253\H,0,
 4.376445,0.323884,1.711841\H,0,4.402875,1.630157,2.904718\H,0,2.042138
 ,2.115964,2.552962\H,0,2.860447,2.096544,0.999708\H,0,2.18392,-3.34910
 3,3.500233\H,0,1.597552,-2.160812,4.645674\H,0,4.383067,-3.230594,4.43
 1026\H,0,3.690974,-2.265442,5.72451\H,0,5.15336,-1.348418,3.257693\H,0
 ,2.4607,-0.131001,5.560281\H,0,3.327409,1.353554,5.08379\H,0,1.730197,
 1.002174,4.437014\H,0,4.843898,-0.184111,5.798255\\Version=ES64L-G16Re
 vC.01\State=1-A\HF=-851.7952038\RMSD=7.990e-09\Dipole=0.4391608,-0.497
 3291,1.4627091\Quadrupole=-9.9665438,11.9307629,-1.9642192,6.0303007,-
 17.4409983,5.6698603\PG=C01 [X(C18H26O2)]\\@
 The archive entry for this job was punched.


 MY GROUP MEETINGS AREN'T VERY STRUCTURED.
     -- PROF. M. S. GORDON, OCT. 5, 1984
 Job cpu time:       0 days  0 hours 16 minutes 49.8 seconds.
 Elapsed time:       0 days  0 hours  0 minutes 16.1 seconds.
 File lengths (MBytes):  RWF=     71 Int=      0 D2E=      0 Chk=      8 Scr=      1
 Normal termination of Gaussian 16 at Fri May  1 12:34:38 2026.
