 Entering Gaussian System, Link 0=g16
 Initial command:
 /cm/shared/apps/spack/cpu/opt/spack/linux-centos8-zen/gcc-8.3.1/gaussian-16.C.01-po5bqktfeugvmjyga3v7eigbecnokxng/g16/l1.exe "/scratch/hklem/job_32994909/Gau-555340.inp" -scrdir="/scratch/hklem/job_32994909/"
 Entering Link 1 = /cm/shared/apps/spack/cpu/opt/spack/linux-centos8-zen/gcc-8.3.1/gaussian-16.C.01-po5bqktfeugvmjyga3v7eigbecnokxng/g16/l1.exe PID=    555342.
  
 Copyright (c) 1988-2019, Gaussian, Inc.  All Rights Reserved.
  
 This is part of the Gaussian(R) 16 program.  It is based on
 the Gaussian(R) 09 system (copyright 2009, Gaussian, Inc.),
 the Gaussian(R) 03 system (copyright 2003, Gaussian, Inc.),
 the Gaussian(R) 98 system (copyright 1998, Gaussian, Inc.),
 the Gaussian(R) 94 system (copyright 1995, Gaussian, Inc.),
 the Gaussian 92(TM) system (copyright 1992, Gaussian, Inc.),
 the Gaussian 90(TM) system (copyright 1990, Gaussian, Inc.),
 the Gaussian 88(TM) system (copyright 1988, Gaussian, Inc.),
 the Gaussian 86(TM) system (copyright 1986, Carnegie Mellon
 University), and the Gaussian 82(TM) system (copyright 1983,
 Carnegie Mellon University). Gaussian is a federally registered
 trademark of Gaussian, Inc.
  
 This software contains proprietary and confidential information,
 including trade secrets, belonging to Gaussian, Inc.
  
 This software is provided under written license and may be
 used, copied, transmitted, or stored only in accord with that
 written license.
  
 The following legend is applicable only to US Government
 contracts under FAR:
  
                    RESTRICTED RIGHTS LEGEND
  
 Use, reproduction and disclosure by the US Government is
 subject to restrictions as set forth in subparagraphs (a)
 and (c) of the Commercial Computer Software - Restricted
 Rights clause in FAR 52.227-19.
  
 Gaussian, Inc.
 340 Quinnipiac St., Bldg. 40, Wallingford CT 06492
  
  
 ---------------------------------------------------------------
 Warning -- This program may not be used in any manner that
 competes with the business of Gaussian, Inc. or will provide
 assistance to any competitor of Gaussian, Inc.  The licensee
 of this program is prohibited from giving any competitor of
 Gaussian, Inc. access to this program.  By using this program,
 the user acknowledges that Gaussian, Inc. is engaged in the
 business of creating and licensing software in the field of
 computational chemistry and represents and warrants to the
 licensee that it is not a competitor of Gaussian, Inc. and that
 it will not use this program in any manner prohibited above.
 ---------------------------------------------------------------
  

 Cite this work as:
 Gaussian 16, Revision C.01,
 M. J. Frisch, G. W. Trucks, H. B. Schlegel, G. E. Scuseria, 
 M. A. Robb, J. R. Cheeseman, G. Scalmani, V. Barone, 
 G. A. Petersson, H. Nakatsuji, X. Li, M. Caricato, A. V. Marenich, 
 J. Bloino, B. G. Janesko, R. Gomperts, B. Mennucci, H. P. Hratchian, 
 J. V. Ortiz, A. F. Izmaylov, J. L. Sonnenberg, D. Williams-Young, 
 F. Ding, F. Lipparini, F. Egidi, J. Goings, B. Peng, A. Petrone, 
 T. Henderson, D. Ranasinghe, V. G. Zakrzewski, J. Gao, N. Rega, 
 G. Zheng, W. Liang, M. Hada, M. Ehara, K. Toyota, R. Fukuda, 
 J. Hasegawa, M. Ishida, T. Nakajima, Y. Honda, O. Kitao, H. Nakai, 
 T. Vreven, K. Throssell, J. A. Montgomery, Jr., J. E. Peralta, 
 F. Ogliaro, M. J. Bearpark, J. J. Heyd, E. N. Brothers, K. N. Kudin, 
 V. N. Staroverov, T. A. Keith, R. Kobayashi, J. Normand, 
 K. Raghavachari, A. P. Rendell, J. C. Burant, S. S. Iyengar, 
 J. Tomasi, M. Cossi, J. M. Millam, M. Klene, C. Adamo, R. Cammi, 
 J. W. Ochterski, R. L. Martin, K. Morokuma, O. Farkas, 
 J. B. Foresman, and D. J. Fox, Gaussian, Inc., Wallingford CT, 2019.
 
 ******************************************
 Gaussian 16:  ES64L-G16RevC.01  3-Jul-2019
                12-Aug-2024 
 ******************************************
 %nprocshared=24
 Will use up to   24 processors via shared memory.
 %mem=48GB
 --------------------------
 # wb97xd 6-31G(d) prop=efg
 --------------------------
 1/38=1,172=1/1;
 2/12=2,17=6,18=5,40=1/2;
 3/5=1,6=6,7=1,11=2,25=1,30=1,74=-58/1,2,3;
 4//1;
 5/5=2,38=5/2;
 6/7=2,8=2,9=2,10=2,14=1,28=1/1,2;
 99/5=1,9=1/99;
 ---------------------------------------------
 19nt_xstal_distance_cutoff4_xtb_ligand_conf_1
 ---------------------------------------------
 Symbolic Z-matrix:
 Charge =  0 Multiplicity = 1
 C                     42.3037   41.6528   31.1698 
 O                     42.1031   40.5722   31.7531 
 C                     42.7558   42.8357   31.8241 
 C                     43.0579   43.9723   31.1494 
 C                     43.1284   44.0247   29.6574 
 C                     43.1107   42.6248   29.045 
 C                     42.0279   41.7861   29.7035 
 C                     43.245    45.2538   31.8726 
 C                     44.37     46.1287   31.3219 
 C                     44.2753   46.2572   29.8037 
 C                     44.3377   44.8537   29.1782 
 C                     45.4117   47.0943   29.2302 
 C                     45.332    47.2176   27.7018 
 C                     45.4764   45.8222   27.1063 
 C                     44.3867   44.8948   27.6447 
 C                     45.5843   48.5402   29.6963 
 C                     46.4581   49.1737   28.5967 
 C                     46.531    48.1513   27.4414 
 C                     44.0571   47.8896   27.1907 
 O                     46.5341   48.8141   26.1973 
 H                     42.7913   42.8156   32.905 
 H                     42.2233   44.5517   29.3217 
 H                     44.0846   42.1442   29.1884 
 H                     42.905    42.679    27.9764 
 H                     41.0641   42.2937   29.5932 
 H                     41.9556   40.8057   29.2335 
 H                     43.388    45.0768   32.9399 
 H                     42.2891   45.7895   31.7539 
 H                     45.3353   45.6872   31.5892 
 H                     44.3134   47.1146   31.7858 
 H                     43.3175   46.7186   29.5572 
 H                     45.2561   44.367    29.535 
 H                     46.35     46.5703   29.4554 
 H                     46.4586   45.4213   27.3755 
 H                     45.4148   45.8633   26.0182 
 H                     43.416    45.2057   27.261 
 H                     44.5813   43.8907   27.2641 
 H                     46.066    48.599    30.6707 
 H                     44.6175   49.0367   29.7763 
 H                     47.4565   49.3947   28.9684 
 H                     46.03     50.1003   28.2157 
 H                     47.4593   47.5615   27.5336 
 H                     43.9667   48.899    27.5793 
 H                     44.0967   47.9486   26.1056 
 H                     43.1701   47.3293   27.462 
 H                     46.291    48.1753   25.5119 
 
                          Input orientation:                          
 ---------------------------------------------------------------------
 Center     Atomic      Atomic             Coordinates (Angstroms)
 Number     Number       Type             X           Y           Z
 ---------------------------------------------------------------------
      1          6           0       42.303700   41.652800   31.169800
      2          8           0       42.103100   40.572200   31.753100
      3          6           0       42.755800   42.835700   31.824100
      4          6           0       43.057900   43.972300   31.149400
      5          6           0       43.128400   44.024700   29.657400
      6          6           0       43.110700   42.624800   29.045000
      7          6           0       42.027900   41.786100   29.703500
      8          6           0       43.245000   45.253800   31.872600
      9          6           0       44.370000   46.128700   31.321900
     10          6           0       44.275300   46.257200   29.803700
     11          6           0       44.337700   44.853700   29.178200
     12          6           0       45.411700   47.094300   29.230200
     13          6           0       45.332000   47.217600   27.701800
     14          6           0       45.476400   45.822200   27.106300
     15          6           0       44.386700   44.894800   27.644700
     16          6           0       45.584300   48.540200   29.696300
     17          6           0       46.458100   49.173700   28.596700
     18          6           0       46.531000   48.151300   27.441400
     19          6           0       44.057100   47.889600   27.190700
     20          8           0       46.534100   48.814100   26.197300
     21          1           0       42.791300   42.815600   32.905000
     22          1           0       42.223300   44.551700   29.321700
     23          1           0       44.084600   42.144200   29.188400
     24          1           0       42.905000   42.679000   27.976400
     25          1           0       41.064100   42.293700   29.593200
     26          1           0       41.955600   40.805700   29.233500
     27          1           0       43.388000   45.076800   32.939900
     28          1           0       42.289100   45.789500   31.753900
     29          1           0       45.335300   45.687200   31.589200
     30          1           0       44.313400   47.114600   31.785800
     31          1           0       43.317500   46.718600   29.557200
     32          1           0       45.256100   44.367000   29.535000
     33          1           0       46.350000   46.570300   29.455400
     34          1           0       46.458600   45.421300   27.375500
     35          1           0       45.414800   45.863300   26.018200
     36          1           0       43.416000   45.205700   27.261000
     37          1           0       44.581300   43.890700   27.264100
     38          1           0       46.066000   48.599000   30.670700
     39          1           0       44.617500   49.036700   29.776300
     40          1           0       47.456500   49.394700   28.968400
     41          1           0       46.030000   50.100300   28.215700
     42          1           0       47.459300   47.561500   27.533600
     43          1           0       43.966700   48.899000   27.579300
     44          1           0       44.096700   47.948600   26.105600
     45          1           0       43.170100   47.329300   27.462000
     46          1           0       46.291000   48.175300   25.511900
 ---------------------------------------------------------------------
                    Distance matrix (angstroms):
                    1          2          3          4          5
     1  C    0.000000
     2  O    1.244257   0.000000
     3  C    1.425397   2.356797   0.000000
     4  C    2.439122   3.582845   1.355855   0.000000
     5  C    2.931449   4.166888   2.499428   1.494584   0.000000
     6  C    2.472005   3.544324   2.809596   2.499409   1.528093
     7  C    1.497955   2.383289   2.475569   2.816203   2.494906
     8  C    3.787766   4.820331   2.467565   1.483330   2.536019
     9  C    4.932181   6.016599   3.701580   2.530103   2.956171
    10  C    5.191718   6.390449   4.254123   2.917831   2.514128
    11  C    4.283618   5.473097   3.684497   2.510056   1.542492
    12  C    6.559850   7.736255   5.649584   4.355524   3.849468
    13  C    7.222508   8.426160   6.544556   5.252566   4.344518
    14  C    6.630381   7.780386   6.211158   5.061416   3.905409
    15  C    5.222622   6.385816   4.936305   3.860005   2.528113
    16  C    7.769802   8.935223   6.713365   5.418478   5.140301
    17  C    8.969048  10.144688   8.018315   6.718050   6.222876
    18  C    8.602414   9.779561   7.855940   6.578429   5.789402
    19  C    7.602981   8.841830   6.978802   5.658175   4.678092
    20  O    9.690524  10.882536   9.037571   7.749212   6.819783
    21  H    2.144942   2.614065   1.081670   2.119236   3.481733
    22  H    3.438831   4.665037   3.080620   2.091112   1.099832
    23  H    2.709063   3.602112   3.031633   2.870816   2.161148
    24  H    3.407705   4.398308   3.853779   3.429859   2.164850
    25  H    2.105476   2.950975   2.851759   3.035572   2.694776
    26  H    2.141964   2.534692   3.387097   3.861747   3.452117
    27  H    4.004090   4.832275   2.582095   2.129501   3.456749
    28  H    4.177759   5.220615   2.991266   2.063659   2.866052
    29  H    5.063880   6.052868   3.852279   2.884590   3.371374
    30  H    5.852317   6.905758   4.553742   3.443158   3.934691
    31  H    5.412079   6.638899   4.531143   3.185068   2.702387
    32  H    4.330833   5.409425   3.719726   2.755750   2.158532
    33  H    6.594962   7.700181   5.698794   4.522959   4.110911
    34  H    6.772112   7.851594   6.339251   5.282678   4.271743
    35  H    7.344810   8.476566   7.067186   5.954836   4.674596
    36  H    5.398058   6.585741   5.184076   4.095017   2.687044
    37  H    5.044814   6.107785   5.023851   4.174082   2.802991
    38  H    7.915409   9.016966   6.745620   5.539330   5.529963
    39  H    7.862410   9.048630   6.790568   5.474112   5.229885
    40  H    9.556910  10.688777   8.559911   7.314839   6.931383
    41  H    9.693930  10.895799   8.747305   7.415683   6.885543
    42  H    8.643778   9.764393   7.928713   6.732658   5.981319
    43  H    8.256190   9.498906   7.499881   6.151740   5.364704
    44  H    8.276356   9.501577   7.787233   6.506150   5.380509
    45  H    6.835282   8.075297   6.276305   4.987881   3.967606
    46  H    9.510699  10.691034   8.991821   7.739480   6.664435
                    6          7          8          9         10
     6  C    0.000000
     7  C    1.519703   0.000000
     8  C    3.863289   4.267467   0.000000
     9  C    4.364336   5.192574   1.527857   0.000000
    10  C    3.889248   5.005156   2.519658   1.526569   0.000000
    11  C    2.547796   3.875730   2.934939   2.494417   1.537841
    12  C    5.030440   6.312773   3.881276   2.528385   1.523497
    13  C    5.275621   6.665214   5.060400   3.900804   2.541056
    14  C    4.424755   5.909966   5.293377   4.369136   2.984599
    15  C    2.956673   4.412098   4.394030   3.878735   2.555352
    16  C    6.444753   7.633210   4.583561   3.151576   2.633838
    17  C    7.368456   8.684947   6.034994   4.588998   3.837634
    18  C    6.694191   8.118545   6.231279   4.880483   3.775746
    19  C    5.661468   6.905399   5.433888   4.501721   3.088707
    20  O    7.624729   9.054947   7.463441   6.177073   4.964477
    21  H    3.877889   3.448514   2.686357   3.996890   4.864661
    22  H    2.139389   2.798660   2.836178   3.331073   2.711413
    23  H    1.095455   2.150251   4.192788   4.528743   4.163139
    24  H    1.089567   2.132944   4.682475   5.023846   4.245028
    25  H    2.144463   1.094867   4.325989   5.350197   5.105433
    26  H    2.163080   1.089638   5.330384   6.206857   5.951889
    27  H    4.610797   4.811742   1.091287   2.165350   3.466467
    28  H    4.245997   4.505505   1.102184   2.152168   2.822590
    29  H    4.560712   5.450994   2.153487   1.094612   2.153256
    30  H    5.395996   6.160552   2.147461   1.091057   2.159932
    31  H    4.130897   5.100395   2.740798   2.137733   1.091345
    32  H    2.806796   4.136510   3.208631   2.661160   2.146398
    33  H    5.121373   6.452183   4.149344   2.756671   2.126905
    34  H    4.670768   6.185901   5.529845   4.520701   3.370710
    35  H    4.995826   6.455702   6.273239   5.412142   3.972861
    36  H    3.152286   4.425640   4.615020   4.272348   2.882598
    37  H    2.633775   4.110945   4.988187   4.638861   3.484756
    38  H    6.860595   7.978555   4.537948   3.066408   3.072836
    39  H    6.627044   7.699515   4.537462   3.302514   2.800620
    40  H    8.045085   9.375546   6.581653   5.072692   4.545511
    41  H    8.068033   9.346458   6.679649   5.308266   4.513328
    42  H    6.750234   8.219721   6.474004   5.093909   4.122185
    43  H    6.499738   7.672322   5.678095   4.673785   3.467318
    44  H    6.160772   7.429753   6.422276   5.531412   4.070464
    45  H    4.964044   6.087365   4.875111   4.216637   2.802575
    46  H    7.307883   8.750166   7.633596   6.452512   5.114851
                   11         12         13         14         15
    11  C    0.000000
    12  C    2.485250   0.000000
    13  C    2.959124   1.535435   0.000000
    14  C    2.554878   2.476565   1.524012   0.000000
    15  C    1.534833   2.898661   2.508436   1.528853   0.000000
    16  C    3.925904   1.528943   2.406441   3.755964   4.351120
    17  C    4.847333   2.412505   2.428019   3.797049   4.848297
    18  C    4.324489   2.360061   1.541819   2.578600   3.904375
    19  C    3.639448   2.574297   1.529110   2.509119   3.046897
    20  O    5.421688   3.662783   2.501475   3.300981   4.697574
    21  H    4.520425   6.219158   7.273655   7.062176   5.877000
    22  H    2.140674   4.079103   4.403988   4.135798   2.758686
    23  H    2.721315   5.125079   5.431885   4.449711   3.168608
    24  H    2.868148   5.229764   5.154088   4.153177   2.686118
    25  H    4.176396   6.486845   6.785069   6.172793   4.647800
    26  H    4.697208   7.175732   7.406662   6.487394   5.015503
    27  H    3.886141   4.682685   5.983298   6.240827   5.391630
    28  H    3.421508   4.221634   5.264810   5.635613   4.699568
    29  H    2.739133   2.747844   4.177800   4.487151   4.133621
    30  H    3.451353   2.781684   4.210369   4.992052   4.699106
    31  H    2.159236   2.152615   2.783832   3.386930   2.850805
    32  H    1.098928   2.748687   3.390030   2.839846   2.146547
    33  H    2.659494   1.098043   2.128482   2.615550   3.152853
    34  H    2.840795   2.708291   2.145319   1.094489   2.154632
    35  H    3.487841   3.439813   2.162289   1.090617   2.154178
    36  H    2.156175   3.380440   2.813024   2.156213   1.089102
    37  H    2.156499   3.849437   3.438516   2.134666   1.091303
    38  H    4.386553   2.183408   3.355799   4.556665   5.069302
    39  H    4.234796   2.168386   2.850120   4.266101   4.663939
    40  H    5.512859   3.088946   3.295078   4.488983   5.605796
    41  H    5.596168   3.232266   3.010192   4.454142   5.488507
    42  H    4.447615   2.699888   2.161473   2.672011   4.069951
    43  H    4.365613   2.840852   2.169368   3.459714   4.026698
    44  H    4.367763   3.496023   2.146668   2.725170   3.432000
    45  H    3.230670   2.864704   2.178025   2.777930   2.727689
    46  H    5.318850   3.970829   2.575370   2.956817   4.351652
                   16         17         18         19         20
    16  C    0.000000
    17  C    1.540769   0.000000
    18  C    2.476299   1.544453   0.000000
    19  C    3.005603   3.064400   2.500304   0.000000
    20  O    3.635951   2.427387   1.409645   2.824371   0.000000
    21  H    7.132156   8.510717   8.503292   7.746028   9.745963
    22  H    5.229223   6.310471   5.920213   4.364122   6.820039
    23  H    6.589073   7.442948   6.717301   6.082860   7.709364
    24  H    6.670110   7.429025   6.586362   5.393979   7.346769
    25  H    7.711135   8.799014   8.296307   6.785584   9.163441
    26  H    8.555942   9.523731   8.837632   7.666223   9.711624
    27  H    5.228749   6.713679   7.040206   6.435281   8.326344
    28  H    4.760085   6.229068   6.493803   5.325320   7.618664
    29  H    3.432882   4.729843   4.970486   5.082437   6.347221
    30  H    2.830818   4.360045   4.986613   4.667040   6.249091
    31  H    2.911350   4.100420   4.105584   2.742001   5.101624
    32  H    4.189192   5.042775   4.508820   4.397960   5.705280
    33  H    2.127166   2.743491   2.566811   3.482357   3.960271
    34  H    3.984727   3.946117   2.731755   3.448747   3.592346
    35  H    4.552246   4.323874   2.916564   2.706288   3.161033
    36  H    4.663808   5.175277   4.290959   2.760303   4.886160
    37  H    5.342233   5.762663   4.688867   4.033779   5.402903
    38  H    1.088553   2.187578   3.293181   4.080359   4.502965
    39  H    1.089777   2.190441   3.145977   2.883611   4.065974
    40  H    2.182920   1.088028   2.175850   4.120857   2.977736
    41  H    2.196528   1.089504   2.156187   3.135308   2.445888
    42  H    3.025021   2.175264   1.103678   3.435141   2.051999
    43  H    2.688318   2.705113   2.674641   1.085390   2.916963
    44  H    3.931421   3.644538   2.784109   1.087424   2.588130
    45  H    3.505244   3.937042   3.460023   1.083655   3.888521
    46  H    4.259317   3.246647   1.944517   2.808968   0.967955
                   21         22         23         24         25
    21  H    0.000000
    22  H    4.022028   0.000000
    23  H    3.992057   3.046024   0.000000
    24  H    4.931803   2.404486   1.773813   0.000000
    25  H    3.771421   2.552650   3.051169   2.480204   0.000000
    26  H    4.268255   3.756589   2.515205   2.447634   1.771525
    27  H    2.338866   3.837138   4.812395   5.533450   4.934223
    28  H    3.228207   2.729849   4.805603   4.931942   4.288341
    29  H    4.055780   4.014407   4.458805   5.292254   5.808873
    30  H    4.695828   4.124168   5.612817   6.014122   6.213415
    31  H    5.168952   2.438891   4.652912   4.357459   4.965768
    32  H    4.454097   3.045897   2.536412   3.287286   4.677053
    33  H    6.217866   4.595898   4.979326   5.403488   6.800664
    34  H    7.128403   4.741483   4.434170   4.528726   6.618210
    35  H    7.974913   4.776932   5.064712   4.502600   6.667178
    36  H    6.160971   2.469156   3.678951   2.675281   4.410253
    37  H    6.014956   3.198563   2.645733   2.187595   4.510633
    38  H    7.011667   5.741671   6.912858   7.231706   8.120149
    39  H    7.199018   5.104320   6.938023   6.825881   7.624187
    40  H    8.974713   7.139037   7.999241   8.173178   9.574829
    41  H    9.249085   6.819176   8.248045   8.055966   9.354179
    42  H    8.553697   6.298563   6.593489   6.691526   8.537579
    43  H    8.170214   4.997441   6.944813   6.322444   7.490719
    44  H    8.618793   5.039033   6.572280   5.717406   7.303281
    45  H    7.081188   3.474187   5.540941   4.686169   5.859566
    46  H    9.779172   6.647649   7.399934   6.909998   8.864012
                   26         27         28         29         30
    26  H    0.000000
    27  H    5.833649   0.000000
    28  H    5.594810   1.766952   0.000000
    29  H    6.387545   2.447234   3.052364   0.000000
    30  H    7.202477   2.518122   2.419648   1.766466   0.000000
    31  H    6.076343   3.760736   2.597369   3.043736   2.472911
    32  H    4.864880   3.948032   3.968641   2.443141   3.674791
    33  H    7.251938   4.811001   4.731137   2.522416   3.142414
    34  H    6.710658   6.364732   6.057284   4.368956   5.188438
    35  H    6.919793   7.255097   6.532511   5.574350   6.003669
    36  H    5.038206   5.680432   4.668713   4.759083   4.992298
    37  H    4.504449   5.919924   5.386829   4.743671   5.559773
    38  H    8.927287   4.972610   4.830278   3.139450   2.553135
    39  H    8.667739   5.215443   4.458324   3.875693   2.797326
    40  H   10.202995   7.139311   6.889013   5.011351   4.797466
    41  H   10.199326   7.384699   6.715370   5.598086   4.960518
    42  H    8.878131   7.209528   6.905207   4.946945   5.308259
    43  H    8.501906   6.609095   5.469060   5.316768   4.582459
    44  H    8.086352   7.446956   6.311293   6.059532   5.745188
    45  H    6.868084   5.926941   4.644088   4.941494   4.477553
    46  H    9.325074   8.555892   7.789083   6.636082   6.663168
                   31         32         33         34         35
    31  H    0.000000
    32  H    3.047734   0.000000
    33  H    3.037830   2.461196   0.000000
    34  H    4.038479   2.687191   2.378651   0.000000
    35  H    4.201753   3.825177   3.631638   1.768374   0.000000
    36  H    2.751564   3.043101   3.909716   3.052377   2.443807
    37  H    3.853896   2.416444   3.887204   2.424748   2.477527
    38  H    3.511415   4.455960   2.381855   4.594590   5.436347
    39  H    2.666757   4.719336   3.031116   4.714298   4.982918
    40  H    4.963821   5.517297   3.072254   4.395571   5.034184
    41  H    4.537970   5.933819   3.755017   4.773120   4.812447
    42  H    4.686144   4.366294   2.430296   2.367879   3.059461
    43  H    3.014580   5.101602   3.823966   4.283164   3.708032
    44  H    3.746144   5.092431   4.265939   3.684897   2.468502
    45  H    2.187360   4.174200   3.829032   3.802917   3.045060
    46  H    5.227631   5.635557   4.258016   3.329506   2.523769
                   36         37         38         39         40
    36  H    0.000000
    37  H    1.757031   0.000000
    38  H    5.492089   5.998112   0.000000
    39  H    4.737816   5.726585   1.757750   0.000000
    40  H    6.065359   6.439366   2.337617   2.973346   0.000000
    41  H    5.630414   6.446969   2.877885   2.358362   1.760492
    42  H    4.687470   4.672289   3.585957   3.909187   2.327935
    43  H    3.747673   5.055705   3.748842   2.295498   3.788670
    44  H    3.053163   4.247766   5.014110   3.863837   4.644899
    45  H    2.147218   3.722179   4.504901   3.219653   4.990826
    46  H    4.488151   4.934681   5.181058   4.661300   3.846130
                   41         42         43         44         45
    41  H    0.000000
    42  H    2.992267   0.000000
    43  H    2.470897   3.740221   0.000000
    44  H    3.580500   3.673705   1.758395   0.000000
    45  H    4.052843   4.296077   1.764168   1.755546   0.000000
    46  H    3.329306   2.414321   3.193784   2.284475   3.776059
                   46
    46  H    0.000000
 Stoichiometry    C18H26O2
 Framework group  C1[X(C18H26O2)]
 Deg. of freedom   132
 Full point group                 C1      NOp   1
 Largest Abelian subgroup         C1      NOp   1
 Largest concise Abelian subgroup C1      NOp   1
                         Standard orientation:                         
 ---------------------------------------------------------------------
 Center     Atomic      Atomic             Coordinates (Angstroms)
 Number     Number       Type             X           Y           Z
 ---------------------------------------------------------------------
      1          6           0        4.662357   -0.158668   -0.142954
      2          8           0        5.851518   -0.140420   -0.508657
      3          6           0        3.810044    0.983741   -0.157750
      4          6           0        2.492606    0.914911    0.155240
      5          6           0        1.782082   -0.384989    0.353219
      6          6           0        2.630030   -1.565730   -0.117845
      7          6           0        4.053073   -1.417201    0.394389
      8          6           0        1.709932    2.149421    0.407581
      9          6           0        0.285729    2.115434   -0.144539
     10          6           0       -0.422467    0.818064    0.237171
     11          6           0        0.387109   -0.371757   -0.304926
     12          6           0       -1.831732    0.747246   -0.337286
     13          6           0       -2.546864   -0.560769    0.030472
     14          6           0       -1.767286   -1.715918   -0.586376
     15          6           0       -0.322707   -1.714833   -0.085792
     16          6           0       -2.847296    1.826833    0.037932
     17          6           0       -4.204518    1.181818   -0.302467
     18          6           0       -3.926119   -0.305929   -0.609774
     19          6           0       -2.727664   -0.777635    1.533288
     20          8           0       -4.981162   -1.111951   -0.136158
     21          1           0        4.272250    1.938122   -0.371133
     22          1           0        1.626038   -0.492152    1.436638
     23          1           0        2.636747   -1.604987   -1.212575
     24          1           0        2.221895   -2.502642    0.260016
     25          1           0        4.034766   -1.335719    1.486067
     26          1           0        4.655969   -2.283841    0.124644
     27          1           0        2.242043    3.026181    0.034676
     28          1           0        1.662404    2.236591    1.505283
     29          1           0        0.318468    2.203689   -1.235096
     30          1           0       -0.266808    2.972370    0.243749
     31          1           0       -0.465310    0.757734    1.326004
     32          1           0        0.514541   -0.226843   -1.386778
     33          1           0       -1.740053    0.759207   -1.431429
     34          1           0       -1.773205   -1.606669   -1.675382
     35          1           0       -2.237499   -2.668550   -0.339724
     36          1           0       -0.300014   -1.966168    0.973670
     37          1           0        0.218432   -2.498667   -0.618442
     38          1           0       -2.691069    2.745694   -0.524416
     39          1           0       -2.774164    2.072425    1.097154
     40          1           0       -4.663338    1.665197   -1.162486
     41          1           0       -4.906502    1.240666    0.528660
     42          1           0       -3.835069   -0.442665   -1.701158
     43          1           0       -3.315872    0.021194    1.973691
     44          1           0       -3.255668   -1.714162    1.696444
     45          1           0       -1.776353   -0.837015    2.048836
     46          1           0       -4.663334   -2.024249   -0.075885
 ---------------------------------------------------------------------
 Rotational constants (GHZ):           0.9270084           0.1769798           0.1568392
 Standard basis: 6-31G(d) (6D, 7F)
 There are   352 symmetry adapted cartesian basis functions of A   symmetry.
 There are   352 symmetry adapted basis functions of A   symmetry.
   352 basis functions,   664 primitive gaussians,   352 cartesian basis functions
    75 alpha electrons       75 beta electrons
       nuclear repulsion energy      1672.4445375440 Hartrees.
 NAtoms=   46 NActive=   46 NUniq=   46 SFac= 1.00D+00 NAtFMM=   60 NAOKFM=F Big=F
 Integral buffers will be    131072 words long.
 Raffenetti 2 integral format.
 Two-electron integral symmetry is turned on.
 Nuclear repulsion after empirical dispersion term =     1672.3952673292 Hartrees.
 One-electron integrals computed using PRISM.
 NBasis=   352 RedAO= T EigKep=  1.23D-03  NBF=   352
 NBsUse=   352 1.00D-06 EigRej= -1.00D+00 NBFU=   352
 ExpMin= 1.61D-01 ExpMax= 5.48D+03 ExpMxC= 8.25D+02 IAcc=3 IRadAn=         5 AccDes= 0.00D+00
 Harris functional with IExCor= 4639 and IRadAn=       5 diagonalized for initial guess.
 HarFok:  IExCor= 4639 AccDes= 0.00D+00 IRadAn=         5 IDoV= 1 UseB2=F ITyADJ=14
 ICtDFT=  3500011 ScaDFX=  1.000000  1.000000  1.000000  1.000000
 FoFCou: FMM=F IPFlag=           0 FMFlag=      100000 FMFlg1=           0
         NFxFlg=           0 DoJE=T BraDBF=F KetDBF=T FulRan=T
         wScrn=  0.000000 ICntrl=       500 IOpCl=  0 I1Cent=   200000004 NGrid=           0
         NMat0=    1 NMatS0=      1 NMatT0=    0 NMatD0=    1 NMtDS0=    0 NMtDT0=    0
 Petite list used in FoFCou.
 Requested convergence on RMS density matrix=1.00D-08 within 128 cycles.
 Requested convergence on MAX density matrix=1.00D-06.
 Requested convergence on             energy=1.00D-06.
 No special actions if energy rises.
 Integral accuracy reduced to 1.0D-05 until final iterations.
 Initial convergence to 1.0D-05 achieved.  Increase integral accuracy.
 SCF Done:  E(RwB97XD) =  -851.790732530     A.U. after   15 cycles
            NFock= 15  Conv=0.34D-08     -V/T= 2.0088

 **********************************************************************

            Population analysis using the SCF Density.

 **********************************************************************

 Orbital symmetries:
       Occupied  (A) (A) (A) (A) (A) (A) (A) (A) (A) (A) (A) (A)
                 (A) (A) (A) (A) (A) (A) (A) (A) (A) (A) (A) (A)
                 (A) (A) (A) (A) (A) (A) (A) (A) (A) (A) (A) (A)
                 (A) (A) (A) (A) (A) (A) (A) (A) (A) (A) (A) (A)
                 (A) (A) (A) (A) (A) (A) (A) (A) (A) (A) (A) (A)
                 (A) (A) (A) (A) (A) (A) (A) (A) (A) (A) (A) (A)
                 (A) (A) (A)
       Virtual   (A) (A) (A) (A) (A) (A) (A) (A) (A) (A) (A) (A)
                 (A) (A) (A) (A) (A) (A) (A) (A) (A) (A) (A) (A)
                 (A) (A) (A) (A) (A) (A) (A) (A) (A) (A) (A) (A)
                 (A) (A) (A) (A) (A) (A) (A) (A) (A) (A) (A) (A)
                 (A) (A) (A) (A) (A) (A) (A) (A) (A) (A) (A) (A)
                 (A) (A) (A) (A) (A) (A) (A) (A) (A) (A) (A) (A)
                 (A) (A) (A) (A) (A) (A) (A) (A) (A) (A) (A) (A)
                 (A) (A) (A) (A) (A) (A) (A) (A) (A) (A) (A) (A)
                 (A) (A) (A) (A) (A) (A) (A) (A) (A) (A) (A) (A)
                 (A) (A) (A) (A) (A) (A) (A) (A) (A) (A) (A) (A)
                 (A) (A) (A) (A) (A) (A) (A) (A) (A) (A) (A) (A)
                 (A) (A) (A) (A) (A) (A) (A) (A) (A) (A) (A) (A)
                 (A) (A) (A) (A) (A) (A) (A) (A) (A) (A) (A) (A)
                 (A) (A) (A) (A) (A) (A) (A) (A) (A) (A) (A) (A)
                 (A) (A) (A) (A) (A) (A) (A) (A) (A) (A) (A) (A)
                 (A) (A) (A) (A) (A) (A) (A) (A) (A) (A) (A) (A)
                 (A) (A) (A) (A) (A) (A) (A) (A) (A) (A) (A) (A)
                 (A) (A) (A) (A) (A) (A) (A) (A) (A) (A) (A) (A)
                 (A) (A) (A) (A) (A) (A) (A) (A) (A) (A) (A) (A)
                 (A) (A) (A) (A) (A) (A) (A) (A) (A) (A) (A) (A)
                 (A) (A) (A) (A) (A) (A) (A) (A) (A) (A) (A) (A)
                 (A) (A) (A) (A) (A) (A) (A) (A) (A) (A) (A) (A)
                 (A) (A) (A) (A) (A) (A) (A) (A) (A) (A) (A) (A)
                 (A)
 The electronic state is 1-A.
 Alpha  occ. eigenvalues --  -19.26730 -19.23598 -10.36659 -10.34040 -10.33023
 Alpha  occ. eigenvalues --  -10.31500 -10.30971 -10.30810 -10.30380 -10.30187
 Alpha  occ. eigenvalues --  -10.30183 -10.30166 -10.29917 -10.29828 -10.29767
 Alpha  occ. eigenvalues --  -10.29272 -10.29248 -10.29200 -10.28716 -10.28677
 Alpha  occ. eigenvalues --   -1.12316  -1.10460  -0.98611  -0.96057  -0.91153
 Alpha  occ. eigenvalues --   -0.90505  -0.87489  -0.84616  -0.82882  -0.81724
 Alpha  occ. eigenvalues --   -0.78083  -0.77660  -0.73750  -0.72209  -0.69704
 Alpha  occ. eigenvalues --   -0.67969  -0.65761  -0.65371  -0.63256  -0.61217
 Alpha  occ. eigenvalues --   -0.60055  -0.58372  -0.57328  -0.55725  -0.55698
 Alpha  occ. eigenvalues --   -0.54372  -0.53617  -0.53114  -0.51860  -0.50861
 Alpha  occ. eigenvalues --   -0.50382  -0.49722  -0.48974  -0.48063  -0.47924
 Alpha  occ. eigenvalues --   -0.47036  -0.46957  -0.46596  -0.45180  -0.44763
 Alpha  occ. eigenvalues --   -0.44144  -0.43529  -0.43038  -0.42717  -0.42064
 Alpha  occ. eigenvalues --   -0.41819  -0.40994  -0.40310  -0.39732  -0.38368
 Alpha  occ. eigenvalues --   -0.36956  -0.36292  -0.34215  -0.32660  -0.30939
 Alpha virt. eigenvalues --    0.02193   0.13141   0.14087   0.14959   0.16588
 Alpha virt. eigenvalues --    0.17133   0.17698   0.18368   0.19616   0.20366
 Alpha virt. eigenvalues --    0.20652   0.21046   0.22458   0.22914   0.23396
 Alpha virt. eigenvalues --    0.23745   0.24296   0.24748   0.25131   0.25187
 Alpha virt. eigenvalues --    0.25482   0.26192   0.26453   0.26880   0.27040
 Alpha virt. eigenvalues --    0.27303   0.28632   0.29254   0.29542   0.30869
 Alpha virt. eigenvalues --    0.31086   0.31287   0.32012   0.32656   0.33387
 Alpha virt. eigenvalues --    0.33791   0.34556   0.35138   0.35659   0.36036
 Alpha virt. eigenvalues --    0.37057   0.37265   0.38997   0.39357   0.40739
 Alpha virt. eigenvalues --    0.41955   0.42238   0.44870   0.45368   0.49806
 Alpha virt. eigenvalues --    0.52419   0.58102   0.58581   0.59278   0.60039
 Alpha virt. eigenvalues --    0.61658   0.61930   0.62199   0.63318   0.65364
 Alpha virt. eigenvalues --    0.65555   0.66261   0.66352   0.68219   0.69455
 Alpha virt. eigenvalues --    0.70380   0.70907   0.72448   0.72794   0.73171
 Alpha virt. eigenvalues --    0.73695   0.74407   0.75326   0.75755   0.76648
 Alpha virt. eigenvalues --    0.77450   0.77918   0.78963   0.79906   0.81349
 Alpha virt. eigenvalues --    0.82467   0.83190   0.84676   0.85228   0.85705
 Alpha virt. eigenvalues --    0.86760   0.87570   0.88870   0.89953   0.90347
 Alpha virt. eigenvalues --    0.91471   0.92848   0.93529   0.94083   0.94630
 Alpha virt. eigenvalues --    0.95368   0.95893   0.96184   0.96626   0.96913
 Alpha virt. eigenvalues --    0.97550   0.97655   0.98056   0.98765   0.99118
 Alpha virt. eigenvalues --    0.99204   1.00423   1.00763   1.01237   1.02804
 Alpha virt. eigenvalues --    1.03104   1.03620   1.04096   1.04480   1.04752
 Alpha virt. eigenvalues --    1.05714   1.05939   1.06547   1.07285   1.08123
 Alpha virt. eigenvalues --    1.08675   1.10415   1.10851   1.12069   1.13459
 Alpha virt. eigenvalues --    1.14210   1.16020   1.16628   1.19653   1.21309
 Alpha virt. eigenvalues --    1.21829   1.23721   1.26405   1.26913   1.28341
 Alpha virt. eigenvalues --    1.29962   1.31218   1.34381   1.36333   1.39320
 Alpha virt. eigenvalues --    1.40896   1.43491   1.44208   1.47979   1.49000
 Alpha virt. eigenvalues --    1.50572   1.53166   1.54483   1.56555   1.58302
 Alpha virt. eigenvalues --    1.61747   1.62155   1.64462   1.66344   1.67431
 Alpha virt. eigenvalues --    1.70685   1.71485   1.73192   1.75041   1.76483
 Alpha virt. eigenvalues --    1.77839   1.79260   1.80739   1.82175   1.83191
 Alpha virt. eigenvalues --    1.85876   1.86670   1.87487   1.87975   1.88803
 Alpha virt. eigenvalues --    1.89945   1.92357   1.93561   1.94596   1.95458
 Alpha virt. eigenvalues --    1.96420   1.96972   1.98125   1.99062   2.00073
 Alpha virt. eigenvalues --    2.00995   2.02288   2.02512   2.03200   2.04207
 Alpha virt. eigenvalues --    2.05830   2.06274   2.06910   2.07849   2.08301
 Alpha virt. eigenvalues --    2.09249   2.10133   2.11119   2.11488   2.12823
 Alpha virt. eigenvalues --    2.13812   2.14322   2.15713   2.16601   2.19738
 Alpha virt. eigenvalues --    2.20210   2.20625   2.22858   2.23032   2.25412
 Alpha virt. eigenvalues --    2.26624   2.27666   2.30230   2.31208   2.33006
 Alpha virt. eigenvalues --    2.35039   2.36883   2.37438   2.39451   2.41070
 Alpha virt. eigenvalues --    2.41224   2.42494   2.43220   2.45934   2.46854
 Alpha virt. eigenvalues --    2.49156   2.49703   2.51186   2.51931   2.53346
 Alpha virt. eigenvalues --    2.54556   2.57041   2.59277   2.62305   2.62944
 Alpha virt. eigenvalues --    2.64170   2.64543   2.65628   2.66220   2.68538
 Alpha virt. eigenvalues --    2.69399   2.71283   2.72682   2.75520   2.77407
 Alpha virt. eigenvalues --    2.79646   2.80399   2.81509   2.83450   2.84527
 Alpha virt. eigenvalues --    2.86985   2.90405   2.94447   2.97423   2.99222
 Alpha virt. eigenvalues --    3.01616   3.02362   3.07650   3.08809   3.10228
 Alpha virt. eigenvalues --    3.21247   3.27548   4.01375   4.09702   4.25607
 Alpha virt. eigenvalues --    4.26985   4.31692   4.34863   4.36811   4.39273
 Alpha virt. eigenvalues --    4.42870   4.43123   4.48647   4.54532   4.56445
 Alpha virt. eigenvalues --    4.65766   4.68188   4.75155   4.78026   4.82005
 Alpha virt. eigenvalues --    4.86616   4.91920
          Condensed to atoms (all electrons):
               1          2          3          4          5          6
     1  C    4.436095   0.539167   0.349633   0.003134  -0.023909  -0.025439
     2  O    0.539167   8.099619  -0.062365   0.005058   0.000434   0.001387
     3  C    0.349633  -0.062365   5.316757   0.525558  -0.043529   0.001120
     4  C    0.003134   0.005058   0.525558   4.853035   0.380014  -0.044676
     5  C   -0.023909   0.000434  -0.043529   0.380014   5.104042   0.344628
     6  C   -0.025439   0.001387   0.001120  -0.044676   0.344628   5.153008
     7  C    0.344096  -0.078096  -0.142434   0.002066  -0.037121   0.295258
     8  C    0.003916  -0.000093  -0.035479   0.361131  -0.070878   0.005717
     9  C   -0.000139   0.000000   0.002047  -0.034733  -0.011540  -0.000289
    10  C   -0.000019   0.000000   0.000519  -0.014845  -0.040559   0.004278
    11  C   -0.000175   0.000002   0.002264  -0.032797   0.366635  -0.048922
    12  C   -0.000000   0.000000   0.000002   0.000207   0.004073  -0.000146
    13  C   -0.000000   0.000000   0.000000   0.000002   0.000046  -0.000003
    14  C    0.000000   0.000000   0.000001  -0.000096   0.003939   0.000206
    15  C   -0.000004  -0.000000  -0.000098   0.004583  -0.045318  -0.004804
    16  C   -0.000000  -0.000000   0.000000  -0.000002  -0.000113   0.000001
    17  C    0.000000  -0.000000  -0.000000   0.000000   0.000002  -0.000000
    18  C    0.000000   0.000000  -0.000000  -0.000000   0.000005   0.000000
    19  C   -0.000000   0.000000   0.000000   0.000000   0.000060   0.000001
    20  O   -0.000000   0.000000   0.000000   0.000000  -0.000000   0.000000
    21  H   -0.029516   0.000560   0.359249  -0.044092   0.004841  -0.000385
    22  H    0.000911   0.000001  -0.002076  -0.043780   0.364295  -0.034781
    23  H   -0.002771   0.000216   0.004153  -0.004712  -0.042400   0.386373
    24  H    0.003696  -0.000078  -0.000330   0.004563  -0.028826   0.378551
    25  H   -0.030069   0.000491   0.003728  -0.003575  -0.003110  -0.040692
    26  H   -0.025938   0.003556   0.006242  -0.000094   0.004328  -0.031178
    27  H    0.000240  -0.000001  -0.002656  -0.039799   0.004468  -0.000150
    28  H   -0.000087   0.000002  -0.006624  -0.042105  -0.000522   0.000144
    29  H   -0.000001  -0.000000  -0.000073  -0.003081   0.000208   0.000013
    30  H    0.000001  -0.000000  -0.000078   0.004269  -0.000011   0.000012
    31  H    0.000003  -0.000000  -0.000169  -0.003594  -0.001956   0.000145
    32  H    0.000047  -0.000000   0.000218  -0.002985  -0.041548  -0.004359
    33  H    0.000000   0.000000  -0.000002  -0.000076   0.000222  -0.000001
    34  H    0.000000   0.000000  -0.000000   0.000003   0.000066  -0.000028
    35  H    0.000000  -0.000000  -0.000000   0.000002  -0.000113   0.000003
    36  H    0.000001  -0.000000  -0.000007   0.000197  -0.003025  -0.001849
    37  H   -0.000012  -0.000000   0.000018  -0.000140  -0.007550   0.003547
    38  H    0.000000  -0.000000   0.000000  -0.000001   0.000001  -0.000000
    39  H    0.000000   0.000000  -0.000000  -0.000001   0.000001   0.000000
    40  H    0.000000   0.000000   0.000000   0.000000  -0.000000   0.000000
    41  H    0.000000  -0.000000   0.000000  -0.000000  -0.000000   0.000000
    42  H    0.000000  -0.000000   0.000000   0.000000  -0.000000   0.000000
    43  H   -0.000000   0.000000   0.000000   0.000000  -0.000003  -0.000000
    44  H    0.000000   0.000000  -0.000000  -0.000000  -0.000003   0.000000
    45  H    0.000000  -0.000000  -0.000000   0.000000   0.000073   0.000003
    46  H   -0.000000  -0.000000   0.000000   0.000000  -0.000000   0.000000
               7          8          9         10         11         12
     1  C    0.344096   0.003916  -0.000139  -0.000019  -0.000175  -0.000000
     2  O   -0.078096  -0.000093   0.000000   0.000000   0.000002   0.000000
     3  C   -0.142434  -0.035479   0.002047   0.000519   0.002264   0.000002
     4  C    0.002066   0.361131  -0.034733  -0.014845  -0.032797   0.000207
     5  C   -0.037121  -0.070878  -0.011540  -0.040559   0.366635   0.004073
     6  C    0.295258   0.005717  -0.000289   0.004278  -0.048922  -0.000146
     7  C    5.353563  -0.000313   0.000046  -0.000104   0.004891   0.000002
     8  C   -0.000313   5.156398   0.335281  -0.043369  -0.015576   0.004044
     9  C    0.000046   0.335281   5.099740   0.371439  -0.044440  -0.043793
    10  C   -0.000104  -0.043369   0.371439   5.017382   0.372967   0.365461
    11  C    0.004891  -0.015576  -0.044440   0.372967   5.044709  -0.038970
    12  C    0.000002   0.004044  -0.043793   0.365461  -0.038970   5.108525
    13  C    0.000000  -0.000137   0.004491  -0.027467  -0.013076   0.351178
    14  C   -0.000003  -0.000011  -0.000037  -0.012147  -0.039087  -0.049625
    15  C    0.000280   0.000319   0.004491  -0.041202   0.368816  -0.018430
    16  C   -0.000000   0.000073  -0.003955  -0.033550   0.004370   0.359628
    17  C    0.000000  -0.000001   0.000110   0.004338  -0.000175  -0.062831
    18  C   -0.000000   0.000002  -0.000117   0.004138   0.000135  -0.064416
    19  C    0.000000  -0.000001   0.000138  -0.006157  -0.002274  -0.057166
    20  O    0.000000  -0.000000   0.000000  -0.000070  -0.000003   0.003764
    21  H    0.006729  -0.008146   0.000204  -0.000001  -0.000092  -0.000000
    22  H   -0.005336   0.000202  -0.000786  -0.005994  -0.042147   0.000067
    23  H   -0.043215  -0.000048  -0.000033   0.000151  -0.002738  -0.000001
    24  H   -0.032471  -0.000121  -0.000007  -0.000071  -0.008018  -0.000003
    25  H    0.366387  -0.000111  -0.000002   0.000001   0.000121   0.000000
    26  H    0.367936   0.000009   0.000000   0.000002  -0.000075  -0.000000
    27  H    0.000013   0.379511  -0.031580   0.004126  -0.000139  -0.000111
    28  H   -0.000094   0.379253  -0.041136  -0.004313  -0.000719  -0.000023
    29  H   -0.000004  -0.036913   0.380828  -0.039537  -0.007231  -0.004449
    30  H   -0.000000  -0.032257   0.379326  -0.032206   0.004934  -0.006984
    31  H   -0.000010   0.000199  -0.047041   0.381222  -0.048506  -0.041393
    32  H   -0.000152  -0.000078  -0.005720  -0.045504   0.377446  -0.004352
    33  H    0.000000   0.000063  -0.005629  -0.044696  -0.006606   0.383057
    34  H   -0.000000   0.000000  -0.000027  -0.000434  -0.004065  -0.006838
    35  H   -0.000000  -0.000000   0.000011  -0.000141   0.004299   0.006871
    36  H   -0.000070  -0.000013   0.000000  -0.003964  -0.044003  -0.000493
    37  H    0.000096  -0.000010  -0.000130   0.004374  -0.030956   0.000098
    38  H    0.000000  -0.000006   0.001493  -0.001535  -0.000086  -0.027134
    39  H   -0.000000  -0.000031  -0.000786  -0.004120   0.000084  -0.039186
    40  H   -0.000000  -0.000000  -0.000005  -0.000072   0.000004   0.001606
    41  H   -0.000000  -0.000000   0.000002  -0.000136   0.000002   0.003538
    42  H   -0.000000  -0.000000   0.000007  -0.000255  -0.000005  -0.002359
    43  H    0.000000   0.000000  -0.000029  -0.000124   0.000048  -0.005328
    44  H    0.000000  -0.000000   0.000001   0.000005   0.000053   0.006065
    45  H   -0.000000   0.000009  -0.000037   0.001337  -0.000374  -0.005199
    46  H    0.000000   0.000000   0.000000  -0.000006   0.000001   0.000430
              13         14         15         16         17         18
     1  C   -0.000000   0.000000  -0.000004  -0.000000   0.000000   0.000000
     2  O    0.000000   0.000000  -0.000000  -0.000000  -0.000000   0.000000
     3  C    0.000000   0.000001  -0.000098   0.000000  -0.000000  -0.000000
     4  C    0.000002  -0.000096   0.004583  -0.000002   0.000000  -0.000000
     5  C    0.000046   0.003939  -0.045318  -0.000113   0.000002   0.000005
     6  C   -0.000003   0.000206  -0.004804   0.000001  -0.000000   0.000000
     7  C    0.000000  -0.000003   0.000280  -0.000000   0.000000  -0.000000
     8  C   -0.000137  -0.000011   0.000319   0.000073  -0.000001   0.000002
     9  C    0.004491  -0.000037   0.004491  -0.003955   0.000110  -0.000117
    10  C   -0.027467  -0.012147  -0.041202  -0.033550   0.004338   0.004138
    11  C   -0.013076  -0.039087   0.368816   0.004370  -0.000175   0.000135
    12  C    0.351178  -0.049625  -0.018430   0.359628  -0.062831  -0.064416
    13  C    5.120303   0.374556  -0.038028  -0.063293  -0.059097   0.372564
    14  C    0.374556   5.122062   0.354932   0.006198   0.007050  -0.046383
    15  C   -0.038028   0.354932   5.095502   0.000220  -0.000255   0.004534
    16  C   -0.063293   0.006198   0.000220   5.111571   0.340872  -0.061178
    17  C   -0.059097   0.007050  -0.000255   0.340872   5.179334   0.354619
    18  C    0.372564  -0.046383   0.004534  -0.061178   0.354619   4.803336
    19  C    0.345050  -0.071057  -0.004468  -0.002538  -0.011459  -0.057923
    20  O   -0.047692  -0.000464   0.000014   0.002366  -0.048342   0.252956
    21  H   -0.000000  -0.000000   0.000002   0.000000  -0.000000  -0.000000
    22  H   -0.000033   0.000052  -0.006853  -0.000001   0.000000  -0.000000
    23  H   -0.000001  -0.000053  -0.002022   0.000000   0.000000  -0.000000
    24  H   -0.000003   0.000065   0.003350  -0.000000   0.000000   0.000000
    25  H   -0.000000  -0.000000  -0.000034   0.000000   0.000000  -0.000000
    26  H   -0.000000  -0.000000  -0.000001   0.000000  -0.000000  -0.000000
    27  H    0.000001  -0.000000   0.000009  -0.000001  -0.000000  -0.000000
    28  H    0.000004   0.000001  -0.000012  -0.000010  -0.000000  -0.000000
    29  H    0.000028  -0.000009   0.000068  -0.000604  -0.000022  -0.000004
    30  H   -0.000001  -0.000004  -0.000136   0.003943   0.000004  -0.000007
    31  H   -0.009182   0.000339  -0.003087  -0.003543  -0.000011   0.000060
    32  H   -0.001233  -0.000823  -0.044142  -0.000025   0.000003  -0.000065
    33  H   -0.053280  -0.006771  -0.001086  -0.044722  -0.002044  -0.001976
    34  H   -0.037670   0.378411  -0.037040   0.000049   0.000080  -0.005891
    35  H   -0.038482   0.371143  -0.033942  -0.000247  -0.000008  -0.003765
    36  H   -0.007684  -0.035808   0.381801  -0.000017   0.000002  -0.000044
    37  H    0.004824  -0.034402   0.380883   0.000009   0.000003  -0.000084
    38  H    0.005655  -0.000149  -0.000005   0.379167  -0.029447   0.002645
    39  H   -0.005035  -0.000001  -0.000021   0.385755  -0.033568   0.001926
    40  H    0.003885  -0.000159   0.000004  -0.032136   0.378873  -0.027654
    41  H   -0.002845  -0.000131   0.000004  -0.026021   0.371145  -0.031499
    42  H   -0.066984  -0.010370   0.000122   0.004055  -0.053678   0.390659
    43  H   -0.030439   0.005205   0.000031   0.002523   0.003708  -0.005247
    44  H   -0.031155  -0.005665  -0.000284  -0.000244  -0.000010  -0.008566
    45  H   -0.033443  -0.006013   0.001869  -0.000080  -0.000340   0.005426
    46  H   -0.005420   0.002177  -0.000098  -0.000357   0.007321  -0.031375
              19         20         21         22         23         24
     1  C   -0.000000  -0.000000  -0.029516   0.000911  -0.002771   0.003696
     2  O    0.000000   0.000000   0.000560   0.000001   0.000216  -0.000078
     3  C    0.000000   0.000000   0.359249  -0.002076   0.004153  -0.000330
     4  C    0.000000   0.000000  -0.044092  -0.043780  -0.004712   0.004563
     5  C    0.000060  -0.000000   0.004841   0.364295  -0.042400  -0.028826
     6  C    0.000001   0.000000  -0.000385  -0.034781   0.386373   0.378551
     7  C    0.000000   0.000000   0.006729  -0.005336  -0.043215  -0.032471
     8  C   -0.000001  -0.000000  -0.008146   0.000202  -0.000048  -0.000121
     9  C    0.000138   0.000000   0.000204  -0.000786  -0.000033  -0.000007
    10  C   -0.006157  -0.000070  -0.000001  -0.005994   0.000151  -0.000071
    11  C   -0.002274  -0.000003  -0.000092  -0.042147  -0.002738  -0.008018
    12  C   -0.057166   0.003764  -0.000000   0.000067  -0.000001  -0.000003
    13  C    0.345050  -0.047692  -0.000000  -0.000033  -0.000001  -0.000003
    14  C   -0.071057  -0.000464  -0.000000   0.000052  -0.000053   0.000065
    15  C   -0.004468   0.000014   0.000002  -0.006853  -0.002022   0.003350
    16  C   -0.002538   0.002366   0.000000  -0.000001   0.000000  -0.000000
    17  C   -0.011459  -0.048342  -0.000000   0.000000   0.000000   0.000000
    18  C   -0.057923   0.252956  -0.000000  -0.000000  -0.000000   0.000000
    19  C    5.209746   0.002904   0.000000  -0.000066  -0.000000  -0.000001
    20  O    0.002904   8.275743   0.000000  -0.000000  -0.000000   0.000000
    21  H    0.000000   0.000000   0.532918  -0.000196  -0.000090   0.000013
    22  H   -0.000066  -0.000000  -0.000196   0.592160   0.005391  -0.003724
    23  H   -0.000000  -0.000000  -0.000090   0.005391   0.552446  -0.029344
    24  H   -0.000001   0.000000   0.000013  -0.003724  -0.029344   0.549077
    25  H   -0.000000  -0.000000  -0.000177   0.005275   0.005233  -0.004286
    26  H    0.000000  -0.000000  -0.000109  -0.000182  -0.002354  -0.003480
    27  H    0.000000   0.000000   0.005431  -0.000094   0.000002   0.000002
    28  H   -0.000004   0.000000   0.000221   0.002283   0.000001   0.000010
    29  H   -0.000002   0.000000  -0.000003   0.000103  -0.000005   0.000001
    30  H   -0.000005  -0.000000  -0.000009  -0.000020   0.000000   0.000000
    31  H    0.002596  -0.000001  -0.000001   0.005704   0.000006  -0.000000
    32  H    0.000041   0.000000  -0.000023   0.005952   0.004865   0.000087
    33  H    0.006513   0.000046  -0.000000   0.000002  -0.000002  -0.000000
    34  H    0.006212  -0.000085  -0.000000   0.000003   0.000003   0.000009
    35  H   -0.006349   0.001251   0.000000  -0.000002   0.000001   0.000004
    36  H    0.002445  -0.000003  -0.000000   0.005347   0.000183   0.001178
    37  H    0.000072   0.000001   0.000000   0.000051   0.001138   0.000260
    38  H    0.000107  -0.000039  -0.000000   0.000000   0.000000  -0.000000
    39  H    0.001766  -0.000006   0.000000  -0.000001  -0.000000  -0.000000
    40  H    0.000166   0.001897   0.000000  -0.000000  -0.000000  -0.000000
    41  H    0.001669   0.003575   0.000000  -0.000000   0.000000   0.000000
    42  H    0.007897  -0.043121   0.000000  -0.000000  -0.000000   0.000000
    43  H    0.381375  -0.000244   0.000000   0.000001   0.000000   0.000000
    44  H    0.373217   0.007864   0.000000   0.000001   0.000000   0.000000
    45  H    0.375519   0.000474  -0.000000   0.000042  -0.000000  -0.000002
    46  H   -0.001606   0.242709   0.000000  -0.000000   0.000000   0.000000
              25         26         27         28         29         30
     1  C   -0.030069  -0.025938   0.000240  -0.000087  -0.000001   0.000001
     2  O    0.000491   0.003556  -0.000001   0.000002  -0.000000  -0.000000
     3  C    0.003728   0.006242  -0.002656  -0.006624  -0.000073  -0.000078
     4  C   -0.003575  -0.000094  -0.039799  -0.042105  -0.003081   0.004269
     5  C   -0.003110   0.004328   0.004468  -0.000522   0.000208  -0.000011
     6  C   -0.040692  -0.031178  -0.000150   0.000144   0.000013   0.000012
     7  C    0.366387   0.367936   0.000013  -0.000094  -0.000004  -0.000000
     8  C   -0.000111   0.000009   0.379511   0.379253  -0.036913  -0.032257
     9  C   -0.000002   0.000000  -0.031580  -0.041136   0.380828   0.379326
    10  C    0.000001   0.000002   0.004126  -0.004313  -0.039537  -0.032206
    11  C    0.000121  -0.000075  -0.000139  -0.000719  -0.007231   0.004934
    12  C    0.000000  -0.000000  -0.000111  -0.000023  -0.004449  -0.006984
    13  C   -0.000000  -0.000000   0.000001   0.000004   0.000028  -0.000001
    14  C   -0.000000  -0.000000  -0.000000   0.000001  -0.000009  -0.000004
    15  C   -0.000034  -0.000001   0.000009  -0.000012   0.000068  -0.000136
    16  C    0.000000   0.000000  -0.000001  -0.000010  -0.000604   0.003943
    17  C    0.000000  -0.000000  -0.000000  -0.000000  -0.000022   0.000004
    18  C   -0.000000  -0.000000  -0.000000  -0.000000  -0.000004  -0.000007
    19  C   -0.000000   0.000000   0.000000  -0.000004  -0.000002  -0.000005
    20  O   -0.000000  -0.000000   0.000000   0.000000   0.000000  -0.000000
    21  H   -0.000177  -0.000109   0.005431   0.000221  -0.000003  -0.000009
    22  H    0.005275  -0.000182  -0.000094   0.002283   0.000103  -0.000020
    23  H    0.005233  -0.002354   0.000002   0.000001  -0.000005   0.000000
    24  H   -0.004286  -0.003480   0.000002   0.000010   0.000001   0.000000
    25  H    0.544474  -0.021908   0.000001   0.000014  -0.000000  -0.000000
    26  H   -0.021908   0.511892   0.000000  -0.000001  -0.000000   0.000000
    27  H    0.000001   0.000000   0.530076  -0.024643  -0.003439  -0.001696
    28  H    0.000014  -0.000001  -0.024643   0.555151   0.005079  -0.005265
    29  H   -0.000000  -0.000000  -0.003439   0.005079   0.564391  -0.029888
    30  H   -0.000000   0.000000  -0.001696  -0.005265  -0.029888   0.550778
    31  H   -0.000001  -0.000000   0.000001   0.004313   0.005579  -0.003210
    32  H    0.000011  -0.000002  -0.000044   0.000130   0.005398   0.000046
    33  H   -0.000000   0.000000   0.000003   0.000003   0.004558  -0.000042
    34  H    0.000000   0.000000  -0.000000  -0.000000  -0.000010   0.000001
    35  H    0.000000   0.000000   0.000000  -0.000000   0.000000  -0.000000
    36  H    0.000005   0.000001  -0.000000  -0.000002  -0.000001   0.000004
    37  H    0.000008   0.000001  -0.000000   0.000000  -0.000002   0.000002
    38  H    0.000000  -0.000000   0.000001   0.000003   0.000324   0.000312
    39  H   -0.000000   0.000000   0.000001  -0.000000   0.000082   0.000740
    40  H    0.000000   0.000000   0.000000   0.000000  -0.000000   0.000003
    41  H   -0.000000   0.000000   0.000000   0.000000  -0.000000   0.000001
    42  H   -0.000000   0.000000   0.000000  -0.000000  -0.000002  -0.000000
    43  H    0.000000  -0.000000  -0.000000   0.000000   0.000000  -0.000001
    44  H    0.000000  -0.000000   0.000000   0.000000   0.000000  -0.000000
    45  H    0.000000   0.000000  -0.000000  -0.000004  -0.000001   0.000002
    46  H   -0.000000   0.000000   0.000000   0.000000   0.000000  -0.000000
              31         32         33         34         35         36
     1  C    0.000003   0.000047   0.000000   0.000000   0.000000   0.000001
     2  O   -0.000000  -0.000000   0.000000   0.000000  -0.000000  -0.000000
     3  C   -0.000169   0.000218  -0.000002  -0.000000  -0.000000  -0.000007
     4  C   -0.003594  -0.002985  -0.000076   0.000003   0.000002   0.000197
     5  C   -0.001956  -0.041548   0.000222   0.000066  -0.000113  -0.003025
     6  C    0.000145  -0.004359  -0.000001  -0.000028   0.000003  -0.001849
     7  C   -0.000010  -0.000152   0.000000  -0.000000  -0.000000  -0.000070
     8  C    0.000199  -0.000078   0.000063   0.000000  -0.000000  -0.000013
     9  C   -0.047041  -0.005720  -0.005629  -0.000027   0.000011   0.000000
    10  C    0.381222  -0.045504  -0.044696  -0.000434  -0.000141  -0.003964
    11  C   -0.048506   0.377446  -0.006606  -0.004065   0.004299  -0.044003
    12  C   -0.041393  -0.004352   0.383057  -0.006838   0.006871  -0.000493
    13  C   -0.009182  -0.001233  -0.053280  -0.037670  -0.038482  -0.007684
    14  C    0.000339  -0.000823  -0.006771   0.378411   0.371143  -0.035808
    15  C   -0.003087  -0.044142  -0.001086  -0.037040  -0.033942   0.381801
    16  C   -0.003543  -0.000025  -0.044722   0.000049  -0.000247  -0.000017
    17  C   -0.000011   0.000003  -0.002044   0.000080  -0.000008   0.000002
    18  C    0.000060  -0.000065  -0.001976  -0.005891  -0.003765  -0.000044
    19  C    0.002596   0.000041   0.006513   0.006212  -0.006349   0.002445
    20  O   -0.000001   0.000000   0.000046  -0.000085   0.001251  -0.000003
    21  H   -0.000001  -0.000023  -0.000000  -0.000000   0.000000  -0.000000
    22  H    0.005704   0.005952   0.000002   0.000003  -0.000002   0.005347
    23  H    0.000006   0.004865  -0.000002   0.000003   0.000001   0.000183
    24  H   -0.000000   0.000087  -0.000000   0.000009   0.000004   0.001178
    25  H   -0.000001   0.000011  -0.000000   0.000000   0.000000   0.000005
    26  H   -0.000000  -0.000002   0.000000   0.000000   0.000000   0.000001
    27  H    0.000001  -0.000044   0.000003  -0.000000   0.000000  -0.000000
    28  H    0.004313   0.000130   0.000003  -0.000000  -0.000000  -0.000002
    29  H    0.005579   0.005398   0.004558  -0.000010   0.000000  -0.000001
    30  H   -0.003210   0.000046  -0.000042   0.000001  -0.000000   0.000004
    31  H    0.603794   0.005805   0.005930   0.000039  -0.000011   0.001829
    32  H    0.005805   0.598296   0.005053   0.003269  -0.000061   0.005447
    33  H    0.005930   0.005053   0.617100   0.005372   0.000040   0.000081
    34  H    0.000039   0.003269   0.005372   0.571567  -0.031029   0.004980
    35  H   -0.000011  -0.000061   0.000040  -0.031029   0.590151  -0.003986
    36  H    0.001829   0.005447   0.000081   0.004980  -0.003986   0.573215
    37  H   -0.000058  -0.004810  -0.000090  -0.004440  -0.002293  -0.031442
    38  H   -0.000124  -0.000002  -0.006592  -0.000003   0.000003   0.000000
    39  H    0.003801   0.000004   0.005332  -0.000006   0.000005  -0.000004
    40  H    0.000001  -0.000000   0.000571  -0.000017   0.000001  -0.000000
    41  H   -0.000010  -0.000000  -0.000047   0.000000  -0.000001  -0.000000
    42  H   -0.000013  -0.000011   0.004695   0.006489  -0.000023  -0.000004
    43  H    0.000187   0.000002  -0.000049  -0.000146  -0.000031  -0.000039
    44  H   -0.000033   0.000002  -0.000114   0.000031   0.004923   0.000298
    45  H    0.002899  -0.000020  -0.000017  -0.000046  -0.000227   0.002209
    46  H   -0.000000   0.000000  -0.000004  -0.000030   0.003169  -0.000001
              37         38         39         40         41         42
     1  C   -0.000012   0.000000   0.000000   0.000000   0.000000   0.000000
     2  O   -0.000000  -0.000000   0.000000   0.000000  -0.000000  -0.000000
     3  C    0.000018   0.000000  -0.000000   0.000000   0.000000   0.000000
     4  C   -0.000140  -0.000001  -0.000001   0.000000  -0.000000   0.000000
     5  C   -0.007550   0.000001   0.000001  -0.000000  -0.000000  -0.000000
     6  C    0.003547  -0.000000   0.000000   0.000000   0.000000   0.000000
     7  C    0.000096   0.000000  -0.000000  -0.000000  -0.000000  -0.000000
     8  C   -0.000010  -0.000006  -0.000031  -0.000000  -0.000000  -0.000000
     9  C   -0.000130   0.001493  -0.000786  -0.000005   0.000002   0.000007
    10  C    0.004374  -0.001535  -0.004120  -0.000072  -0.000136  -0.000255
    11  C   -0.030956  -0.000086   0.000084   0.000004   0.000002  -0.000005
    12  C    0.000098  -0.027134  -0.039186   0.001606   0.003538  -0.002359
    13  C    0.004824   0.005655  -0.005035   0.003885  -0.002845  -0.066984
    14  C   -0.034402  -0.000149  -0.000001  -0.000159  -0.000131  -0.010370
    15  C    0.380883  -0.000005  -0.000021   0.000004   0.000004   0.000122
    16  C    0.000009   0.379167   0.385755  -0.032136  -0.026021   0.004055
    17  C    0.000003  -0.029447  -0.033568   0.378873   0.371145  -0.053678
    18  C   -0.000084   0.002645   0.001926  -0.027654  -0.031499   0.390659
    19  C    0.000072   0.000107   0.001766   0.000166   0.001669   0.007897
    20  O    0.000001  -0.000039  -0.000006   0.001897   0.003575  -0.043121
    21  H    0.000000  -0.000000   0.000000   0.000000   0.000000   0.000000
    22  H    0.000051   0.000000  -0.000001  -0.000000  -0.000000  -0.000000
    23  H    0.001138   0.000000  -0.000000  -0.000000   0.000000  -0.000000
    24  H    0.000260  -0.000000  -0.000000  -0.000000   0.000000   0.000000
    25  H    0.000008   0.000000  -0.000000   0.000000  -0.000000  -0.000000
    26  H    0.000001  -0.000000   0.000000   0.000000   0.000000   0.000000
    27  H   -0.000000   0.000001   0.000001   0.000000   0.000000   0.000000
    28  H    0.000000   0.000003  -0.000000   0.000000   0.000000  -0.000000
    29  H   -0.000002   0.000324   0.000082  -0.000000  -0.000000  -0.000002
    30  H    0.000002   0.000312   0.000740   0.000003   0.000001  -0.000000
    31  H   -0.000058  -0.000124   0.003801   0.000001  -0.000010  -0.000013
    32  H   -0.004810  -0.000002   0.000004  -0.000000  -0.000000  -0.000011
    33  H   -0.000090  -0.006592   0.005332   0.000571  -0.000047   0.004695
    34  H   -0.004440  -0.000003  -0.000006  -0.000017   0.000000   0.006489
    35  H   -0.002293   0.000003   0.000005   0.000001  -0.000001  -0.000023
    36  H   -0.031442   0.000000  -0.000004  -0.000000  -0.000000  -0.000004
    37  H    0.553580  -0.000000  -0.000000  -0.000000  -0.000000  -0.000005
    38  H   -0.000000   0.550384  -0.032586  -0.007126   0.002441  -0.000151
    39  H   -0.000000  -0.032586   0.562721   0.003709  -0.008918  -0.000170
    40  H   -0.000000  -0.007126   0.003709   0.540487  -0.026159  -0.006703
    41  H   -0.000000   0.002441  -0.008918  -0.026159   0.526708   0.005053
    42  H   -0.000005  -0.000151  -0.000170  -0.006703   0.005053   0.637911
    43  H   -0.000000   0.000010   0.001155  -0.000030   0.000450   0.000006
    44  H   -0.000031  -0.000001   0.000005  -0.000004   0.000091   0.000216
    45  H    0.000022  -0.000015   0.000076   0.000001   0.000043  -0.000064
    46  H    0.000003   0.000005   0.000004  -0.000220  -0.000074  -0.000952
              43         44         45         46
     1  C   -0.000000   0.000000   0.000000  -0.000000
     2  O    0.000000   0.000000  -0.000000  -0.000000
     3  C    0.000000  -0.000000  -0.000000   0.000000
     4  C    0.000000  -0.000000   0.000000   0.000000
     5  C   -0.000003  -0.000003   0.000073  -0.000000
     6  C   -0.000000   0.000000   0.000003   0.000000
     7  C    0.000000   0.000000  -0.000000   0.000000
     8  C    0.000000  -0.000000   0.000009   0.000000
     9  C   -0.000029   0.000001  -0.000037   0.000000
    10  C   -0.000124   0.000005   0.001337  -0.000006
    11  C    0.000048   0.000053  -0.000374   0.000001
    12  C   -0.005328   0.006065  -0.005199   0.000430
    13  C   -0.030439  -0.031155  -0.033443  -0.005420
    14  C    0.005205  -0.005665  -0.006013   0.002177
    15  C    0.000031  -0.000284   0.001869  -0.000098
    16  C    0.002523  -0.000244  -0.000080  -0.000357
    17  C    0.003708  -0.000010  -0.000340   0.007321
    18  C   -0.005247  -0.008566   0.005426  -0.031375
    19  C    0.381375   0.373217   0.375519  -0.001606
    20  O   -0.000244   0.007864   0.000474   0.242709
    21  H    0.000000   0.000000  -0.000000   0.000000
    22  H    0.000001   0.000001   0.000042  -0.000000
    23  H    0.000000   0.000000  -0.000000   0.000000
    24  H    0.000000   0.000000  -0.000002   0.000000
    25  H    0.000000   0.000000   0.000000  -0.000000
    26  H   -0.000000  -0.000000   0.000000   0.000000
    27  H   -0.000000   0.000000  -0.000000   0.000000
    28  H    0.000000   0.000000  -0.000004   0.000000
    29  H    0.000000   0.000000  -0.000001   0.000000
    30  H   -0.000001  -0.000000   0.000002  -0.000000
    31  H    0.000187  -0.000033   0.002899  -0.000000
    32  H    0.000002   0.000002  -0.000020   0.000000
    33  H   -0.000049  -0.000114  -0.000017  -0.000004
    34  H   -0.000146   0.000031  -0.000046  -0.000030
    35  H   -0.000031   0.004923  -0.000227   0.003169
    36  H   -0.000039   0.000298   0.002209  -0.000001
    37  H   -0.000000  -0.000031   0.000022   0.000003
    38  H    0.000010  -0.000001  -0.000015   0.000005
    39  H    0.001155   0.000005   0.000076   0.000004
    40  H   -0.000030  -0.000004   0.000001  -0.000220
    41  H    0.000450   0.000091   0.000043  -0.000074
    42  H    0.000006   0.000216  -0.000064  -0.000952
    43  H    0.523782  -0.025092  -0.027322   0.000093
    44  H   -0.025092   0.550754  -0.028902   0.003087
    45  H   -0.027322  -0.028902   0.551246  -0.000171
    46  H    0.000093   0.003087  -0.000171   0.375174
 Mulliken charges:
               1
     1  C    0.457140
     2  O   -0.509859
     3  C   -0.275588
     4  C    0.171361
     5  C   -0.180348
     6  C   -0.336689
     7  C   -0.401939
     8  C   -0.382534
     9  C   -0.307663
    10  C   -0.129143
    11  C   -0.120525
    12  C   -0.119388
    13  C   -0.010906
    14  C   -0.307068
    15  C   -0.320465
    16  C   -0.328165
    17  C   -0.346175
    18  C    0.153188
    19  C   -0.496417
    20  O   -0.655496
    21  H    0.172671
    22  H    0.158231
    23  H    0.169626
    24  H    0.169898
    25  H    0.178217
    26  H    0.191356
    27  H    0.180467
    28  H    0.178951
    29  H    0.158621
    30  H    0.167444
    31  H    0.137504
    32  H    0.143839
    33  H    0.135207
    34  H    0.151221
    35  H    0.138835
    36  H    0.153237
    37  H    0.167466
    38  H    0.162452
    39  H    0.157276
    40  H    0.169079
    41  H    0.181119
    42  H    0.127761
    43  H    0.175548
    44  H    0.153487
    45  H    0.161026
    46  H    0.406140
 Sum of Mulliken charges =  -0.00000
 Mulliken charges with hydrogens summed into heavy atoms:
               1
     1  C    0.457140
     2  O   -0.509859
     3  C   -0.102918
     4  C    0.171361
     5  C   -0.022117
     6  C    0.002834
     7  C   -0.032366
     8  C   -0.023116
     9  C    0.018402
    10  C    0.008361
    11  C    0.023314
    12  C    0.015819
    13  C   -0.010906
    14  C   -0.017012
    15  C    0.000238
    16  C   -0.008436
    17  C    0.004022
    18  C    0.280949
    19  C   -0.006355
    20  O   -0.249356
 Electronic spatial extent (au):  <R**2>=           6820.8789
 Charge=             -0.0000 electrons
 Dipole moment (field-independent basis, Debye):
    X=             -3.3238    Y=             -0.2510    Z=              1.0257  Tot=              3.4875
 Quadrupole moment (field-independent basis, Debye-Ang):
   XX=           -172.4142   YY=           -112.1866   ZZ=           -119.2268
   XY=              1.2812   XZ=              6.6759   YZ=             -0.2323
 Traceless Quadrupole moment (field-independent basis, Debye-Ang):
   XX=            -37.8050   YY=             22.4226   ZZ=             15.3824
   XY=              1.2812   XZ=              6.6759   YZ=             -0.2323
 Octapole moment (field-independent basis, Debye-Ang**2):
  XXX=           -173.8766  YYY=            -13.3622  ZZZ=             -2.2211  XYY=             -6.6239
  XXY=              1.2042  XXZ=             33.5293  XZZ=             -3.6177  YZZ=             -0.8929
  YYZ=             -1.0251  XYZ=             -0.5012
 Hexadecapole moment (field-independent basis, Debye-Ang**3):
 XXXX=          -9413.1006 YYYY=          -1377.7893 ZZZZ=           -412.9994 XXXY=             10.2634
 XXXZ=            190.4697 YYYX=             81.4000 YYYZ=             -4.1960 ZZZX=              5.0538
 ZZZY=              3.9378 XXYY=          -1282.8514 XXZZ=          -1243.4017 YYZZ=           -306.9136
 XXYZ=            -14.2080 YYXZ=             -6.5474 ZZXY=             -5.8260
 N-N= 1.672395267329D+03 E-N=-5.321898438385D+03  KE= 8.443529748983D+02

 **********************************************************************

            Electrostatic Properties Using The SCF Density.

 **********************************************************************

       Atomic Center    1 is at   4.662357 -0.158668 -0.142954
       Atomic Center    2 is at   5.851518 -0.140420 -0.508657
       Atomic Center    3 is at   3.810044  0.983741 -0.157750
       Atomic Center    4 is at   2.492606  0.914911  0.155240
       Atomic Center    5 is at   1.782082 -0.384989  0.353219
       Atomic Center    6 is at   2.630030 -1.565730 -0.117845
       Atomic Center    7 is at   4.053073 -1.417201  0.394389
       Atomic Center    8 is at   1.709932  2.149421  0.407581
       Atomic Center    9 is at   0.285729  2.115434 -0.144539
       Atomic Center   10 is at  -0.422467  0.818064  0.237171
       Atomic Center   11 is at   0.387109 -0.371757 -0.304926
       Atomic Center   12 is at  -1.831732  0.747246 -0.337286
       Atomic Center   13 is at  -2.546864 -0.560769  0.030472
       Atomic Center   14 is at  -1.767286 -1.715918 -0.586376
       Atomic Center   15 is at  -0.322707 -1.714833 -0.085792
       Atomic Center   16 is at  -2.847296  1.826833  0.037932
       Atomic Center   17 is at  -4.204518  1.181818 -0.302467
       Atomic Center   18 is at  -3.926119 -0.305929 -0.609774
       Atomic Center   19 is at  -2.727664 -0.777635  1.533288
       Atomic Center   20 is at  -4.981162 -1.111951 -0.136158
       Atomic Center   21 is at   4.272250  1.938122 -0.371133
       Atomic Center   22 is at   1.626038 -0.492152  1.436638
       Atomic Center   23 is at   2.636747 -1.604987 -1.212575
       Atomic Center   24 is at   2.221895 -2.502642  0.260016
       Atomic Center   25 is at   4.034766 -1.335719  1.486067
       Atomic Center   26 is at   4.655969 -2.283841  0.124644
       Atomic Center   27 is at   2.242043  3.026181  0.034676
       Atomic Center   28 is at   1.662404  2.236591  1.505283
       Atomic Center   29 is at   0.318468  2.203689 -1.235096
       Atomic Center   30 is at  -0.266808  2.972370  0.243749
       Atomic Center   31 is at  -0.465310  0.757734  1.326004
       Atomic Center   32 is at   0.514541 -0.226843 -1.386778
       Atomic Center   33 is at  -1.740053  0.759207 -1.431429
       Atomic Center   34 is at  -1.773205 -1.606669 -1.675382
       Atomic Center   35 is at  -2.237499 -2.668550 -0.339724
       Atomic Center   36 is at  -0.300014 -1.966168  0.973670
       Atomic Center   37 is at   0.218432 -2.498667 -0.618442
       Atomic Center   38 is at  -2.691069  2.745694 -0.524416
       Atomic Center   39 is at  -2.774164  2.072425  1.097154
       Atomic Center   40 is at  -4.663338  1.665197 -1.162486
       Atomic Center   41 is at  -4.906502  1.240666  0.528660
       Atomic Center   42 is at  -3.835069 -0.442665 -1.701158
       Atomic Center   43 is at  -3.315872  0.021194  1.973691
       Atomic Center   44 is at  -3.255668 -1.714162  1.696444
       Atomic Center   45 is at  -1.776353 -0.837015  2.048836
       Atomic Center   46 is at  -4.663334 -2.024249 -0.075885
 -----------------------------------------------------------------

              Electrostatic Properties (Atomic Units)

 -----------------------------------------------------------------
    Center     Electric         -------- Electric Field --------
               Potential          X             Y             Z
 -----------------------------------------------------------------
    1 Atom    -14.674627      0.003366     -0.004104     -0.001486
    2 Atom    -22.352293      0.100318      0.000911     -0.031063
    3 Atom    -14.748391     -0.009201      0.000771      0.002047
    4 Atom    -14.711073      0.012101      0.000477     -0.003133
    5 Atom    -14.720422     -0.002065     -0.004441     -0.002699
    6 Atom    -14.732869     -0.000197     -0.000360      0.000693
    7 Atom    -14.744282      0.001891     -0.001512     -0.002861
    8 Atom    -14.726733     -0.001829      0.002465     -0.001134
    9 Atom    -14.733059     -0.002301     -0.002020      0.000176
   10 Atom    -14.731401     -0.000977      0.000227     -0.003574
   11 Atom    -14.725547     -0.002079      0.000748      0.002112
   12 Atom    -14.738105     -0.000580     -0.001188      0.004172
   13 Atom    -14.734186     -0.001116      0.001701     -0.003390
   14 Atom    -14.737611     -0.001261      0.004411      0.001502
   15 Atom    -14.735493      0.000050      0.000317     -0.001393
   16 Atom    -14.742019      0.001374     -0.000423     -0.000627
   17 Atom    -14.747793     -0.002661     -0.001503      0.000729
   18 Atom    -14.693701      0.019689      0.013185     -0.006159
   19 Atom    -14.748224     -0.000344      0.000948     -0.002035
   20 Atom    -22.313376     -0.104797      0.040750      0.026335
   21 Atom     -1.106327      0.016988      0.032308     -0.006593
   22 Atom     -1.102239     -0.006208     -0.005587      0.033511
   23 Atom     -1.115803     -0.000870     -0.003631     -0.031709
   24 Atom     -1.116831     -0.013756     -0.028724      0.008144
   25 Atom     -1.106647      0.001840     -0.001488      0.033935
   26 Atom     -1.120615      0.023314     -0.021598     -0.007772
   27 Atom     -1.109284      0.016537      0.026407     -0.008884
   28 Atom     -1.100451     -0.002072      0.008348      0.029545
   29 Atom     -1.116674     -0.000815      0.004965     -0.032213
   30 Atom     -1.117228     -0.017578      0.026567      0.009047
   31 Atom     -1.116693     -0.003512     -0.001881      0.036326
   32 Atom     -1.115998      0.004378      0.004134     -0.032031
   33 Atom     -1.122203      0.003256      0.000510     -0.033339
   34 Atom     -1.118694     -0.001730      0.000334     -0.032691
   35 Atom     -1.116921     -0.012683     -0.032819      0.004916
   36 Atom     -1.116967      0.002047     -0.011345      0.033721
   37 Atom     -1.119595      0.016787     -0.024114     -0.013081
   38 Atom     -1.125769      0.004993      0.029319     -0.015389
   39 Atom     -1.124426      0.001507      0.009118      0.032681
   40 Atom     -1.129535     -0.017211      0.014981     -0.024441
   41 Atom     -1.128213     -0.023520      0.000248      0.023178
   42 Atom     -1.133222      0.002038     -0.004125     -0.030266
   43 Atom     -1.119434     -0.020331      0.022554      0.017697
   44 Atom     -1.117889     -0.018010     -0.026987      0.010933
   45 Atom     -1.117156      0.029153     -0.001857      0.020347
   46 Atom     -0.996186      0.009165     -0.041137      0.002054
 -----------------------------------------------------------------
 -----------------------------------------------------
    Center         ---- Electric Field Gradient ----
                     XX            YY            ZZ
 -----------------------------------------------------
    1 Atom     -493.376313   -493.281681   -493.920526
    2 Atom    -1217.178223  -1214.677477  -1217.474291
    3 Atom     -493.144852   -493.193316   -493.427689
    4 Atom     -493.220638   -493.284376   -493.839271
    5 Atom     -492.775717   -492.811143   -492.804858
    6 Atom     -492.660144   -492.629024   -492.623790
    7 Atom     -492.737250   -492.746063   -492.762163
    8 Atom     -492.598734   -492.630744   -492.620804
    9 Atom     -492.684928   -492.633034   -492.640855
   10 Atom     -492.780272   -492.799322   -492.787042
   11 Atom     -492.855899   -492.817699   -492.829206
   12 Atom     -492.923315   -492.941353   -492.929686
   13 Atom     -492.961361   -492.960457   -493.000813
   14 Atom     -492.743812   -492.716304   -492.724497
   15 Atom     -492.660559   -492.653113   -492.629746
   16 Atom     -492.667538   -492.614553   -492.599397
   17 Atom     -492.669108   -492.701726   -492.624973
   18 Atom     -492.860202   -492.783886   -492.672022
   19 Atom     -492.568667   -492.582176   -492.615519
   20 Atom    -1214.447325  -1215.778012  -1212.874971
   21 Atom       -1.695850     -1.975570     -1.615566
   22 Atom       -1.631629     -1.628898     -2.027181
   23 Atom       -1.622812     -1.619042     -2.048999
   24 Atom       -1.699440     -1.962048     -1.684475
   25 Atom       -1.606776     -1.609396     -2.039009
   26 Atom       -1.747894     -1.893867     -1.638677
   27 Atom       -1.732053     -1.907969     -1.670425
   28 Atom       -1.606189     -1.610182     -2.017642
   29 Atom       -1.627574     -1.628282     -2.055216
   30 Atom       -1.744752     -1.903055     -1.684119
   31 Atom       -1.646190     -1.646627     -2.079526
   32 Atom       -1.641526     -1.643786     -2.038789
   33 Atom       -1.653595     -1.645544     -2.060988
   34 Atom       -1.630036     -1.632990     -2.057219
   35 Atom       -1.725726     -1.977778     -1.657583
   36 Atom       -1.636739     -1.657760     -2.058397
   37 Atom       -1.745368     -1.861381     -1.735685
   38 Atom       -1.643608     -1.954732     -1.754227
   39 Atom       -1.634305     -1.653158     -2.055190
   40 Atom       -1.712289     -1.724643     -1.916046
   41 Atom       -1.798188     -1.615449     -1.877405
   42 Atom       -1.677962     -1.680090     -2.065371
   43 Atom       -1.742715     -1.862965     -1.692924
   44 Atom       -1.719335     -1.956912     -1.632477
   45 Atom       -1.984783     -1.621480     -1.729540
   46 Atom       -1.529053     -2.037188     -1.419361
 -----------------------------------------------------
 -----------------------------------------------------
    Center         ---- Electric Field Gradient ----
                     XY            XZ            YZ
 -----------------------------------------------------
    1 Atom       -0.061042     -0.172123     -0.177881
    2 Atom       -0.215738     -0.067236     -0.718867
    3 Atom       -0.014399     -0.067857     -0.026347
    4 Atom       -0.001592     -0.133868     -0.004079
    5 Atom       -0.018086     -0.012794     -0.002541
    6 Atom        0.019474     -0.005056     -0.023491
    7 Atom       -0.011873     -0.039364      0.001447
    8 Atom        0.023124     -0.019476     -0.010726
    9 Atom       -0.006863     -0.020885      0.018372
   10 Atom       -0.002115      0.006192     -0.004194
   11 Atom       -0.010307     -0.018784     -0.007603
   12 Atom        0.012126     -0.011348      0.006472
   13 Atom        0.001958      0.007753      0.004202
   14 Atom       -0.015099     -0.007691     -0.010521
   15 Atom       -0.020419     -0.009392      0.015498
   16 Atom       -0.002864     -0.004534     -0.014381
   17 Atom       -0.016341     -0.019688     -0.036713
   18 Atom       -0.189735      0.111898      0.107408
   19 Atom       -0.006866      0.001109      0.012901
   20 Atom       -0.276500      0.668232      0.666345
   21 Atom       -0.169104      0.041272      0.080468
   22 Atom       -0.005502      0.060591      0.041319
   23 Atom        0.001564      0.000791     -0.016616
   24 Atom       -0.143450      0.057708      0.131858
   25 Atom       -0.000950      0.008445     -0.030760
   26 Atom        0.194911      0.059441     -0.088031
   27 Atom       -0.170271      0.073994      0.121422
   28 Atom        0.004499      0.019711     -0.034813
   29 Atom       -0.003377      0.011502      0.034440
   30 Atom        0.174843      0.078746     -0.124376
   31 Atom       -0.002396      0.016906      0.025475
   32 Atom       -0.006537      0.047189      0.054718
   33 Atom       -0.000344      0.035109      0.003667
   34 Atom        0.001732     -0.002868      0.043071
   35 Atom       -0.168529      0.044777      0.087939
   36 Atom       -0.000026     -0.010038      0.100030
   37 Atom        0.156307      0.106024     -0.154501
   38 Atom       -0.055587      0.032771      0.197017
   39 Atom       -0.007058     -0.028189     -0.097279
   40 Atom        0.083465     -0.151246      0.158522
   41 Atom        0.017076      0.218406     -0.021430
   42 Atom       -0.000934      0.036972     -0.048776
   43 Atom        0.185473      0.101998     -0.136225
   44 Atom       -0.194545      0.032133      0.056559
   45 Atom        0.022167     -0.193312      0.012247
   46 Atom        0.198422      0.002120      0.046738
 -----------------------------------------------------
 -----------------------------------------------------
    Center         ---- Electric Field Gradient ----
                   ----       Eigenvalues       ----
 -----------------------------------------------------
    1 Atom     -494.018303   -493.327273   -493.232943
    2 Atom    -1217.675978  -1217.164489  -1214.489524
    3 Atom     -493.446426   -493.191095   -493.128337
    4 Atom     -493.867029   -493.284350   -493.192907
    5 Atom     -492.822245   -492.804373   -492.765100
    6 Atom     -492.670394   -492.644496   -492.598068
    7 Atom     -492.791764   -492.748016   -492.705695
    8 Atom     -492.642878   -492.631737   -492.575668
    9 Atom     -492.693255   -492.652389   -492.613173
   10 Atom     -492.800620   -492.790098   -492.775919
   11 Atom     -492.868734   -492.820194   -492.813876
   12 Atom     -492.952890   -492.928260   -492.913204
   13 Atom     -493.002619   -492.962703   -492.957308
   14 Atom     -492.754818   -492.723027   -492.706768
   15 Atom     -492.677774   -492.650995   -492.614649
   16 Atom     -492.668124   -492.622720   -492.590643
   17 Atom     -492.725623   -492.662557   -492.607626
   18 Atom     -493.074962   -492.634434   -492.606714
   19 Atom     -492.620139   -492.580804   -492.565420
   20 Atom    -1216.038442  -1214.522353  -1212.539513
   21 Atom       -2.073016     -1.616741     -1.597229
   22 Atom       -2.040475     -1.624874     -1.622359
   23 Atom       -2.049642     -1.623291     -1.617921
   24 Atom       -2.077875     -1.636294     -1.631794
   25 Atom       -2.041361     -1.608484     -1.605335
   26 Atom       -2.056039     -1.613585     -1.610814
   27 Atom       -2.063141     -1.628364     -1.618941
   28 Atom       -2.021561     -1.609213     -1.603239
   29 Atom       -2.058296     -1.628983     -1.623793
   30 Atom       -2.071731     -1.632307     -1.627887
   31 Atom       -2.081685     -1.646744     -1.643914
   32 Atom       -2.051761     -1.636383     -1.635958
   33 Atom       -2.064024     -1.650592     -1.645511
   34 Atom       -2.061570     -1.630926     -1.627750
   35 Atom       -2.084975     -1.641375     -1.634737
   36 Atom       -2.082198     -1.637957     -1.632741
   37 Atom       -2.073908     -1.636864     -1.631663
   38 Atom       -2.084968     -1.634969     -1.632630
   39 Atom       -2.079387     -1.632601     -1.630664
   40 Atom       -2.085473     -1.635818     -1.631686
   41 Atom       -2.061448     -1.616003     -1.613591
   42 Atom       -2.074821     -1.679785     -1.668817
   43 Atom       -2.073834     -1.617406     -1.607364
   44 Atom       -2.075616     -1.622938     -1.610170
   45 Atom       -2.090169     -1.625537     -1.620097
   46 Atom       -2.108238     -1.466650     -1.410713
 -----------------------------------------------------
 -----------------------------------------------------
    Center         ---- Electric Field Gradient ----
                       ( tensor representation )
                   3XX-RR        3YY-RR        3ZZ-RR
 -----------------------------------------------------
    1 Atom        0.149860      0.244492     -0.394352
    2 Atom       -0.734892      1.765853     -1.030961
    3 Atom        0.110434      0.061970     -0.172404
    4 Atom        0.227457      0.163719     -0.391176
    5 Atom        0.021523     -0.013904     -0.007619
    6 Atom       -0.022491      0.008628      0.013863
    7 Atom        0.011242      0.002429     -0.013671
    8 Atom        0.018027     -0.013983     -0.004044
    9 Atom       -0.031989      0.019905      0.012084
   10 Atom        0.008607     -0.010443      0.001837
   11 Atom       -0.021631      0.016569      0.005062
   12 Atom        0.008137     -0.009902      0.001765
   13 Atom        0.012849      0.013754     -0.026603
   14 Atom       -0.015608      0.011901      0.003707
   15 Atom       -0.012753     -0.005307      0.018060
   16 Atom       -0.040375      0.012610      0.027766
   17 Atom       -0.003840     -0.036457      0.040296
   18 Atom       -0.088165     -0.011849      0.100014
   19 Atom        0.020120      0.006612     -0.026732
   20 Atom       -0.080556     -1.411243      1.491799
   21 Atom        0.066479     -0.213242      0.146763
   22 Atom        0.130941      0.133671     -0.264612
   23 Atom        0.140805      0.144576     -0.285381
   24 Atom        0.082548     -0.180060      0.097513
   25 Atom        0.144951      0.142331     -0.287282
   26 Atom        0.012252     -0.133721      0.121469
   27 Atom        0.038096     -0.137820      0.099724
   28 Atom        0.138482      0.134489     -0.272972
   29 Atom        0.142783      0.142075     -0.284859
   30 Atom        0.032557     -0.125746      0.093190
   31 Atom        0.144591      0.144154     -0.288745
   32 Atom        0.133174      0.130915     -0.264089
   33 Atom        0.133114      0.141165     -0.274279
   34 Atom        0.143379      0.140425     -0.283804
   35 Atom        0.061303     -0.190749      0.129446
   36 Atom        0.147560      0.126539     -0.274098
   37 Atom        0.035444     -0.080570      0.045126
   38 Atom        0.140581     -0.170543      0.029962
   39 Atom        0.146579      0.127726     -0.274306
   40 Atom        0.072037      0.059683     -0.131720
   41 Atom       -0.034508      0.148232     -0.113724
   42 Atom        0.129845      0.127718     -0.257564
   43 Atom        0.023486     -0.096764      0.073277
   44 Atom        0.050240     -0.187337      0.137098
   45 Atom       -0.206182      0.157121      0.049061
   46 Atom        0.132814     -0.375321      0.242506
 -----------------------------------------------------
 -----------------------------------------------------
    Center         ---- Electric Field Gradient ----
                       ( tensor representation )
                   ----       Eigenvalues       ----
 -----------------------------------------------------
    1 Atom       -0.492130      0.198900      0.293230
    2 Atom       -1.232648     -0.721159      1.953807
    3 Atom       -0.191140      0.064191      0.126949
    4 Atom       -0.418934      0.163745      0.255188
    5 Atom       -0.025006     -0.007133      0.032139
    6 Atom       -0.032741     -0.006843      0.039584
    7 Atom       -0.043273      0.000476      0.042797
    8 Atom       -0.026117     -0.014976      0.041093
    9 Atom       -0.040316      0.000550      0.039766
   10 Atom       -0.011741     -0.001219      0.012960
   11 Atom       -0.034466      0.014075      0.020392
   12 Atom       -0.021438      0.003192      0.018247
   13 Atom       -0.028409      0.011507      0.016902
   14 Atom       -0.026614      0.005177      0.021437
   15 Atom       -0.029968     -0.003189      0.033157
   16 Atom       -0.040962      0.004443      0.036519
   17 Atom       -0.060355      0.002712      0.057643
   18 Atom       -0.302926      0.137603      0.165323
   19 Atom       -0.031351      0.007984      0.023368
   20 Atom       -1.671673     -0.155584      1.827256
   21 Atom       -0.310687      0.145588      0.165099
   22 Atom       -0.277906      0.137696      0.140210
   23 Atom       -0.286024      0.140327      0.145697
   24 Atom       -0.295887      0.145693      0.150194
   25 Atom       -0.289634      0.143242      0.146392
   26 Atom       -0.295893      0.146561      0.149332
   27 Atom       -0.292993      0.141785      0.151208
   28 Atom       -0.276890      0.135458      0.141432
   29 Atom       -0.287939      0.141374      0.146565
   30 Atom       -0.294423      0.145001      0.149421
   31 Atom       -0.290904      0.144037      0.146867
   32 Atom       -0.277061      0.138318      0.138743
   33 Atom       -0.277315      0.136117      0.141197
   34 Atom       -0.288154      0.142489      0.145665
   35 Atom       -0.297946      0.145654      0.152292
   36 Atom       -0.297899      0.146341      0.151557
   37 Atom       -0.293096      0.143948      0.149148
   38 Atom       -0.300779      0.149220      0.151559
   39 Atom       -0.298504      0.148283      0.150220
   40 Atom       -0.301147      0.148508      0.152639
   41 Atom       -0.297767      0.147678      0.150090
   42 Atom       -0.267014      0.128023      0.138990
   43 Atom       -0.307632      0.148795      0.158837
   44 Atom       -0.306042      0.146637      0.159405
   45 Atom       -0.311568      0.153064      0.158504
   46 Atom       -0.446371      0.195217      0.251154
 -----------------------------------------------------
 Unable to Open any file for archive entry.
 1\1\GINC-EXP-3-49\SP\RwB97XD\6-31G(d)\C18H26O2\HKLEM\12-Aug-2024\0\\# 
 wb97xd 6-31G(d) prop=efg\\19nt_xstal_distance_cutoff4_xtb_ligand_conf_
 1\\0,1\C,0,42.3037,41.6528,31.1698\O,0,42.1031,40.5722,31.7531\C,0,42.
 7558,42.8357,31.8241\C,0,43.0579,43.9723,31.1494\C,0,43.1284,44.0247,2
 9.6574\C,0,43.1107,42.6248,29.045\C,0,42.0279,41.7861,29.7035\C,0,43.2
 45,45.2538,31.8726\C,0,44.37,46.1287,31.3219\C,0,44.2753,46.2572,29.80
 37\C,0,44.3377,44.8537,29.1782\C,0,45.4117,47.0943,29.2302\C,0,45.332,
 47.2176,27.7018\C,0,45.4764,45.8222,27.1063\C,0,44.3867,44.8948,27.644
 7\C,0,45.5843,48.5402,29.6963\C,0,46.4581,49.1737,28.5967\C,0,46.531,4
 8.1513,27.4414\C,0,44.0571,47.8896,27.1907\O,0,46.5341,48.8141,26.1973
 \H,0,42.7913,42.8156,32.905\H,0,42.2233,44.5517,29.3217\H,0,44.0846,42
 .1442,29.1884\H,0,42.905,42.679,27.9764\H,0,41.0641,42.2937,29.5932\H,
 0,41.9556,40.8057,29.2335\H,0,43.388,45.0768,32.9399\H,0,42.2891,45.78
 95,31.7539\H,0,45.3353,45.6872,31.5892\H,0,44.3134,47.1146,31.7858\H,0
 ,43.3175,46.7186,29.5572\H,0,45.2561,44.367,29.535\H,0,46.35,46.5703,2
 9.4554\H,0,46.4586,45.4213,27.3755\H,0,45.4148,45.8633,26.0182\H,0,43.
 416,45.2057,27.261\H,0,44.5813,43.8907,27.2641\H,0,46.066,48.599,30.67
 07\H,0,44.6175,49.0367,29.7763\H,0,47.4565,49.3947,28.9684\H,0,46.03,5
 0.1003,28.2157\H,0,47.4593,47.5615,27.5336\H,0,43.9667,48.899,27.5793\
 H,0,44.0967,47.9486,26.1056\H,0,43.1701,47.3293,27.462\H,0,46.291,48.1
 753,25.5119\\Version=ES64L-G16RevC.01\State=1-A\HF=-851.7907325\RMSD=3
 .406e-09\Dipole=0.2152316,1.1532033,-0.7116649\Quadrupole=7.5553286,-1
 5.998993,8.4436644,-11.3045761,5.9995674,16.4001931\PG=C01 [X(C18H26O2
 )]\\@
 The archive entry for this job was punched.


 NEVER LISTEN TO CRITICISM
 OR YOU'LL BE DOIN' EVERYBODY ELSE'S THING BUT BUT YOUR OWN.

                                               -- ANDY CAPP
 Job cpu time:       0 days  0 hours 10 minutes 16.6 seconds.
 Elapsed time:       0 days  0 hours  0 minutes 26.1 seconds.
 File lengths (MBytes):  RWF=     71 Int=      0 D2E=      0 Chk=      8 Scr=      1
 Normal termination of Gaussian 16 at Mon Aug 12 07:19:57 2024.
