 Entering Gaussian System, Link 0=g16
 Input=cutoff8_19.gjf
 Output=cutoff8_19.log
 Initial command:
 /usr/local/packages/license/gaussian/g16-c01/g16/l1.exe "/work/arkanil/gauss_scratch/Gau-3080574.inp" -scrdir="/work/arkanil/gauss_scratch/"
 Entering Link 1 = /usr/local/packages/license/gaussian/g16-c01/g16/l1.exe PID=   3080581.
  
 Copyright (c) 1988-2019, Gaussian, Inc.  All Rights Reserved.
  
 This is part of the Gaussian(R) 16 program.  It is based on
 the Gaussian(R) 09 system (copyright 2009, Gaussian, Inc.),
 the Gaussian(R) 03 system (copyright 2003, Gaussian, Inc.),
 the Gaussian(R) 98 system (copyright 1998, Gaussian, Inc.),
 the Gaussian(R) 94 system (copyright 1995, Gaussian, Inc.),
 the Gaussian 92(TM) system (copyright 1992, Gaussian, Inc.),
 the Gaussian 90(TM) system (copyright 1990, Gaussian, Inc.),
 the Gaussian 88(TM) system (copyright 1988, Gaussian, Inc.),
 the Gaussian 86(TM) system (copyright 1986, Carnegie Mellon
 University), and the Gaussian 82(TM) system (copyright 1983,
 Carnegie Mellon University). Gaussian is a federally registered
 trademark of Gaussian, Inc.
  
 This software contains proprietary and confidential information,
 including trade secrets, belonging to Gaussian, Inc.
  
 This software is provided under written license and may be
 used, copied, transmitted, or stored only in accord with that
 written license.
  
 The following legend is applicable only to US Government
 contracts under FAR:
  
                    RESTRICTED RIGHTS LEGEND
  
 Use, reproduction and disclosure by the US Government is
 subject to restrictions as set forth in subparagraphs (a)
 and (c) of the Commercial Computer Software - Restricted
 Rights clause in FAR 52.227-19.
  
 Gaussian, Inc.
 340 Quinnipiac St., Bldg. 40, Wallingford CT 06492
  
  
 ---------------------------------------------------------------
 Warning -- This program may not be used in any manner that
 competes with the business of Gaussian, Inc. or will provide
 assistance to any competitor of Gaussian, Inc.  The licensee
 of this program is prohibited from giving any competitor of
 Gaussian, Inc. access to this program.  By using this program,
 the user acknowledges that Gaussian, Inc. is engaged in the
 business of creating and licensing software in the field of
 computational chemistry and represents and warrants to the
 licensee that it is not a competitor of Gaussian, Inc. and that
 it will not use this program in any manner prohibited above.
 ---------------------------------------------------------------
  

 Cite this work as:
 Gaussian 16, Revision C.01,
 M. J. Frisch, G. W. Trucks, H. B. Schlegel, G. E. Scuseria, 
 M. A. Robb, J. R. Cheeseman, G. Scalmani, V. Barone, 
 G. A. Petersson, H. Nakatsuji, X. Li, M. Caricato, A. V. Marenich, 
 J. Bloino, B. G. Janesko, R. Gomperts, B. Mennucci, H. P. Hratchian, 
 J. V. Ortiz, A. F. Izmaylov, J. L. Sonnenberg, D. Williams-Young, 
 F. Ding, F. Lipparini, F. Egidi, J. Goings, B. Peng, A. Petrone, 
 T. Henderson, D. Ranasinghe, V. G. Zakrzewski, J. Gao, N. Rega, 
 G. Zheng, W. Liang, M. Hada, M. Ehara, K. Toyota, R. Fukuda, 
 J. Hasegawa, M. Ishida, T. Nakajima, Y. Honda, O. Kitao, H. Nakai, 
 T. Vreven, K. Throssell, J. A. Montgomery, Jr., J. E. Peralta, 
 F. Ogliaro, M. J. Bearpark, J. J. Heyd, E. N. Brothers, K. N. Kudin, 
 V. N. Staroverov, T. A. Keith, R. Kobayashi, J. Normand, 
 K. Raghavachari, A. P. Rendell, J. C. Burant, S. S. Iyengar, 
 J. Tomasi, M. Cossi, J. M. Millam, M. Klene, C. Adamo, R. Cammi, 
 J. W. Ochterski, R. L. Martin, K. Morokuma, O. Farkas, 
 J. B. Foresman, and D. J. Fox, Gaussian, Inc., Wallingford CT, 2019.
 
 ******************************************
 Gaussian 16:  ES64L-G16RevC.01  3-Jul-2019
                 3-May-2026 
 ******************************************
 %chk=ksi_reactant_trial.chk
 %nprocshared=64
 Will use up to   64 processors via shared memory.
 %mem=200GB
 --------------------------
 # wb97xd/6-31g(d) prop=efg
 --------------------------
 1/38=1,172=1/1;
 2/12=2,17=6,18=5,40=1/2;
 3/5=1,6=6,7=1,11=2,25=1,30=1,74=-58/1,2,3;
 4//1;
 5/5=2,38=5/2;
 6/7=2,8=2,9=2,10=2,14=1,28=1/1,2;
 99/5=1,9=1/99;
 -------------------------------
 None_sub_reg_combined_truncated
 -------------------------------
 Symbolic Z-matrix:
 Charge =  0 Multiplicity = 1
 C                     43.02034   42.25292   31.13412 
 O                     43.16756   41.18496   31.74005 
 C                     43.14611   43.54903   31.72334 
 C                     43.17006   44.68781   30.99189 
 C                     43.20138   44.68054   29.4935 
 C                     43.4495   43.27885   28.92862 
 C                     42.63121   42.2433   29.68152 
 C                     43.10389   46.01829   31.63919 
 C                     44.08723   47.03183   31.0552 
 C                     43.98912   47.08597   29.5332 
 C                     44.24069   45.68481   28.95393 
 C                     45.03487   48.02601   28.94401 
 C                     44.98262   48.1027   27.4125 
 C                     45.25093   46.70938   26.85494 
 C                     44.2444   45.70533   27.41957 
 C                     45.04939   49.49394   29.36728 
 C                     45.9016   50.17541   28.27883 
 C                     46.10944   49.12907   27.1637 
 C                     43.66736   48.65973   26.86503 
 O                     46.09925   49.74908   25.89828 
 H                     43.1697   43.59374   32.80425 
 H                     42.20384   45.0156   29.1812 
 H                     44.51224   43.03236   29.01422 
 H                     43.17712   43.24899   27.87334 
 H                     41.57256   42.51511   29.63188 
 H                     42.76827   41.23933   29.27318 
 H                     43.2479   45.93187   32.71694 
 H                     42.07815   46.3878   31.48445 
 H                     45.10609   46.7518   31.3412 
 H                     43.87951   48.01426   31.47932 
 H                     42.9847   47.41243   29.2597 
 H                     45.23284   45.35364   29.29024 
 H                     46.0197   47.60996   29.19745 
 H                     46.25989   46.39934   27.14163 
 H                     45.1997   46.71095   25.76386 
 H                     43.24077   45.94296   27.0685 
 H                     44.50916   44.71861   27.03762 
 H                     45.48835   49.62287   30.35237 
 H                     44.03716   49.89486   29.39908 
 H                     46.8606   50.49617   28.67918 
 H                     45.40652   51.04632   27.85194 
 H                     47.08058   48.62606   27.31019 
 H                     43.51819   49.68244   27.19343 
 H                     43.70461   48.66253   25.77782 
 H                     42.81827   48.06604   27.18412 
 H                     46.08944   49.05911   25.22407 
 
                          Input orientation:                          
 ---------------------------------------------------------------------
 Center     Atomic      Atomic             Coordinates (Angstroms)
 Number     Number       Type             X           Y           Z
 ---------------------------------------------------------------------
      1          6           0       43.020343   42.252917   31.134122
      2          8           0       43.167558   41.184963   31.740053
      3          6           0       43.146107   43.549033   31.723338
      4          6           0       43.170059   44.687807   30.991894
      5          6           0       43.201380   44.680540   29.493498
      6          6           0       43.449502   43.278855   28.928620
      7          6           0       42.631208   42.243303   29.681517
      8          6           0       43.103885   46.018294   31.639185
      9          6           0       44.087227   47.031834   31.055196
     10          6           0       43.989118   47.085975   29.533200
     11          6           0       44.240694   45.684813   28.953931
     12          6           0       45.034869   48.026009   28.944009
     13          6           0       44.982621   48.102700   27.412499
     14          6           0       45.250931   46.709382   26.854936
     15          6           0       44.244405   45.705334   27.419574
     16          6           0       45.049392   49.493940   29.367279
     17          6           0       45.901599   50.175412   28.278832
     18          6           0       46.109443   49.129067   27.163696
     19          6           0       43.667357   48.659735   26.865030
     20          8           0       46.099247   49.749077   25.898281
     21          1           0       43.169703   43.593735   32.804249
     22          1           0       42.203839   45.015600   29.181205
     23          1           0       44.512241   43.032359   29.014223
     24          1           0       43.177115   43.248991   27.873335
     25          1           0       41.572564   42.515107   29.631883
     26          1           0       42.768274   41.239326   29.273175
     27          1           0       43.247898   45.931872   32.716938
     28          1           0       42.078154   46.387797   31.484452
     29          1           0       45.106086   46.751799   31.341195
     30          1           0       43.879509   48.014262   31.479317
     31          1           0       42.984701   47.412434   29.259697
     32          1           0       45.232840   45.353644   29.290244
     33          1           0       46.019704   47.609960   29.197445
     34          1           0       46.259890   46.399343   27.141633
     35          1           0       45.199702   46.710948   25.763856
     36          1           0       43.240772   45.942964   27.068500
     37          1           0       44.509161   44.718607   27.037617
     38          1           0       45.488353   49.622870   30.352373
     39          1           0       44.037156   49.894860   29.399077
     40          1           0       46.860603   50.496170   28.679185
     41          1           0       45.406523   51.046321   27.851938
     42          1           0       47.080575   48.626057   27.310185
     43          1           0       43.518193   49.682437   27.193430
     44          1           0       43.704609   48.662529   25.777819
     45          1           0       42.818271   48.066037   27.184118
     46          1           0       46.089443   49.059115   25.224068
 ---------------------------------------------------------------------
                    Distance matrix (angstroms):
                    1          2          3          4          5
     1  C    0.000000
     2  O    1.236669   0.000000
     3  C    1.429303   2.364226   0.000000
     4  C    2.443631   3.581852   1.353659   0.000000
     5  C    2.935605   4.155384   2.501110   1.498741   0.000000
     6  C    2.470013   3.516822   2.824091   2.514027   1.531461
     7  C    1.503855   2.375989   2.477717   2.825429   2.510094
     8  C    3.800017   4.834802   2.471055   1.481067   2.530428
     9  C    4.897195   5.958248   3.669064   2.517869   2.958414
    10  C    5.182656   6.353511   4.244682   2.924013   2.531447
    11  C    4.245044   5.400254   3.664600   2.508699   1.542682
    12  C    6.494883   7.622639   5.597804   4.337619   3.854320
    13  C    7.205621   8.359262   6.533911   5.268675   4.383441
    14  C    6.568640   7.663160   6.174093   5.052841   3.908819
    15  C    5.216836   6.345069   4.937436   3.866658   2.537570
    16  C    7.724712   8.843667   6.671988   5.410192   5.157509
    17  C    8.900575  10.014150   7.960293   6.703418   6.241812
    18  C    8.519874   9.628422   7.791564   6.558952   5.802947
    19  C    7.726001   8.938002   7.070653   5.749306   4.791657
    20  O    9.648113  10.773354   9.005158   7.755094   6.856623
    21  H    2.146957   2.633382   1.082093   2.116985   3.484713
    22  H    3.480371   4.706404   3.082391   2.078371   1.097671
    23  H    2.706891   3.556852   3.077754   2.907428   2.159759
    24  H    3.413132   4.383128   3.861801   3.434479   2.162139
    25  H    2.102743   2.959336   2.814111   3.020305   2.713170
    26  H    2.134017   2.499574   3.388333   3.873945   3.475353
    27  H    4.011458   4.847051   2.583704   2.128270   3.458116
    28  H    4.255312   5.321805   3.042396   2.079624   2.853115
    29  H    4.963179   5.908184   3.774290   2.851363   3.366304
    30  H    5.835274   6.871258   4.531633   3.436015   3.939167
    31  H    5.489567   6.705744   4.584915   3.233953   2.750428
    32  H    4.231966   5.257838   3.678453   2.755724   2.149700
    33  H    6.437763   7.475305   5.579321   4.458643   4.075794
    34  H    6.605110   7.609056   6.229922   5.225027   4.223746
    35  H    7.311867   8.389342   7.051977   5.961956   4.693194
    36  H    5.494935   6.668384   5.235206   4.119883   2.734206
    37  H    5.007750   6.033195   5.018147   4.174978   2.782641
    38  H    7.811428   8.860588   6.652605   5.489837   5.513124
    39  H    7.902125   9.060832   6.816574   5.513830   5.281721
    40  H    9.419423  10.474066   8.445535   7.259877   6.919145
    41  H    9.684551  10.834056   8.735362   7.435844   6.934013
    42  H    8.469055   9.502911   7.793082   6.660099   5.948286
    43  H    8.424647   9.643744   7.633948   6.284572   5.514495
    44  H    8.381010   9.578656   7.861868   6.578049   5.469529
    45  H    7.031054   8.260008   6.412123   5.102484   4.116017
    46  H    9.522208  10.630040   9.014696   7.803777   6.763199
                    6          7          8          9         10
     6  C    0.000000
     7  C    1.519482   0.000000
     8  C    3.869256   4.278603   0.000000
     9  C    4.360490   5.190089   1.528159   0.000000
    10  C    3.892411   5.031639   2.521657   1.526115   0.000000
    11  C    2.532836   3.868309   2.934985   2.500667   1.536912
    12  C    5.004908   6.305648   3.876028   2.518635   1.524600
    13  C    5.283801   6.708958   5.073389   3.900990   2.553067
    14  C    4.394750   5.899015   5.289277   4.370396   2.984475
    15  C    2.965956   4.438970   4.382220   3.873249   2.537470
    16  C    6.432678   7.649712   4.585485   3.136366   2.636286
    17  C    7.348299   8.693753   6.033309   4.569707   3.843910
    18  C    6.664474   8.114880   6.224170   4.861225   3.779491
    19  C    5.767126   7.083559   5.485187   4.514847   3.114384
    20  O    7.620228   9.092679   7.473214   6.166474   4.975681
    21  H    3.898453   3.444575   2.690760   3.965043   4.854579
    22  H    2.152152   2.849314   2.803060   3.335295   2.756370
    23  H    1.094304   2.146200   4.217783   4.510212   4.120048
    24  H    1.090281   2.139847   4.675043   5.026176   4.258749
    25  H    2.144944   1.094106   4.318162   5.361919   5.171296
    26  H    2.177721   1.092474   5.343143   6.202289   5.978409
    27  H    4.629309   4.816600   1.090761   2.162354   3.466633
    28  H    4.251870   4.553381   1.101180   2.153002   2.818975
    29  H    4.541600   5.404266   2.153053   1.094664   2.151310
    30  H    5.395836   6.172059   2.147333   1.090041   2.158958
    31  H    4.172784   5.198346   2.760398   2.141083   1.090978
    32  H    2.759677   4.073795   3.239094   2.691432   2.146355
    33  H    5.043479   6.365316   4.122802   2.742250   2.123811
    34  H    4.563885   6.073797   5.507589   4.520673   3.368599
    35  H    4.985799   6.473413   6.276282   5.416535   3.976697
    36  H    3.255932   4.570221   4.573356   4.218516   2.818022
    37  H    2.602241   4.079712   4.983815   4.655103   3.478909
    38  H    6.813994   7.941747   4.509384   3.028297   3.058527
    39  H    6.658693   7.784780   4.573494   3.307893   2.812496
    40  H    7.986706   9.327501   6.551787   5.033753   4.539185
    41  H    8.082246   9.409722   6.702719   5.302594   4.529903
    42  H    6.663077   8.133857   6.430765   5.052404   4.107403
    43  H    6.634868   7.894178   5.776014   4.718340   3.526743
    44  H    6.243122   7.589303   6.458210   5.536811   4.082813
    45  H    5.134087   6.338472   4.911462   4.202984   2.801713
    46  H    7.355569   8.847798   7.701551   6.490053   5.183944
                   11         12         13         14         15
    11  C    0.000000
    12  C    2.472249   0.000000
    13  C    2.961865   1.534319   0.000000
    14  C    2.544818   2.478793   1.524533   0.000000
    15  C    1.534498   2.886913   2.508460   1.529713   0.000000
    16  C    3.915903   1.527805   2.400244   3.755828   4.335330
    17  C    4.835271   2.411144   2.427177   3.803184   4.844193
    18  C    4.308137   2.353924   1.544364   2.585972   3.907145
    19  C    3.679998   2.567849   1.529683   2.512306   3.060880
    20  O    5.413821   3.657639   2.500054   3.297662   4.701768
    21  H    4.510496   6.166470   7.258678   7.030867   5.882904
    22  H    2.155986   4.139270   4.514436   4.191085   2.782622
    23  H    2.666999   5.021415   5.338083   4.327665   3.124010
    24  H    2.869166   5.236171   5.199106   4.160787   2.716363
    25  H    4.198282   6.544522   6.911971   6.231674   4.712812
    26  H    4.693857   7.162742   7.447909   6.475568   5.055693
    27  H    3.899603   4.670511   5.988224   6.243375   5.395036
    28  H    3.402103   4.228446   5.287497   5.621596   4.656354
    29  H    2.754341   2.715729   4.156300   4.488797   4.149300
    30  H    3.454615   2.786177   4.214699   4.996839   4.684635
    31  H    2.157703   2.163174   2.807186   3.378306   2.808397
    32  H    1.098696   2.701964   3.338539   2.787307   2.144783
    33  H    2.632560   1.098739   2.122349   2.624767   3.152794
    34  H    2.805731   2.719426   2.146208   1.093764   2.149670
    35  H    3.485574   3.445276   2.168438   1.092283   2.159920
    36  H    2.149729   3.327972   2.795860   2.161884   1.089495
    37  H    2.162842   3.853518   3.437555   2.132318   1.090696
    38  H    4.361260   2.176948   3.348066   4.558163   5.049337
    39  H    4.238406   2.166823   2.837646   4.253607   4.638266
    40  H    5.485305   3.083039   3.295453   4.500965   5.602073
    41  H    5.596366   3.233114   3.006278   4.452781   5.483028
    42  H    4.406557   2.685955   2.164667   2.688586   4.072646
    43  H    4.427456   2.847558   2.165205   3.457747   4.049181
    44  H    4.386555   3.492780   2.149164   2.714052   3.425163
    45  H    3.290251   2.830570   2.176675   2.804765   2.768070
    46  H    5.358700   4.002174   2.632302   2.980617   4.412738
                   16         17         18         19         20
    16  C    0.000000
    17  C    1.541226   0.000000
    18  C    2.472370   1.543232   0.000000
    19  C    2.977779   3.047614   2.504647   0.000000
    20  O    3.633351   2.426489   1.409182   2.834671   0.000000
    21  H    7.082260   8.441630   8.431951   7.822170   9.703755
    22  H    5.309173   6.411814   6.020356   4.559196   6.953962
    23  H    6.493474   7.313981   6.568512   6.082781   7.572449
    24  H    6.688547   7.454028   6.608889   5.525682   7.395323
    25  H    7.801439   8.902335   8.391643   7.056918   9.314556
    26  H    8.564520   9.521559   8.823906   7.853024   9.741722
    27  H    5.210943   6.689286   7.017762   6.470086   8.318373
    28  H    4.791534   6.264245   6.514198   5.387610   7.659811
    29  H    3.379186   4.661763   4.910155   5.074073   6.292484
    30  H    2.831744   4.359188   4.983972   4.664042   6.251782
    31  H    2.933801   4.135751   4.135705   2.784997   5.143871
    32  H    4.145074   4.971885   4.420911   4.388922   5.619244
    33  H    2.125965   2.727516   2.540053   3.475015   3.932764
    34  H    3.999417   3.959835   2.733956   3.450668   3.576653
    35  H    4.555469   4.338234   2.938449   2.712644   3.171353
    36  H    4.600535   5.143785   4.288308   2.757575   4.901713
    37  H    5.340690   5.766820   4.693501   4.033721   5.397414
    38  H    1.086150   2.185326   3.285918   4.050336   4.497562
    39  H    1.089206   2.193127   3.142887   2.843182   4.065593
    40  H    2.181381   1.087592   2.174837   4.106150   2.978462
    41  H    2.198565   1.088954   2.154910   3.113596   2.445299
    42  H    3.018371   2.174572   1.103438   3.442289   2.053692
    43  H    2.665656   2.664911   2.649845   1.084443   2.888545
    44  H    3.922233   3.656590   2.814523   1.087852   2.632373
    45  H    3.432638   3.892914   3.458651   1.084086   3.905228
    46  H    4.293830   3.257758   1.940993   2.952755   0.964732
                   21         22         23         24         25
    21  H    0.000000
    22  H    4.010118   0.000000
    23  H    4.059784   3.047925   0.000000
    24  H    4.942956   2.403892   1.769496   0.000000
    25  H    3.711899   2.618031   3.048073   2.491117   0.000000
    26  H    4.262965   3.819332   2.514646   2.483034   1.784940
    27  H    2.341073   3.798819   4.869891   5.537450   4.898835
    28  H    3.277213   2.683966   4.825533   4.909174   4.322657
    29  H    3.982897   4.012852   4.427379   5.293075   5.775559
    30  H    4.669082   4.132936   5.594318   6.016998   6.243053
    31  H    5.213496   2.522046   4.645287   4.392411   5.110427
    32  H    4.438698   3.049756   2.446184   3.265455   4.644526
    33  H    6.104228   4.614303   4.822909   5.371371   6.776675
    34  H    7.034622   4.746171   4.230538   4.468064   6.577207
    35  H    7.962728   4.850533   4.956764   4.530552   6.761867
    36  H    6.198608   2.529576   3.724794   2.812348   4.593915
    37  H    6.026071   3.161911   2.598156   2.152334   4.495468
    38  H    6.909291   5.778114   6.795460   7.218987   8.146950
    39  H    7.214697   5.216867   6.889684   6.872782   7.783904
    40  H    8.847740   7.209308   7.831700   8.169398   9.621245
    41  H    9.223328   6.956560   8.147038   8.109813   9.520980
    42  H    8.414506   6.349698   6.386669   6.668356   8.548226
    43  H    8.287040   5.240051   6.966129   6.478258   7.816786
    44  H    8.680410   5.209168   6.544112   5.828879   7.562422
    45  H    7.191027   3.697438   5.617538   4.879315   6.193235
    46  H    9.790526   6.863444   7.292094   7.018390   9.091483
                   26         27         28         29         30
    26  H    0.000000
    27  H    5.840337   0.000000
    28  H    5.645597   1.759314   0.000000
    29  H    6.334779   2.453123   3.053095   0.000000
    30  H    7.211218   2.503395   2.426993   1.765611   0.000000
    31  H    6.176916   3.770126   2.611752   3.044560   2.467710
    32  H    4.796039   4.002071   3.979455   2.485418   3.701680
    33  H    7.152798   4.783902   4.718040   2.483305   3.154494
    34  H    6.584879   6.354105   6.028858   4.369417   5.204774
    35  H    6.940159   7.263735   6.524853   5.578274   6.008996
    36  H    5.216135   5.648454   4.588049   4.731758   4.914628
    37  H    4.487071   5.942851   5.335760   4.796975   5.566552
    38  H    8.879601   4.922831   4.834951   3.060546   2.538897
    39  H    8.748954   5.228422   4.526143   3.846202   2.808718
    40  H   10.138498   7.084342   6.900730   4.917819   4.784091
    41  H   10.254629   7.381427   6.780490   5.541488   4.968202
    42  H    8.775709   7.154091   6.889015   4.864205   5.291765
    43  H    8.727763   6.681986   5.598325   5.321090   4.613262
    44  H    8.258220   7.471041   6.354953   6.046998   5.740899
    45  H    7.139373   5.945699   4.675162   4.923679   4.424663
    46  H    9.411404   8.602158   7.900556   6.611350   6.715926
                   31         32         33         34         35
    31  H    0.000000
    32  H    3.048553   0.000000
    33  H    3.042061   2.391386   0.000000
    34  H    4.029815   2.600932   2.397842   0.000000
    35  H    4.197525   3.778728   3.642823   1.766173   0.000000
    36  H    2.650709   3.041674   3.877338   3.054293   2.475742
    37  H    3.810291   2.449757   3.912354   2.429144   2.463480
    38  H    3.514007   4.406778   2.380756   4.614678   5.442160
    39  H    2.699913   4.697249   3.031818   4.717546   4.970276
    40  H    4.986887   5.428497   3.050559   4.416890   5.058225
    41  H    4.588261   5.874135   3.740983   4.777779   4.816464
    42  H    4.695707   4.247758   2.391579   2.379115   3.097816
    43  H    3.115604   5.106378   3.816910   4.277651   3.701473
    44  H    3.768883   5.061753   4.261621   3.675795   2.458489
    45  H    2.182412   4.197974   3.809287   3.824188   3.086199
    46  H    5.351381   5.567591   4.229969   3.283367   2.568443
                   36         37         38         39         40
    36  H    0.000000
    37  H    1.763182   0.000000
    38  H    5.420070   5.999851   0.000000
    39  H    4.656534   5.709017   1.757477   0.000000
    40  H    6.035658   6.450136   2.333513   2.975176   0.000000
    41  H    5.598974   6.442696   2.878382   2.365305   1.761065
    42  H    4.690575   4.685576   3.575433   3.903298   2.328062
    43  H    3.751830   5.064178   3.723440   2.275813   3.747177
    44  H    3.045823   4.217691   5.003054   3.839628   4.662667
    45  H    2.167790   3.753113   4.426163   3.120308   4.947850
    46  H    4.607304   4.962485   5.194098   4.726633   3.820687
                   41         42         43         44         45
    41  H    0.000000
    42  H    2.992261   0.000000
    43  H    2.420662   3.717545   0.000000
    44  H    3.589004   3.707644   1.754685   0.000000
    45  H    4.003390   4.300785   1.761456   1.766090   0.000000
    46  H    3.364680   2.349844   3.298219   2.480193   3.940630
                   46
    46  H    0.000000
 Stoichiometry    C18H26O2
 Framework group  C1[X(C18H26O2)]
 Deg. of freedom   132
 Full point group                 C1      NOp   1
 Largest Abelian subgroup         C1      NOp   1
 Largest concise Abelian subgroup C1      NOp   1
                         Standard orientation:                         
 ---------------------------------------------------------------------
 Center     Atomic      Atomic             Coordinates (Angstroms)
 Number     Number       Type             X           Y           Z
 ---------------------------------------------------------------------
      1          6           0        4.634715   -0.150529   -0.285751
      2          8           0        5.754138   -0.156431   -0.811306
      3          6           0        3.789438    0.997163   -0.179852
      4          6           0        2.499723    0.923122    0.224555
      5          6           0        1.807099   -0.383495    0.467967
      6          6           0        2.633818   -1.574963   -0.024284
      7          6           0        4.097160   -1.404132    0.347569
      8          6           0        1.712882    2.144817    0.510742
      9          6           0        0.293629    2.104233   -0.054364
     10          6           0       -0.420197    0.811862    0.331972
     11          6           0        0.398386   -0.391971   -0.160780
     12          6           0       -1.800385    0.728326   -0.310297
     13          6           0       -2.551722   -0.562746    0.040073
     14          6           0       -1.734933   -1.744417   -0.470522
     15          6           0       -0.325180   -1.715167    0.122574
     16          6           0       -2.829728    1.820477   -0.024209
     17          6           0       -4.163854    1.182080   -0.457724
     18          6           0       -3.872610   -0.310661   -0.719380
     19          6           0       -2.852975   -0.718375    1.531702
     20          8           0       -4.966148   -1.103669   -0.318002
     21          1           0        4.241795    1.957634   -0.389119
     22          1           0        1.698547   -0.455262    1.557897
     23          1           0        2.544113   -1.658664   -1.111689
     24          1           0        2.259062   -2.497327    0.420141
     25          1           0        4.181091   -1.276820    1.430996
     26          1           0        4.700360   -2.259397    0.034245
     27          1           0        2.234883    3.033674    0.154083
     28          1           0        1.657005    2.227926    1.607359
     29          1           0        0.337691    2.179596   -1.145542
     30          1           0       -0.262224    2.964985    0.317554
     31          1           0       -0.501613    0.769787    1.419094
     32          1           0        0.516442   -0.297227   -1.248999
     33          1           0       -1.647624    0.709394   -1.398200
     34          1           0       -1.662518   -1.682926   -1.560152
     35          1           0       -2.221718   -2.689931   -0.221271
     36          1           0       -0.368714   -1.868535    1.200341
     37          1           0        0.235712   -2.543357   -0.312304
     38          1           0       -2.621853    2.725073   -0.588314
     39          1           0       -2.830192    2.080716    1.033452
     40          1           0       -4.547482    1.655526   -1.358576
     41          1           0       -4.928028    1.258149    0.314333
     42          1           0       -3.692473   -0.464992   -1.797021
     43          1           0       -3.504679    0.077089    1.875992
     44          1           0       -3.366795   -1.662948    1.696611
     45          1           0       -1.946419   -0.705238    2.126031
     46          1           0       -4.699880   -2.029863   -0.362421
 ---------------------------------------------------------------------
 Rotational constants (GHZ):           0.9091508           0.1775814           0.1579777
 Standard basis: 6-31G(d) (6D, 7F)
 There are   352 symmetry adapted cartesian basis functions of A   symmetry.
 There are   352 symmetry adapted basis functions of A   symmetry.
   352 basis functions,   664 primitive gaussians,   352 cartesian basis functions
    75 alpha electrons       75 beta electrons
       nuclear repulsion energy      1672.6211745816 Hartrees.
 NAtoms=   46 NActive=   46 NUniq=   46 SFac= 1.00D+00 NAtFMM=   60 NAOKFM=F Big=F
 Integral buffers will be    131072 words long.
 Raffenetti 2 integral format.
 Two-electron integral symmetry is turned on.
 Nuclear repulsion after empirical dispersion term =     1672.5719408341 Hartrees.
 One-electron integrals computed using PRISM.
 NBasis=   352 RedAO= T EigKep=  1.24D-03  NBF=   352
 NBsUse=   352 1.00D-06 EigRej= -1.00D+00 NBFU=   352
 ExpMin= 1.61D-01 ExpMax= 5.48D+03 ExpMxC= 8.25D+02 IAcc=3 IRadAn=         5 AccDes= 0.00D+00
 Harris functional with IExCor= 4639 and IRadAn=       5 diagonalized for initial guess.
 HarFok:  IExCor= 4639 AccDes= 0.00D+00 IRadAn=         5 IDoV= 1 UseB2=F ITyADJ=14
 ICtDFT=  3500011 ScaDFX=  1.000000  1.000000  1.000000  1.000000
 FoFCou: FMM=F IPFlag=           0 FMFlag=      100000 FMFlg1=           0
         NFxFlg=           0 DoJE=T BraDBF=F KetDBF=T FulRan=T
         wScrn=  0.000000 ICntrl=       500 IOpCl=  0 I1Cent=   200000004 NGrid=           0
         NMat0=    1 NMatS0=      1 NMatT0=    0 NMatD0=    1 NMtDS0=    0 NMtDT0=    0
 Petite list used in FoFCou.
 Requested convergence on RMS density matrix=1.00D-08 within 128 cycles.
 Requested convergence on MAX density matrix=1.00D-06.
 Requested convergence on             energy=1.00D-06.
 No special actions if energy rises.
 Integral accuracy reduced to 1.0D-05 until final iterations.
 Initial convergence to 1.0D-05 achieved.  Increase integral accuracy.
 SCF Done:  E(RwB97XD) =  -851.792303788     A.U. after   15 cycles
            NFock= 15  Conv=0.33D-08     -V/T= 2.0088

 **********************************************************************

            Population analysis using the SCF Density.

 **********************************************************************

 Orbital symmetries:
       Occupied  (A) (A) (A) (A) (A) (A) (A) (A) (A) (A) (A) (A)
                 (A) (A) (A) (A) (A) (A) (A) (A) (A) (A) (A) (A)
                 (A) (A) (A) (A) (A) (A) (A) (A) (A) (A) (A) (A)
                 (A) (A) (A) (A) (A) (A) (A) (A) (A) (A) (A) (A)
                 (A) (A) (A) (A) (A) (A) (A) (A) (A) (A) (A) (A)
                 (A) (A) (A) (A) (A) (A) (A) (A) (A) (A) (A) (A)
                 (A) (A) (A)
       Virtual   (A) (A) (A) (A) (A) (A) (A) (A) (A) (A) (A) (A)
                 (A) (A) (A) (A) (A) (A) (A) (A) (A) (A) (A) (A)
                 (A) (A) (A) (A) (A) (A) (A) (A) (A) (A) (A) (A)
                 (A) (A) (A) (A) (A) (A) (A) (A) (A) (A) (A) (A)
                 (A) (A) (A) (A) (A) (A) (A) (A) (A) (A) (A) (A)
                 (A) (A) (A) (A) (A) (A) (A) (A) (A) (A) (A) (A)
                 (A) (A) (A) (A) (A) (A) (A) (A) (A) (A) (A) (A)
                 (A) (A) (A) (A) (A) (A) (A) (A) (A) (A) (A) (A)
                 (A) (A) (A) (A) (A) (A) (A) (A) (A) (A) (A) (A)
                 (A) (A) (A) (A) (A) (A) (A) (A) (A) (A) (A) (A)
                 (A) (A) (A) (A) (A) (A) (A) (A) (A) (A) (A) (A)
                 (A) (A) (A) (A) (A) (A) (A) (A) (A) (A) (A) (A)
                 (A) (A) (A) (A) (A) (A) (A) (A) (A) (A) (A) (A)
                 (A) (A) (A) (A) (A) (A) (A) (A) (A) (A) (A) (A)
                 (A) (A) (A) (A) (A) (A) (A) (A) (A) (A) (A) (A)
                 (A) (A) (A) (A) (A) (A) (A) (A) (A) (A) (A) (A)
                 (A) (A) (A) (A) (A) (A) (A) (A) (A) (A) (A) (A)
                 (A) (A) (A) (A) (A) (A) (A) (A) (A) (A) (A) (A)
                 (A) (A) (A) (A) (A) (A) (A) (A) (A) (A) (A) (A)
                 (A) (A) (A) (A) (A) (A) (A) (A) (A) (A) (A) (A)
                 (A) (A) (A) (A) (A) (A) (A) (A) (A) (A) (A) (A)
                 (A) (A) (A) (A) (A) (A) (A) (A) (A) (A) (A) (A)
                 (A) (A) (A) (A) (A) (A) (A) (A) (A) (A) (A) (A)
                 (A)
 The electronic state is 1-A.
 Alpha  occ. eigenvalues --  -19.26744 -19.23735 -10.36680 -10.34064 -10.32911
 Alpha  occ. eigenvalues --  -10.31451 -10.30864 -10.30704 -10.30310 -10.30176
 Alpha  occ. eigenvalues --  -10.30112 -10.30003 -10.29799 -10.29718 -10.29675
 Alpha  occ. eigenvalues --  -10.29292 -10.29144 -10.29126 -10.28736 -10.28393
 Alpha  occ. eigenvalues --   -1.12394  -1.10934  -0.98525  -0.95970  -0.91057
 Alpha  occ. eigenvalues --   -0.90459  -0.87356  -0.84512  -0.82849  -0.81552
 Alpha  occ. eigenvalues --   -0.78015  -0.77505  -0.73668  -0.72100  -0.69620
 Alpha  occ. eigenvalues --   -0.67932  -0.65723  -0.65292  -0.63145  -0.61033
 Alpha  occ. eigenvalues --   -0.60206  -0.58316  -0.57329  -0.55703  -0.55466
 Alpha  occ. eigenvalues --   -0.54241  -0.53667  -0.53132  -0.51813  -0.50647
 Alpha  occ. eigenvalues --   -0.50323  -0.49659  -0.48922  -0.48131  -0.47692
 Alpha  occ. eigenvalues --   -0.47001  -0.46884  -0.46612  -0.45157  -0.44620
 Alpha  occ. eigenvalues --   -0.44013  -0.43398  -0.43009  -0.42694  -0.41982
 Alpha  occ. eigenvalues --   -0.41868  -0.40972  -0.40169  -0.39672  -0.38357
 Alpha  occ. eigenvalues --   -0.37246  -0.36232  -0.34053  -0.32738  -0.30918
 Alpha virt. eigenvalues --    0.02411   0.13358   0.14205   0.14945   0.16691
 Alpha virt. eigenvalues --    0.17227   0.17970   0.18641   0.19777   0.20405
 Alpha virt. eigenvalues --    0.20621   0.21174   0.22463   0.22797   0.23485
 Alpha virt. eigenvalues --    0.23699   0.24250   0.24751   0.25153   0.25368
 Alpha virt. eigenvalues --    0.25606   0.26188   0.26388   0.26905   0.27110
 Alpha virt. eigenvalues --    0.27410   0.28652   0.29282   0.29896   0.30922
 Alpha virt. eigenvalues --    0.30955   0.31409   0.32114   0.32839   0.33352
 Alpha virt. eigenvalues --    0.33911   0.34558   0.35073   0.35843   0.36111
 Alpha virt. eigenvalues --    0.37068   0.37215   0.38975   0.39259   0.40787
 Alpha virt. eigenvalues --    0.41957   0.42297   0.44904   0.45299   0.49591
 Alpha virt. eigenvalues --    0.52823   0.58125   0.58669   0.59509   0.60002
 Alpha virt. eigenvalues --    0.61614   0.61867   0.62351   0.63456   0.65237
 Alpha virt. eigenvalues --    0.65693   0.66323   0.66450   0.68158   0.69585
 Alpha virt. eigenvalues --    0.70489   0.70839   0.72425   0.72795   0.72975
 Alpha virt. eigenvalues --    0.73820   0.74353   0.75280   0.75929   0.76821
 Alpha virt. eigenvalues --    0.77414   0.78081   0.78931   0.80132   0.81066
 Alpha virt. eigenvalues --    0.82891   0.83136   0.84493   0.85128   0.85707
 Alpha virt. eigenvalues --    0.86565   0.87653   0.88912   0.90186   0.90529
 Alpha virt. eigenvalues --    0.91518   0.93222   0.93699   0.94152   0.94820
 Alpha virt. eigenvalues --    0.95379   0.96269   0.96435   0.96692   0.96966
 Alpha virt. eigenvalues --    0.97578   0.97758   0.98046   0.98758   0.99201
 Alpha virt. eigenvalues --    0.99288   1.00279   1.01114   1.01343   1.02631
 Alpha virt. eigenvalues --    1.03433   1.03894   1.04233   1.04777   1.04831
 Alpha virt. eigenvalues --    1.05775   1.06243   1.06682   1.07298   1.08403
 Alpha virt. eigenvalues --    1.09120   1.10277   1.10704   1.11843   1.13370
 Alpha virt. eigenvalues --    1.13658   1.16066   1.16472   1.19427   1.21095
 Alpha virt. eigenvalues --    1.21604   1.23710   1.26567   1.27362   1.28219
 Alpha virt. eigenvalues --    1.29843   1.30422   1.33826   1.36414   1.39610
 Alpha virt. eigenvalues --    1.41726   1.43967   1.44615   1.49546   1.49900
 Alpha virt. eigenvalues --    1.51114   1.53662   1.54688   1.56186   1.57505
 Alpha virt. eigenvalues --    1.61704   1.62123   1.64703   1.66484   1.67836
 Alpha virt. eigenvalues --    1.70786   1.71503   1.73477   1.75482   1.76228
 Alpha virt. eigenvalues --    1.77541   1.78875   1.80684   1.82391   1.83158
 Alpha virt. eigenvalues --    1.85551   1.86456   1.87110   1.87857   1.89117
 Alpha virt. eigenvalues --    1.89704   1.92297   1.93410   1.94142   1.95467
 Alpha virt. eigenvalues --    1.96307   1.96786   1.97867   1.98945   1.99858
 Alpha virt. eigenvalues --    2.00890   2.02067   2.02602   2.03407   2.04468
 Alpha virt. eigenvalues --    2.05706   2.06567   2.06899   2.07866   2.08401
 Alpha virt. eigenvalues --    2.09311   2.09846   2.10913   2.12057   2.13072
 Alpha virt. eigenvalues --    2.13902   2.14447   2.15875   2.16225   2.19405
 Alpha virt. eigenvalues --    2.20048   2.20818   2.23172   2.23336   2.25648
 Alpha virt. eigenvalues --    2.26727   2.27843   2.30135   2.31434   2.32655
 Alpha virt. eigenvalues --    2.35272   2.36657   2.37810   2.39129   2.41249
 Alpha virt. eigenvalues --    2.41831   2.42689   2.43591   2.45817   2.47365
 Alpha virt. eigenvalues --    2.49533   2.49672   2.51029   2.51930   2.53259
 Alpha virt. eigenvalues --    2.54650   2.56959   2.59651   2.63040   2.63889
 Alpha virt. eigenvalues --    2.64048   2.64327   2.65924   2.67009   2.68800
 Alpha virt. eigenvalues --    2.69448   2.71329   2.72965   2.75805   2.77261
 Alpha virt. eigenvalues --    2.79863   2.80473   2.81553   2.84081   2.84189
 Alpha virt. eigenvalues --    2.87349   2.90365   2.93999   2.97513   2.98969
 Alpha virt. eigenvalues --    3.01602   3.02434   3.07774   3.09021   3.10800
 Alpha virt. eigenvalues --    3.21282   3.26807   4.01235   4.10348   4.25638
 Alpha virt. eigenvalues --    4.27094   4.31640   4.35093   4.36974   4.39370
 Alpha virt. eigenvalues --    4.43111   4.43502   4.48927   4.55035   4.56881
 Alpha virt. eigenvalues --    4.65443   4.68079   4.74756   4.78322   4.82365
 Alpha virt. eigenvalues --    4.86744   4.92545
          Condensed to atoms (all electrons):
               1          2          3          4          5          6
     1  C    4.441156   0.548166   0.340921   0.002813  -0.023527  -0.025611
     2  O    0.548166   8.085668  -0.062408   0.004686   0.000456   0.001170
     3  C    0.340921  -0.062408   5.316926   0.537469  -0.042415  -0.001522
     4  C    0.002813   0.004686   0.537469   4.836698   0.381725  -0.042232
     5  C   -0.023527   0.000456  -0.042415   0.381725   5.103303   0.342190
     6  C   -0.025611   0.001170  -0.001522  -0.042232   0.342190   5.152151
     7  C    0.346198  -0.080575  -0.143222   0.002914  -0.037472   0.296338
     8  C    0.003907  -0.000090  -0.034093   0.360608  -0.070818   0.005689
     9  C   -0.000145   0.000001   0.001182  -0.035446  -0.011500  -0.000277
    10  C   -0.000020   0.000000   0.000596  -0.014325  -0.041011   0.004266
    11  C   -0.000198   0.000003   0.001810  -0.034081   0.366837  -0.048750
    12  C   -0.000000   0.000000  -0.000000   0.000131   0.004178  -0.000142
    13  C   -0.000000   0.000000   0.000000   0.000001   0.000086  -0.000004
    14  C    0.000000   0.000000   0.000001  -0.000100   0.004078   0.000134
    15  C   -0.000004  -0.000000  -0.000094   0.004477  -0.045848  -0.004850
    16  C   -0.000000  -0.000000   0.000000  -0.000001  -0.000116   0.000001
    17  C    0.000000  -0.000000  -0.000000   0.000000   0.000002  -0.000000
    18  C    0.000000   0.000000  -0.000000  -0.000000   0.000005  -0.000000
    19  C   -0.000000   0.000000  -0.000000  -0.000000   0.000047   0.000000
    20  O   -0.000000   0.000000   0.000000   0.000000  -0.000000   0.000000
    21  H   -0.029643   0.000617   0.358095  -0.042496   0.004793  -0.000337
    22  H    0.000815  -0.000001  -0.001517  -0.045490   0.364233  -0.033236
    23  H   -0.002813   0.000288   0.004013  -0.004681  -0.042841   0.387230
    24  H    0.003683  -0.000081  -0.000392   0.004442  -0.028143   0.378069
    25  H   -0.031494   0.000705   0.004576  -0.003999  -0.002445  -0.040432
    26  H   -0.028009   0.004541   0.006672  -0.000150   0.004178  -0.029453
    27  H    0.000244  -0.000001  -0.002702  -0.039878   0.004474  -0.000146
    28  H   -0.000089   0.000001  -0.004962  -0.041662  -0.000837   0.000145
    29  H   -0.000004  -0.000000   0.000080  -0.002922   0.000063   0.000012
    30  H    0.000002  -0.000000  -0.000068   0.004351  -0.000009   0.000011
    31  H    0.000002  -0.000000  -0.000131  -0.003068  -0.001824   0.000085
    32  H    0.000056  -0.000001   0.000355  -0.002932  -0.043208  -0.005090
    33  H    0.000000   0.000000  -0.000003  -0.000082   0.000240  -0.000002
    34  H    0.000000   0.000000  -0.000000   0.000002   0.000076  -0.000032
    35  H    0.000000  -0.000000  -0.000000   0.000002  -0.000111   0.000002
    36  H    0.000001  -0.000000  -0.000004   0.000120  -0.002868  -0.001405
    37  H   -0.000013  -0.000000   0.000015  -0.000077  -0.007949   0.004048
    38  H    0.000000  -0.000000   0.000000  -0.000001   0.000001  -0.000000
    39  H    0.000000   0.000000  -0.000000  -0.000001   0.000002   0.000000
    40  H    0.000000   0.000000   0.000000   0.000000  -0.000000   0.000000
    41  H    0.000000  -0.000000   0.000000  -0.000000  -0.000000   0.000000
    42  H    0.000000  -0.000000   0.000000   0.000000  -0.000000   0.000000
    43  H   -0.000000   0.000000   0.000000   0.000000  -0.000002  -0.000000
    44  H    0.000000  -0.000000  -0.000000   0.000000  -0.000002  -0.000000
    45  H    0.000000  -0.000000  -0.000000   0.000001   0.000034   0.000003
    46  H   -0.000000  -0.000000   0.000000   0.000000  -0.000000   0.000000
               7          8          9         10         11         12
     1  C    0.346198   0.003907  -0.000145  -0.000020  -0.000198  -0.000000
     2  O   -0.080575  -0.000090   0.000001   0.000000   0.000003   0.000000
     3  C   -0.143222  -0.034093   0.001182   0.000596   0.001810  -0.000000
     4  C    0.002914   0.360608  -0.035446  -0.014325  -0.034081   0.000131
     5  C   -0.037472  -0.070818  -0.011500  -0.041011   0.366837   0.004178
     6  C    0.296338   0.005689  -0.000277   0.004266  -0.048750  -0.000142
     7  C    5.351977  -0.000285   0.000045  -0.000103   0.004697   0.000002
     8  C   -0.000285   5.157383   0.336299  -0.043748  -0.014894   0.004145
     9  C    0.000045   0.336299   5.100192   0.371425  -0.045152  -0.044886
    10  C   -0.000103  -0.043748   0.371425   5.016501   0.374218   0.365102
    11  C    0.004697  -0.014894  -0.045152   0.374218   5.043740  -0.039009
    12  C    0.000002   0.004145  -0.044886   0.365102  -0.039009   5.112430
    13  C    0.000000  -0.000132   0.004427  -0.026197  -0.013523   0.349841
    14  C   -0.000003  -0.000011  -0.000022  -0.012172  -0.039117  -0.050637
    15  C    0.000340   0.000257   0.004625  -0.041599   0.369976  -0.018505
    16  C   -0.000000   0.000087  -0.004047  -0.034072   0.004441   0.360168
    17  C    0.000000  -0.000001   0.000105   0.004323  -0.000176  -0.062118
    18  C   -0.000000   0.000002  -0.000119   0.004135   0.000114  -0.063525
    19  C    0.000000  -0.000000   0.000124  -0.006194  -0.001907  -0.058764
    20  O    0.000000  -0.000000   0.000000  -0.000069  -0.000003   0.003850
    21  H    0.006556  -0.008405   0.000179  -0.000003  -0.000093  -0.000000
    22  H   -0.004343  -0.000344  -0.000760  -0.004997  -0.039904   0.000041
    23  H   -0.044123  -0.000069  -0.000034   0.000212  -0.002873  -0.000003
    24  H   -0.031560  -0.000125  -0.000007  -0.000097  -0.007698  -0.000002
    25  H    0.366268  -0.000119  -0.000002   0.000003   0.000126   0.000000
    26  H    0.366479   0.000008   0.000000   0.000002  -0.000064  -0.000000
    27  H    0.000012   0.379743  -0.031486   0.004125  -0.000099  -0.000112
    28  H   -0.000073   0.378301  -0.040802  -0.004421  -0.000779  -0.000011
    29  H   -0.000004  -0.037609   0.381235  -0.040089  -0.006826  -0.004561
    30  H   -0.000000  -0.032325   0.379098  -0.031423   0.004880  -0.006931
    31  H   -0.000006   0.000004  -0.046077   0.380025  -0.047552  -0.040103
    32  H   -0.000170  -0.000169  -0.005056  -0.045494   0.377929  -0.004960
    33  H    0.000000   0.000063  -0.005952  -0.045283  -0.007371   0.383344
    34  H   -0.000000  -0.000000  -0.000025  -0.000425  -0.004746  -0.006599
    35  H   -0.000000  -0.000000   0.000011  -0.000171   0.004303   0.006796
    36  H   -0.000054  -0.000017   0.000029  -0.004713  -0.043562  -0.000662
    37  H    0.000098  -0.000010  -0.000134   0.004428  -0.032328   0.000125
    38  H   -0.000000  -0.000006   0.001718  -0.001784  -0.000082  -0.027802
    39  H   -0.000000  -0.000028  -0.000818  -0.003949   0.000078  -0.038896
    40  H   -0.000000  -0.000000  -0.000006  -0.000071   0.000004   0.001481
    41  H   -0.000000  -0.000000   0.000002  -0.000137   0.000002   0.003590
    42  H   -0.000000  -0.000000   0.000008  -0.000254  -0.000010  -0.002159
    43  H    0.000000   0.000000  -0.000024  -0.000048   0.000030  -0.005166
    44  H    0.000000  -0.000000   0.000001  -0.000009   0.000050   0.006007
    45  H   -0.000000   0.000009  -0.000052   0.001503  -0.000279  -0.005408
    46  H    0.000000   0.000000   0.000000  -0.000004   0.000001   0.000339
              13         14         15         16         17         18
     1  C   -0.000000   0.000000  -0.000004  -0.000000   0.000000   0.000000
     2  O    0.000000   0.000000  -0.000000  -0.000000  -0.000000   0.000000
     3  C    0.000000   0.000001  -0.000094   0.000000  -0.000000  -0.000000
     4  C    0.000001  -0.000100   0.004477  -0.000001   0.000000  -0.000000
     5  C    0.000086   0.004078  -0.045848  -0.000116   0.000002   0.000005
     6  C   -0.000004   0.000134  -0.004850   0.000001  -0.000000  -0.000000
     7  C    0.000000  -0.000003   0.000340  -0.000000   0.000000  -0.000000
     8  C   -0.000132  -0.000011   0.000257   0.000087  -0.000001   0.000002
     9  C    0.004427  -0.000022   0.004625  -0.004047   0.000105  -0.000119
    10  C   -0.026197  -0.012172  -0.041599  -0.034072   0.004323   0.004135
    11  C   -0.013523  -0.039117   0.369976   0.004441  -0.000176   0.000114
    12  C    0.349841  -0.050637  -0.018505   0.360168  -0.062118  -0.063525
    13  C    5.121172   0.374920  -0.037317  -0.061642  -0.064061   0.369142
    14  C    0.374920   5.121931   0.356332   0.006356   0.006929  -0.045052
    15  C   -0.037317   0.356332   5.093671   0.000188  -0.000249   0.004468
    16  C   -0.061642   0.006356   0.000188   5.110541   0.342941  -0.063678
    17  C   -0.064061   0.006929  -0.000249   0.342941   5.172313   0.357869
    18  C    0.369142  -0.045052   0.004468  -0.063678   0.357869   4.811271
    19  C    0.346316  -0.069623  -0.004582  -0.003131  -0.011364  -0.056188
    20  O   -0.051371  -0.000268   0.000017   0.002245  -0.045804   0.250032
    21  H   -0.000000  -0.000000   0.000002   0.000000  -0.000000  -0.000000
    22  H   -0.000026   0.000054  -0.006415   0.000000   0.000000  -0.000000
    23  H   -0.000002  -0.000064  -0.002170   0.000000  -0.000000  -0.000000
    24  H   -0.000003   0.000045   0.002397  -0.000000   0.000000   0.000000
    25  H   -0.000000  -0.000000  -0.000031   0.000000   0.000000  -0.000000
    26  H   -0.000000  -0.000000  -0.000002   0.000000  -0.000000  -0.000000
    27  H    0.000001  -0.000000   0.000009  -0.000001  -0.000000  -0.000000
    28  H    0.000004   0.000001  -0.000012  -0.000009  -0.000000  -0.000000
    29  H    0.000059  -0.000013   0.000059  -0.000711  -0.000026  -0.000006
    30  H   -0.000017  -0.000005  -0.000137   0.003843   0.000007  -0.000007
    31  H   -0.008336   0.000280  -0.003900  -0.003303  -0.000021   0.000055
    32  H   -0.001447  -0.001406  -0.045091   0.000005   0.000002  -0.000079
    33  H   -0.054302  -0.006617  -0.001110  -0.045027  -0.002315  -0.002125
    34  H   -0.038183   0.378092  -0.038013   0.000017   0.000094  -0.005778
    35  H   -0.037325   0.370330  -0.033240  -0.000241  -0.000018  -0.003591
    36  H   -0.007800  -0.035420   0.381017  -0.000022   0.000001  -0.000027
    37  H    0.004807  -0.034825   0.381318   0.000010   0.000003  -0.000086
    38  H    0.005735  -0.000158  -0.000005   0.379566  -0.029710   0.002739
    39  H   -0.005583   0.000003  -0.000021   0.386098  -0.033329   0.002030
    40  H    0.003986  -0.000152   0.000004  -0.032247   0.379225  -0.027496
    41  H   -0.002977  -0.000131   0.000004  -0.026233   0.372232  -0.031789
    42  H   -0.068084  -0.009929   0.000106   0.003620  -0.050788   0.389347
    43  H   -0.031109   0.005120   0.000051   0.002312   0.003920  -0.005960
    44  H   -0.030294  -0.005736  -0.000289  -0.000224   0.000039  -0.007515
    45  H   -0.033889  -0.005209   0.001462  -0.000169  -0.000305   0.005384
    46  H   -0.004975   0.002445  -0.000080  -0.000337   0.007237  -0.028633
              19         20         21         22         23         24
     1  C   -0.000000  -0.000000  -0.029643   0.000815  -0.002813   0.003683
     2  O    0.000000   0.000000   0.000617  -0.000001   0.000288  -0.000081
     3  C   -0.000000   0.000000   0.358095  -0.001517   0.004013  -0.000392
     4  C   -0.000000   0.000000  -0.042496  -0.045490  -0.004681   0.004442
     5  C    0.000047  -0.000000   0.004793   0.364233  -0.042841  -0.028143
     6  C    0.000000   0.000000  -0.000337  -0.033236   0.387230   0.378069
     7  C    0.000000   0.000000   0.006556  -0.004343  -0.044123  -0.031560
     8  C   -0.000000  -0.000000  -0.008405  -0.000344  -0.000069  -0.000125
     9  C    0.000124   0.000000   0.000179  -0.000760  -0.000034  -0.000007
    10  C   -0.006194  -0.000069  -0.000003  -0.004997   0.000212  -0.000097
    11  C   -0.001907  -0.000003  -0.000093  -0.039904  -0.002873  -0.007698
    12  C   -0.058764   0.003850  -0.000000   0.000041  -0.000003  -0.000002
    13  C    0.346316  -0.051371  -0.000000  -0.000026  -0.000002  -0.000003
    14  C   -0.069623  -0.000268  -0.000000   0.000054  -0.000064   0.000045
    15  C   -0.004582   0.000017   0.000002  -0.006415  -0.002170   0.002397
    16  C   -0.003131   0.002245   0.000000   0.000000   0.000000  -0.000000
    17  C   -0.011364  -0.045804  -0.000000   0.000000  -0.000000   0.000000
    18  C   -0.056188   0.250032  -0.000000  -0.000000  -0.000000   0.000000
    19  C    5.204794   0.003173   0.000000  -0.000038  -0.000000  -0.000001
    20  O    0.003173   8.276101   0.000000  -0.000000  -0.000000   0.000000
    21  H    0.000000   0.000000   0.532918  -0.000196  -0.000070   0.000014
    22  H   -0.000038  -0.000000  -0.000196   0.588992   0.005199  -0.004054
    23  H   -0.000000  -0.000000  -0.000070   0.005199   0.553348  -0.030152
    24  H   -0.000001   0.000000   0.000014  -0.004054  -0.030152   0.549070
    25  H   -0.000000  -0.000000  -0.000184   0.004464   0.005278  -0.004506
    26  H    0.000000  -0.000000  -0.000116  -0.000175  -0.002361  -0.003353
    27  H    0.000000   0.000000   0.005514  -0.000102   0.000003   0.000002
    28  H   -0.000003   0.000000   0.000260   0.002683   0.000001   0.000010
    29  H   -0.000003   0.000000   0.000007   0.000111  -0.000006   0.000001
    30  H   -0.000003  -0.000000  -0.000009  -0.000022  -0.000000   0.000000
    31  H    0.002295  -0.000001  -0.000001   0.004940   0.000006   0.000000
    32  H    0.000044   0.000000  -0.000022   0.005901   0.005585   0.000125
    33  H    0.006656   0.000057  -0.000000   0.000000  -0.000004  -0.000000
    34  H    0.006190  -0.000078  -0.000000   0.000003   0.000007   0.000011
    35  H   -0.006462   0.001361   0.000000  -0.000001   0.000001   0.000004
    36  H    0.002863  -0.000003  -0.000000   0.004903   0.000169   0.000883
    37  H    0.000039   0.000001   0.000000   0.000037   0.001192   0.000746
    38  H    0.000138  -0.000038  -0.000000   0.000000   0.000000  -0.000000
    39  H    0.002056  -0.000004   0.000000  -0.000001  -0.000000  -0.000000
    40  H    0.000193   0.001827   0.000000  -0.000000   0.000000  -0.000000
    41  H    0.001506   0.003027   0.000000   0.000000   0.000000   0.000000
    42  H    0.007713  -0.041838   0.000000  -0.000000   0.000000   0.000000
    43  H    0.381562  -0.000010   0.000000   0.000001   0.000000   0.000000
    44  H    0.374487   0.007681   0.000000   0.000001   0.000000   0.000000
    45  H    0.375231   0.000426  -0.000000  -0.000028  -0.000000  -0.000001
    46  H   -0.001452   0.243245   0.000000   0.000000   0.000000   0.000000
              25         26         27         28         29         30
     1  C   -0.031494  -0.028009   0.000244  -0.000089  -0.000004   0.000002
     2  O    0.000705   0.004541  -0.000001   0.000001  -0.000000  -0.000000
     3  C    0.004576   0.006672  -0.002702  -0.004962   0.000080  -0.000068
     4  C   -0.003999  -0.000150  -0.039878  -0.041662  -0.002922   0.004351
     5  C   -0.002445   0.004178   0.004474  -0.000837   0.000063  -0.000009
     6  C   -0.040432  -0.029453  -0.000146   0.000145   0.000012   0.000011
     7  C    0.366268   0.366479   0.000012  -0.000073  -0.000004  -0.000000
     8  C   -0.000119   0.000008   0.379743   0.378301  -0.037609  -0.032325
     9  C   -0.000002   0.000000  -0.031486  -0.040802   0.381235   0.379098
    10  C    0.000003   0.000002   0.004125  -0.004421  -0.040089  -0.031423
    11  C    0.000126  -0.000064  -0.000099  -0.000779  -0.006826   0.004880
    12  C    0.000000  -0.000000  -0.000112  -0.000011  -0.004561  -0.006931
    13  C   -0.000000  -0.000000   0.000001   0.000004   0.000059  -0.000017
    14  C   -0.000000  -0.000000  -0.000000   0.000001  -0.000013  -0.000005
    15  C   -0.000031  -0.000002   0.000009  -0.000012   0.000059  -0.000137
    16  C    0.000000   0.000000  -0.000001  -0.000009  -0.000711   0.003843
    17  C    0.000000  -0.000000  -0.000000  -0.000000  -0.000026   0.000007
    18  C   -0.000000  -0.000000  -0.000000  -0.000000  -0.000006  -0.000007
    19  C   -0.000000   0.000000   0.000000  -0.000003  -0.000003  -0.000003
    20  O   -0.000000  -0.000000   0.000000   0.000000   0.000000  -0.000000
    21  H   -0.000184  -0.000116   0.005514   0.000260   0.000007  -0.000009
    22  H    0.004464  -0.000175  -0.000102   0.002683   0.000111  -0.000022
    23  H    0.005278  -0.002361   0.000003   0.000001  -0.000006  -0.000000
    24  H   -0.004506  -0.003353   0.000002   0.000010   0.000001   0.000000
    25  H    0.545854  -0.021040   0.000001   0.000009  -0.000000  -0.000000
    26  H   -0.021040   0.513156  -0.000000  -0.000001  -0.000000   0.000000
    27  H    0.000001  -0.000000   0.532296  -0.026072  -0.003416  -0.001885
    28  H    0.000009  -0.000001  -0.026072   0.557770   0.005149  -0.004985
    29  H   -0.000000  -0.000000  -0.003416   0.005149   0.564716  -0.029889
    30  H   -0.000000   0.000000  -0.001885  -0.004985  -0.029889   0.550142
    31  H   -0.000001  -0.000000  -0.000019   0.004204   0.005549  -0.003421
    32  H    0.000012  -0.000004  -0.000038   0.000131   0.005034   0.000020
    33  H   -0.000000   0.000000   0.000003   0.000002   0.004794  -0.000029
    34  H    0.000000   0.000000  -0.000000  -0.000000  -0.000012   0.000001
    35  H    0.000000   0.000000   0.000000  -0.000000   0.000000  -0.000000
    36  H    0.000003   0.000000  -0.000000  -0.000003  -0.000000   0.000003
    37  H    0.000008   0.000002  -0.000000   0.000000  -0.000000   0.000002
    38  H    0.000000  -0.000000   0.000001   0.000003   0.000407   0.000269
    39  H   -0.000000   0.000000   0.000001  -0.000000   0.000088   0.000734
    40  H    0.000000   0.000000   0.000000   0.000000  -0.000000   0.000003
    41  H   -0.000000   0.000000   0.000000   0.000000   0.000000   0.000001
    42  H   -0.000000   0.000000   0.000000  -0.000000  -0.000002  -0.000000
    43  H    0.000000   0.000000  -0.000000   0.000000   0.000000  -0.000001
    44  H    0.000000  -0.000000   0.000000   0.000000   0.000000  -0.000000
    45  H    0.000000   0.000000  -0.000000  -0.000004  -0.000001   0.000002
    46  H   -0.000000   0.000000   0.000000   0.000000   0.000000  -0.000000
              31         32         33         34         35         36
     1  C    0.000002   0.000056   0.000000   0.000000   0.000000   0.000001
     2  O   -0.000000  -0.000001   0.000000   0.000000  -0.000000  -0.000000
     3  C   -0.000131   0.000355  -0.000003  -0.000000  -0.000000  -0.000004
     4  C   -0.003068  -0.002932  -0.000082   0.000002   0.000002   0.000120
     5  C   -0.001824  -0.043208   0.000240   0.000076  -0.000111  -0.002868
     6  C    0.000085  -0.005090  -0.000002  -0.000032   0.000002  -0.001405
     7  C   -0.000006  -0.000170   0.000000  -0.000000  -0.000000  -0.000054
     8  C    0.000004  -0.000169   0.000063  -0.000000  -0.000000  -0.000017
     9  C   -0.046077  -0.005056  -0.005952  -0.000025   0.000011   0.000029
    10  C    0.380025  -0.045494  -0.045283  -0.000425  -0.000171  -0.004713
    11  C   -0.047552   0.377929  -0.007371  -0.004746   0.004303  -0.043562
    12  C   -0.040103  -0.004960   0.383344  -0.006599   0.006796  -0.000662
    13  C   -0.008336  -0.001447  -0.054302  -0.038183  -0.037325  -0.007800
    14  C    0.000280  -0.001406  -0.006617   0.378092   0.370330  -0.035420
    15  C   -0.003900  -0.045091  -0.001110  -0.038013  -0.033240   0.381017
    16  C   -0.003303   0.000005  -0.045027   0.000017  -0.000241  -0.000022
    17  C   -0.000021   0.000002  -0.002315   0.000094  -0.000018   0.000001
    18  C    0.000055  -0.000079  -0.002125  -0.005778  -0.003591  -0.000027
    19  C    0.002295   0.000044   0.006656   0.006190  -0.006462   0.002863
    20  O   -0.000001   0.000000   0.000057  -0.000078   0.001361  -0.000003
    21  H   -0.000001  -0.000022  -0.000000  -0.000000   0.000000  -0.000000
    22  H    0.004940   0.005901   0.000000   0.000003  -0.000001   0.004903
    23  H    0.000006   0.005585  -0.000004   0.000007   0.000001   0.000169
    24  H    0.000000   0.000125  -0.000000   0.000011   0.000004   0.000883
    25  H   -0.000001   0.000012  -0.000000   0.000000   0.000000   0.000003
    26  H   -0.000000  -0.000004   0.000000   0.000000   0.000000   0.000000
    27  H   -0.000019  -0.000038   0.000003  -0.000000   0.000000  -0.000000
    28  H    0.004204   0.000131   0.000002  -0.000000  -0.000000  -0.000003
    29  H    0.005549   0.005034   0.004794  -0.000012   0.000000  -0.000000
    30  H   -0.003421   0.000020  -0.000029   0.000001  -0.000000   0.000003
    31  H    0.601882   0.005816   0.005868   0.000043  -0.000014   0.002423
    32  H    0.005816   0.600614   0.005652   0.003917  -0.000032   0.005543
    33  H    0.005868   0.005652   0.620092   0.005144   0.000017   0.000095
    34  H    0.000043   0.003917   0.005144   0.575598  -0.031680   0.005009
    35  H   -0.000014  -0.000032   0.000017  -0.031680   0.588859  -0.003477
    36  H    0.002423   0.005543   0.000095   0.005009  -0.003477   0.572143
    37  H   -0.000044  -0.004047  -0.000082  -0.004068  -0.002613  -0.030725
    38  H   -0.000125  -0.000003  -0.006553  -0.000002   0.000003   0.000000
    39  H    0.003526   0.000004   0.005344  -0.000007   0.000004  -0.000006
    40  H    0.000001  -0.000000   0.000608  -0.000017   0.000001   0.000000
    41  H   -0.000008  -0.000000  -0.000041   0.000000   0.000000  -0.000000
    42  H   -0.000012  -0.000014   0.005064   0.006439   0.000050  -0.000003
    43  H    0.000106   0.000002  -0.000056  -0.000147  -0.000022  -0.000047
    44  H   -0.000045   0.000002  -0.000117   0.000044   0.005124   0.000303
    45  H    0.003275  -0.000024  -0.000012  -0.000072  -0.000182   0.001955
    46  H    0.000000   0.000000  -0.000005  -0.000023   0.002676   0.000001
              37         38         39         40         41         42
     1  C   -0.000013   0.000000   0.000000   0.000000   0.000000   0.000000
     2  O   -0.000000  -0.000000   0.000000   0.000000  -0.000000  -0.000000
     3  C    0.000015   0.000000  -0.000000   0.000000   0.000000   0.000000
     4  C   -0.000077  -0.000001  -0.000001   0.000000  -0.000000   0.000000
     5  C   -0.007949   0.000001   0.000002  -0.000000  -0.000000  -0.000000
     6  C    0.004048  -0.000000   0.000000   0.000000   0.000000   0.000000
     7  C    0.000098  -0.000000  -0.000000  -0.000000  -0.000000  -0.000000
     8  C   -0.000010  -0.000006  -0.000028  -0.000000  -0.000000  -0.000000
     9  C   -0.000134   0.001718  -0.000818  -0.000006   0.000002   0.000008
    10  C    0.004428  -0.001784  -0.003949  -0.000071  -0.000137  -0.000254
    11  C   -0.032328  -0.000082   0.000078   0.000004   0.000002  -0.000010
    12  C    0.000125  -0.027802  -0.038896   0.001481   0.003590  -0.002159
    13  C    0.004807   0.005735  -0.005583   0.003986  -0.002977  -0.068084
    14  C   -0.034825  -0.000158   0.000003  -0.000152  -0.000131  -0.009929
    15  C    0.381318  -0.000005  -0.000021   0.000004   0.000004   0.000106
    16  C    0.000010   0.379566   0.386098  -0.032247  -0.026233   0.003620
    17  C    0.000003  -0.029710  -0.033329   0.379225   0.372232  -0.050788
    18  C   -0.000086   0.002739   0.002030  -0.027496  -0.031789   0.389347
    19  C    0.000039   0.000138   0.002056   0.000193   0.001506   0.007713
    20  O    0.000001  -0.000038  -0.000004   0.001827   0.003027  -0.041838
    21  H    0.000000  -0.000000   0.000000   0.000000   0.000000   0.000000
    22  H    0.000037   0.000000  -0.000001  -0.000000   0.000000  -0.000000
    23  H    0.001192   0.000000  -0.000000   0.000000   0.000000   0.000000
    24  H    0.000746  -0.000000  -0.000000  -0.000000   0.000000   0.000000
    25  H    0.000008   0.000000  -0.000000   0.000000  -0.000000  -0.000000
    26  H    0.000002  -0.000000   0.000000   0.000000   0.000000   0.000000
    27  H   -0.000000   0.000001   0.000001   0.000000   0.000000   0.000000
    28  H    0.000000   0.000003  -0.000000   0.000000   0.000000  -0.000000
    29  H   -0.000000   0.000407   0.000088  -0.000000   0.000000  -0.000002
    30  H    0.000002   0.000269   0.000734   0.000003   0.000001  -0.000000
    31  H   -0.000044  -0.000125   0.003526   0.000001  -0.000008  -0.000012
    32  H   -0.004047  -0.000003   0.000004  -0.000000  -0.000000  -0.000014
    33  H   -0.000082  -0.006553   0.005344   0.000608  -0.000041   0.005064
    34  H   -0.004068  -0.000002  -0.000007  -0.000017   0.000000   0.006439
    35  H   -0.002613   0.000003   0.000004   0.000001   0.000000   0.000050
    36  H   -0.030725   0.000000  -0.000006   0.000000  -0.000000  -0.000003
    37  H    0.553823  -0.000000  -0.000000  -0.000000  -0.000000  -0.000004
    38  H   -0.000000   0.550771  -0.032474  -0.007064   0.002432  -0.000127
    39  H   -0.000000  -0.032474   0.561210   0.003688  -0.008804  -0.000180
    40  H   -0.000000  -0.007064   0.003688   0.540154  -0.026131  -0.006993
    41  H   -0.000000   0.002432  -0.008804  -0.026131   0.525724   0.005053
    42  H   -0.000004  -0.000127  -0.000180  -0.006993   0.005053   0.638217
    43  H    0.000000   0.000030   0.000863  -0.000030   0.000662   0.000049
    44  H   -0.000030  -0.000002   0.000008  -0.000004   0.000088   0.000165
    45  H    0.000016  -0.000018   0.000142   0.000000   0.000041  -0.000071
    46  H    0.000002   0.000005   0.000004  -0.000223  -0.000085  -0.002389
              43         44         45         46
     1  C   -0.000000   0.000000   0.000000  -0.000000
     2  O    0.000000  -0.000000  -0.000000  -0.000000
     3  C    0.000000  -0.000000  -0.000000   0.000000
     4  C    0.000000   0.000000   0.000001   0.000000
     5  C   -0.000002  -0.000002   0.000034  -0.000000
     6  C   -0.000000  -0.000000   0.000003   0.000000
     7  C    0.000000   0.000000  -0.000000   0.000000
     8  C    0.000000  -0.000000   0.000009   0.000000
     9  C   -0.000024   0.000001  -0.000052   0.000000
    10  C   -0.000048  -0.000009   0.001503  -0.000004
    11  C    0.000030   0.000050  -0.000279   0.000001
    12  C   -0.005166   0.006007  -0.005408   0.000339
    13  C   -0.031109  -0.030294  -0.033889  -0.004975
    14  C    0.005120  -0.005736  -0.005209   0.002445
    15  C    0.000051  -0.000289   0.001462  -0.000080
    16  C    0.002312  -0.000224  -0.000169  -0.000337
    17  C    0.003920   0.000039  -0.000305   0.007237
    18  C   -0.005960  -0.007515   0.005384  -0.028633
    19  C    0.381562   0.374487   0.375231  -0.001452
    20  O   -0.000010   0.007681   0.000426   0.243245
    21  H    0.000000   0.000000  -0.000000   0.000000
    22  H    0.000001   0.000001  -0.000028   0.000000
    23  H    0.000000   0.000000  -0.000000   0.000000
    24  H    0.000000   0.000000  -0.000001   0.000000
    25  H    0.000000   0.000000   0.000000  -0.000000
    26  H    0.000000  -0.000000   0.000000   0.000000
    27  H   -0.000000   0.000000  -0.000000   0.000000
    28  H    0.000000   0.000000  -0.000004   0.000000
    29  H    0.000000   0.000000  -0.000001   0.000000
    30  H   -0.000001  -0.000000   0.000002  -0.000000
    31  H    0.000106  -0.000045   0.003275   0.000000
    32  H    0.000002   0.000002  -0.000024   0.000000
    33  H   -0.000056  -0.000117  -0.000012  -0.000005
    34  H   -0.000147   0.000044  -0.000072  -0.000023
    35  H   -0.000022   0.005124  -0.000182   0.002676
    36  H   -0.000047   0.000303   0.001955   0.000001
    37  H    0.000000  -0.000030   0.000016   0.000002
    38  H    0.000030  -0.000002  -0.000018   0.000005
    39  H    0.000863   0.000008   0.000142   0.000004
    40  H   -0.000030  -0.000004   0.000000  -0.000223
    41  H    0.000662   0.000088   0.000041  -0.000085
    42  H    0.000049   0.000165  -0.000071  -0.002389
    43  H    0.526440  -0.024983  -0.027732   0.000091
    44  H   -0.024983   0.542753  -0.028017   0.001574
    45  H   -0.027732  -0.028017   0.552941  -0.000107
    46  H    0.000091   0.001574  -0.000107   0.374019
 Mulliken charges:
               1
     1  C    0.453608
     2  O   -0.503146
     3  C   -0.279177
     4  C    0.173184
     5  C   -0.178054
     6  C   -0.338024
     7  C   -0.399932
     8  C   -0.383205
     9  C   -0.307879
    10  C   -0.127981
    11  C   -0.122162
    12  C   -0.120610
    13  C   -0.001899
    14  C   -0.310383
    15  C   -0.317218
    16  C   -0.327227
    17  C   -0.346957
    18  C    0.145059
    19  C   -0.495712
    20  O   -0.653556
    21  H    0.172622
    22  H    0.159274
    23  H    0.169738
    24  H    0.170674
    25  H    0.176948
    26  H    0.189690
    27  H    0.179526
    28  H    0.176053
    29  H    0.158737
    30  H    0.167799
    31  H    0.137623
    32  H    0.142539
    33  H    0.134048
    34  H    0.149220
    35  H    0.139634
    36  H    0.153351
    37  H    0.166316
    38  H    0.162134
    39  H    0.158219
    40  H    0.169259
    41  H    0.181971
    42  H    0.127026
    43  H    0.174098
    44  H    0.158941
    45  H    0.159157
    46  H    0.406673
 Sum of Mulliken charges =  -0.00000
 Mulliken charges with hydrogens summed into heavy atoms:
               1
     1  C    0.453608
     2  O   -0.503146
     3  C   -0.106554
     4  C    0.173184
     5  C   -0.018780
     6  C    0.002388
     7  C   -0.033294
     8  C   -0.027625
     9  C    0.018656
    10  C    0.009641
    11  C    0.020377
    12  C    0.013438
    13  C   -0.001899
    14  C   -0.021529
    15  C    0.002449
    16  C   -0.006874
    17  C    0.004273
    18  C    0.272085
    19  C   -0.003516
    20  O   -0.246883
 Electronic spatial extent (au):  <R**2>=           6801.8716
 Charge=             -0.0000 electrons
 Dipole moment (field-independent basis, Debye):
    X=             -3.1906    Y=             -0.2546    Z=              1.3877  Tot=              3.4886
 Quadrupole moment (field-independent basis, Debye-Ang):
   XX=           -168.8035   YY=           -112.2172   ZZ=           -119.9541
   XY=              2.0083   XZ=              9.5439   YZ=              0.3797
 Traceless Quadrupole moment (field-independent basis, Debye-Ang):
   XX=            -35.1452   YY=             21.4411   ZZ=             13.7041
   XY=              2.0083   XZ=              9.5439   YZ=              0.3797
 Octapole moment (field-independent basis, Debye-Ang**2):
  XXX=           -157.2264  YYY=            -13.5765  ZZZ=             -3.1975  XYY=             -8.4855
  XXY=             -1.0672  XXZ=             48.5616  XZZ=             -8.4983  YZZ=             -0.9514
  YYZ=             -3.2107  XYZ=             -2.9671
 Hexadecapole moment (field-independent basis, Debye-Ang**3):
 XXXX=          -9146.9105 YYYY=          -1373.3576 ZZZZ=           -441.0372 XXXY=             34.4090
 XXXZ=            274.9033 YYYX=             85.7093 YYYZ=              2.7522 ZZZX=              9.6094
 ZZZY=              4.7820 XXYY=          -1269.4425 XXZZ=          -1269.3867 YYZZ=           -310.2397
 XXYZ=             -4.9233 YYXZ=              0.1938 ZZXY=             -3.7479
 N-N= 1.672571940834D+03 E-N=-5.322346539585D+03  KE= 8.443681173505D+02

 **********************************************************************

            Electrostatic Properties Using The SCF Density.

 **********************************************************************

       Atomic Center    1 is at   4.634715 -0.150529 -0.285751
       Atomic Center    2 is at   5.754138 -0.156431 -0.811306
       Atomic Center    3 is at   3.789438  0.997163 -0.179852
       Atomic Center    4 is at   2.499723  0.923122  0.224555
       Atomic Center    5 is at   1.807099 -0.383495  0.467967
       Atomic Center    6 is at   2.633818 -1.574963 -0.024284
       Atomic Center    7 is at   4.097160 -1.404132  0.347569
       Atomic Center    8 is at   1.712882  2.144817  0.510742
       Atomic Center    9 is at   0.293629  2.104233 -0.054364
       Atomic Center   10 is at  -0.420197  0.811862  0.331972
       Atomic Center   11 is at   0.398386 -0.391971 -0.160780
       Atomic Center   12 is at  -1.800385  0.728326 -0.310297
       Atomic Center   13 is at  -2.551722 -0.562746  0.040073
       Atomic Center   14 is at  -1.734933 -1.744417 -0.470522
       Atomic Center   15 is at  -0.325180 -1.715167  0.122574
       Atomic Center   16 is at  -2.829728  1.820477 -0.024209
       Atomic Center   17 is at  -4.163854  1.182080 -0.457724
       Atomic Center   18 is at  -3.872610 -0.310661 -0.719380
       Atomic Center   19 is at  -2.852975 -0.718375  1.531702
       Atomic Center   20 is at  -4.966148 -1.103669 -0.318002
       Atomic Center   21 is at   4.241795  1.957634 -0.389119
       Atomic Center   22 is at   1.698547 -0.455262  1.557897
       Atomic Center   23 is at   2.544113 -1.658664 -1.111689
       Atomic Center   24 is at   2.259062 -2.497327  0.420141
       Atomic Center   25 is at   4.181091 -1.276820  1.430996
       Atomic Center   26 is at   4.700360 -2.259397  0.034245
       Atomic Center   27 is at   2.234883  3.033674  0.154083
       Atomic Center   28 is at   1.657005  2.227926  1.607359
       Atomic Center   29 is at   0.337691  2.179596 -1.145542
       Atomic Center   30 is at  -0.262224  2.964985  0.317554
       Atomic Center   31 is at  -0.501613  0.769787  1.419094
       Atomic Center   32 is at   0.516442 -0.297227 -1.248999
       Atomic Center   33 is at  -1.647624  0.709394 -1.398200
       Atomic Center   34 is at  -1.662518 -1.682926 -1.560152
       Atomic Center   35 is at  -2.221718 -2.689931 -0.221271
       Atomic Center   36 is at  -0.368714 -1.868535  1.200341
       Atomic Center   37 is at   0.235712 -2.543357 -0.312304
       Atomic Center   38 is at  -2.621853  2.725073 -0.588314
       Atomic Center   39 is at  -2.830192  2.080716  1.033452
       Atomic Center   40 is at  -4.547482  1.655526 -1.358576
       Atomic Center   41 is at  -4.928028  1.258149  0.314333
       Atomic Center   42 is at  -3.692473 -0.464992 -1.797021
       Atomic Center   43 is at  -3.504679  0.077089  1.875992
       Atomic Center   44 is at  -3.366795 -1.662948  1.696611
       Atomic Center   45 is at  -1.946419 -0.705238  2.126031
       Atomic Center   46 is at  -4.699880 -2.029863 -0.362421
 -----------------------------------------------------------------

              Electrostatic Properties (Atomic Units)

 -----------------------------------------------------------------
    Center     Electric         -------- Electric Field --------
               Potential          X             Y             Z
 -----------------------------------------------------------------
    1 Atom    -14.674647      0.001860     -0.004963     -0.000453
    2 Atom    -22.350914      0.096280     -0.001337     -0.045343
    3 Atom    -14.748108     -0.008941      0.000987      0.002754
    4 Atom    -14.712183      0.011672      0.000037     -0.003810
    5 Atom    -14.720757     -0.001892     -0.003919     -0.002940
    6 Atom    -14.732852     -0.000195     -0.000580      0.000734
    7 Atom    -14.744958      0.002255     -0.000870     -0.003311
    8 Atom    -14.727829     -0.001617      0.002734     -0.001047
    9 Atom    -14.733634     -0.002289     -0.002071      0.000180
   10 Atom    -14.732103     -0.000629      0.000098     -0.003956
   11 Atom    -14.726720     -0.002204      0.000674      0.001989
   12 Atom    -14.739291     -0.000998     -0.001309      0.004124
   13 Atom    -14.736063     -0.001032      0.001580     -0.003259
   14 Atom    -14.738471     -0.001397      0.004350      0.001455
   15 Atom    -14.736701      0.000144      0.000408     -0.001412
   16 Atom    -14.743140      0.001559     -0.000455     -0.000521
   17 Atom    -14.747544     -0.002527     -0.001300      0.000534
   18 Atom    -14.693476      0.020438      0.012655     -0.004241
   19 Atom    -14.751034     -0.000668      0.000476     -0.002232
   20 Atom    -22.313222     -0.102465      0.044107      0.031657
   21 Atom     -1.106298      0.015881      0.032446     -0.007934
   22 Atom     -1.103108     -0.005967     -0.006375      0.034753
   23 Atom     -1.116620     -0.003617     -0.004905     -0.032107
   24 Atom     -1.117408     -0.011860     -0.028251      0.010510
   25 Atom     -1.108186      0.005339     -0.001324      0.034107
   26 Atom     -1.121301      0.020392     -0.020865     -0.008106
   27 Atom     -1.110815      0.016544      0.026828     -0.009233
   28 Atom     -1.101648     -0.002246      0.006617      0.030249
   29 Atom     -1.117224     -0.000157      0.004699     -0.032289
   30 Atom     -1.117728     -0.018026      0.027164      0.008753
   31 Atom     -1.116788     -0.005053     -0.001030      0.036311
   32 Atom     -1.117054      0.004150      0.003047     -0.032472
   33 Atom     -1.123257      0.005428      0.000245     -0.032745
   34 Atom     -1.119550      0.000785     -0.000779     -0.033505
   35 Atom     -1.118067     -0.012830     -0.031074      0.006208
   36 Atom     -1.117825     -0.000327     -0.009278      0.034270
   37 Atom     -1.120433      0.017544     -0.025233     -0.009906
   38 Atom     -1.126886      0.006479      0.030661     -0.016037
   39 Atom     -1.125072     -0.000863      0.009707      0.032774
   40 Atom     -1.129356     -0.015359      0.014810     -0.026093
   41 Atom     -1.127853     -0.025474      0.001174      0.021580
   42 Atom     -1.131713      0.004894     -0.004433     -0.030056
   43 Atom     -1.122438     -0.022924      0.022901      0.015023
   44 Atom     -1.121441     -0.017668     -0.026998      0.009516
   45 Atom     -1.119369      0.027104     -0.000444      0.022844
   46 Atom     -0.996776      0.008259     -0.044780     -0.002343
 -----------------------------------------------------------------
 -----------------------------------------------------
    Center         ---- Electric Field Gradient ----
                     XX            YY            ZZ
 -----------------------------------------------------
    1 Atom     -493.463239   -493.309101   -493.883452
    2 Atom    -1217.162456  -1214.650703  -1217.395142
    3 Atom     -493.147252   -493.186577   -493.408965
    4 Atom     -493.240761   -493.284111   -493.814694
    5 Atom     -492.766089   -492.804326   -492.788959
    6 Atom     -492.655495   -492.623855   -492.611801
    7 Atom     -492.746597   -492.748181   -492.752803
    8 Atom     -492.599035   -492.629312   -492.619137
    9 Atom     -492.689696   -492.634447   -492.644308
   10 Atom     -492.782658   -492.801181   -492.789967
   11 Atom     -492.867864   -492.824542   -492.838376
   12 Atom     -492.932167   -492.945898   -492.942927
   13 Atom     -492.967790   -492.970144   -493.004488
   14 Atom     -492.736449   -492.713540   -492.721175
   15 Atom     -492.663983   -492.654057   -492.638372
   16 Atom     -492.673485   -492.618675   -492.604914
   17 Atom     -492.657599   -492.696055   -492.619263
   18 Atom     -492.883425   -492.781894   -492.666933
   19 Atom     -492.566418   -492.572183   -492.615412
   20 Atom    -1214.459813  -1215.824115  -1212.779342
   21 Atom       -1.691595     -1.978895     -1.615228
   22 Atom       -1.628061     -1.629193     -2.041224
   23 Atom       -1.629193     -1.623732     -2.049171
   24 Atom       -1.688407     -1.949815     -1.703790
   25 Atom       -1.610820     -1.614493     -2.037067
   26 Atom       -1.740403     -1.878547     -1.643175
   27 Atom       -1.730362     -1.918723     -1.668715
   28 Atom       -1.607707     -1.611221     -2.021818
   29 Atom       -1.627799     -1.627156     -2.054977
   30 Atom       -1.748229     -1.908791     -1.680979
   31 Atom       -1.645857     -1.644657     -2.078661
   32 Atom       -1.643028     -1.640074     -2.044900
   33 Atom       -1.660693     -1.646336     -2.054395
   34 Atom       -1.633453     -1.631323     -2.061949
   35 Atom       -1.728029     -1.965889     -1.655370
   36 Atom       -1.634691     -1.641305     -2.069783
   37 Atom       -1.755158     -1.889416     -1.701329
   38 Atom       -1.654027     -1.953974     -1.760256
   39 Atom       -1.632634     -1.656232     -2.055540
   40 Atom       -1.688674     -1.721514     -1.944897
   41 Atom       -1.833503     -1.616994     -1.842976
   42 Atom       -1.686311     -1.682352     -2.055416
   43 Atom       -1.777256     -1.865288     -1.666721
   44 Atom       -1.708597     -1.958764     -1.628165
   45 Atom       -1.951052     -1.619799     -1.763805
   46 Atom       -1.513887     -2.078997     -1.422790
 -----------------------------------------------------
 -----------------------------------------------------
    Center         ---- Electric Field Gradient ----
                     XY            XZ            YZ
 -----------------------------------------------------
    1 Atom       -0.084215     -0.246411     -0.168050
    2 Atom       -0.256466     -0.138943     -0.713642
    3 Atom       -0.013140     -0.086765     -0.020090
    4 Atom       -0.001509     -0.168189     -0.000728
    5 Atom       -0.016603     -0.011699     -0.002395
    6 Atom        0.017636     -0.000146     -0.025660
    7 Atom       -0.009636     -0.040594      0.001903
    8 Atom        0.022519     -0.020773     -0.012534
    9 Atom       -0.006862     -0.022777      0.017664
   10 Atom       -0.002424      0.005464     -0.002867
   11 Atom       -0.010392     -0.019317     -0.006653
   12 Atom        0.011665     -0.013969      0.004642
   13 Atom        0.003719      0.010441      0.001930
   14 Atom       -0.015146     -0.011269     -0.011596
   15 Atom       -0.021863     -0.010858      0.016014
   16 Atom       -0.002917     -0.010735     -0.015049
   17 Atom       -0.013561     -0.022428     -0.035386
   18 Atom       -0.196404      0.098554      0.093436
   19 Atom       -0.006427      0.004466      0.010674
   20 Atom       -0.418593      0.665806      0.316360
   21 Atom       -0.166002      0.041041      0.078924
   22 Atom       -0.002750      0.044418      0.029672
   23 Atom       -0.001246     -0.036879     -0.033959
   24 Atom       -0.128863      0.062263      0.152334
   25 Atom       -0.005028     -0.032536     -0.047898
   26 Atom        0.187816      0.066816     -0.098204
   27 Atom       -0.170072      0.070258      0.118166
   28 Atom        0.004531      0.022909     -0.032375
   29 Atom       -0.003622      0.016046      0.029500
   30 Atom        0.178093      0.076430     -0.120700
   31 Atom       -0.002927      0.032847      0.017941
   32 Atom       -0.003702      0.043980      0.036479
   33 Atom        0.000959      0.057463     -0.007529
   34 Atom       -0.000419      0.027887      0.024532
   35 Atom       -0.171064      0.045211      0.087316
   36 Atom       -0.004445      0.016790      0.062215
   37 Atom        0.172148      0.089611     -0.133558
   38 Atom       -0.073770      0.044502      0.198054
   39 Atom       -0.000351      0.001354     -0.103670
   40 Atom        0.068436     -0.132881      0.163051
   41 Atom        0.023888      0.222249     -0.025140
   42 Atom        0.003533      0.068134     -0.055446
   43 Atom        0.206050      0.089693     -0.106333
   44 Atom       -0.188765      0.033851      0.058022
   45 Atom       -0.004629     -0.212180     -0.002683
   46 Atom        0.171744      0.024731     -0.026690
 -----------------------------------------------------
 -----------------------------------------------------
    Center         ---- Electric Field Gradient ----
                   ----       Eigenvalues       ----
 -----------------------------------------------------
    1 Atom     -494.045130   -493.349903   -493.260759
    2 Atom    -1217.650653  -1217.098779  -1214.458869
    3 Atom     -493.437234   -493.185173   -493.120387
    4 Atom     -493.860351   -493.284127   -493.195087
    5 Atom     -492.812398   -492.790334   -492.756642
    6 Atom     -492.665847   -492.635793   -492.589511
    7 Atom     -492.791045   -492.749271   -492.707266
    8 Atom     -492.641454   -492.632008   -492.574023
    9 Atom     -492.699158   -492.653592   -492.615701
   10 Atom     -492.801941   -492.792682   -492.779182
   11 Atom     -492.880129   -492.829060   -492.821594
   12 Atom     -492.960615   -492.940007   -492.920372
   13 Atom     -493.007273   -492.972391   -492.962758
   14 Atom     -492.751754   -492.715835   -492.703576
   15 Atom     -492.681504   -492.656747   -492.618160
   16 Atom     -492.675618   -492.626931   -492.594524
   17 Atom     -492.717389   -492.654889   -492.600638
   18 Atom     -493.079790   -492.639568   -492.612894
   19 Atom     -492.618559   -492.573294   -492.562162
   20 Atom    -1216.019384  -1214.504552  -1212.539333
   21 Atom       -2.072051     -1.616761     -1.596905
   22 Atom       -2.048064     -1.627116     -1.623298
   23 Atom       -2.055055     -1.626511     -1.620530
   24 Atom       -2.075513     -1.635571     -1.630927
   25 Atom       -2.044920     -1.610161     -1.607299
   26 Atom       -2.044720     -1.610194     -1.607211
   27 Atom       -2.066466     -1.630163     -1.621172
   28 Atom       -2.025642     -1.610501     -1.604603
   29 Atom       -2.057617     -1.628872     -1.623444
   30 Atom       -2.075581     -1.633514     -1.628905
   31 Atom       -2.081890     -1.645232     -1.642053
   32 Atom       -2.052913     -1.638310     -1.636778
   33 Atom       -2.062749     -1.652479     -1.646195
   34 Atom       -2.065141     -1.632238     -1.629346
   35 Atom       -2.078169     -1.638637     -1.632481
   36 Atom       -2.079302     -1.635418     -1.631058
   37 Atom       -2.076083     -1.637802     -1.632018
   38 Atom       -2.094435     -1.638220     -1.635602
   39 Atom       -2.080855     -1.632857     -1.630695
   40 Atom       -2.086934     -1.636074     -1.632076
   41 Atom       -2.063233     -1.616088     -1.614152
   42 Atom       -2.075347     -1.680585     -1.668146
   43 Atom       -2.078902     -1.620528     -1.609835
   44 Atom       -2.070320     -1.618462     -1.606743
   45 Atom       -2.089406     -1.625525     -1.619724
   46 Atom       -2.128583     -1.471297     -1.415794
 -----------------------------------------------------
 -----------------------------------------------------
    Center         ---- Electric Field Gradient ----
                       ( tensor representation )
                   3XX-RR        3YY-RR        3ZZ-RR
 -----------------------------------------------------
    1 Atom        0.088691      0.242830     -0.331522
    2 Atom       -0.759689      1.752064     -0.992375
    3 Atom        0.100346      0.061021     -0.161367
    4 Atom        0.205761      0.162411     -0.368172
    5 Atom        0.020369     -0.017868     -0.002501
    6 Atom       -0.025111      0.006529      0.018582
    7 Atom        0.002597      0.001013     -0.003609
    8 Atom        0.016793     -0.013484     -0.003309
    9 Atom       -0.033546      0.021703      0.011842
   10 Atom        0.008611     -0.009912      0.001302
   11 Atom       -0.024270      0.019052      0.005218
   12 Atom        0.008164     -0.005567     -0.002596
   13 Atom        0.013018      0.010663     -0.023681
   14 Atom       -0.012728      0.010181      0.002546
   15 Atom       -0.011846     -0.001920      0.013766
   16 Atom       -0.041127      0.013683      0.027444
   17 Atom        0.000040     -0.038416      0.038376
   18 Atom       -0.106008     -0.004476      0.110484
   19 Atom        0.018253      0.012488     -0.030741
   20 Atom       -0.105390     -1.469691      1.575081
   21 Atom        0.070311     -0.216989      0.146678
   22 Atom        0.138098      0.136967     -0.275065
   23 Atom        0.138172      0.143634     -0.281805
   24 Atom        0.092264     -0.169144      0.076881
   25 Atom        0.143306      0.139634     -0.282940
   26 Atom        0.013639     -0.124505      0.110866
   27 Atom        0.042238     -0.146123      0.103885
   28 Atom        0.139208      0.135694     -0.274902
   29 Atom        0.142179      0.142821     -0.285000
   30 Atom        0.031104     -0.129458      0.098354
   31 Atom        0.143868      0.145068     -0.288936
   32 Atom        0.132973      0.135927     -0.268900
   33 Atom        0.126449      0.140805     -0.267254
   34 Atom        0.142122      0.144252     -0.286374
   35 Atom        0.055067     -0.182793      0.127726
   36 Atom        0.147235      0.140621     -0.287856
   37 Atom        0.026810     -0.107448      0.080639
   38 Atom        0.135392     -0.164555      0.029163
   39 Atom        0.148835      0.125237     -0.274072
   40 Atom        0.096354      0.063515     -0.159868
   41 Atom       -0.069012      0.147497     -0.078485
   42 Atom        0.121715      0.125674     -0.247389
   43 Atom       -0.007501     -0.095533      0.103034
   44 Atom        0.056578     -0.193589      0.137011
   45 Atom       -0.172833      0.158420      0.014414
   46 Atom        0.158004     -0.407105      0.249101
 -----------------------------------------------------
 -----------------------------------------------------
    Center         ---- Electric Field Gradient ----
                       ( tensor representation )
                   ----       Eigenvalues       ----
 -----------------------------------------------------
    1 Atom       -0.493199      0.202027      0.291172
    2 Atom       -1.247886     -0.696012      1.943898
    3 Atom       -0.189636      0.062424      0.127211
    4 Atom       -0.413829      0.162395      0.251434
    5 Atom       -0.025940     -0.003876      0.029816
    6 Atom       -0.035464     -0.005409      0.040873
    7 Atom       -0.041851     -0.000077      0.041928
    8 Atom       -0.025625     -0.016180      0.041806
    9 Atom       -0.043008      0.002558      0.040450
   10 Atom       -0.010673     -0.001414      0.012087
   11 Atom       -0.036535      0.014534      0.022000
   12 Atom       -0.020283      0.000324      0.019959
   13 Atom       -0.026466      0.008416      0.018050
   14 Atom       -0.028032      0.007887      0.020146
   15 Atom       -0.029367     -0.004610      0.033977
   16 Atom       -0.043260      0.005427      0.037833
   17 Atom       -0.059750      0.002750      0.057000
   18 Atom       -0.302372      0.137849      0.164523
   19 Atom       -0.033887      0.011378      0.022510
   20 Atom       -1.664961     -0.150129      1.815090
   21 Atom       -0.310145      0.145145      0.165001
   22 Atom       -0.281905      0.139044      0.142862
   23 Atom       -0.287690      0.140855      0.146835
   24 Atom       -0.294843      0.145100      0.149743
   25 Atom       -0.290794      0.143966      0.146828
   26 Atom       -0.290679      0.143848      0.146831
   27 Atom       -0.293866      0.142437      0.151428
   28 Atom       -0.278727      0.136415      0.142312
   29 Atom       -0.287639      0.141105      0.146534
   30 Atom       -0.296248      0.145819      0.150428
   31 Atom       -0.292165      0.144493      0.147672
   32 Atom       -0.276913      0.137690      0.139222
   33 Atom       -0.275608      0.134662      0.140946
   34 Atom       -0.289566      0.143337      0.146229
   35 Atom       -0.295073      0.144458      0.150615
   36 Atom       -0.297376      0.146508      0.150868
   37 Atom       -0.294115      0.144166      0.149949
   38 Atom       -0.305016      0.151199      0.153817
   39 Atom       -0.299386      0.148612      0.150774
   40 Atom       -0.301906      0.148954      0.152952
   41 Atom       -0.298742      0.148403      0.150339
   42 Atom       -0.267321      0.127441      0.139880
   43 Atom       -0.309147      0.149227      0.159920
   44 Atom       -0.305145      0.146713      0.158432
   45 Atom       -0.311188      0.152694      0.158494
   46 Atom       -0.456692      0.200594      0.256098
 -----------------------------------------------------
 Unable to Open any file for archive entry.
 1\1\GINC-MIKE009\SP\RwB97XD\6-31G(d)\C18H26O2\ARKANIL\03-May-2026\0\\#
  wb97xd/6-31g(d) prop=efg\\None_sub_reg_combined_truncated\\0,1\C,0,43
 .0203425244,42.2529173306,31.1341220423\O,0,43.1675577893,41.184963214
 4,31.7400534979\C,0,43.1461073888,43.5490325419,31.723337762\C,0,43.17
 00594667,44.6878073696,30.9918935463\C,0,43.2013801685,44.6805399012,2
 9.4934977393\C,0,43.4495016369,43.2788547837,28.9286197777\C,0,42.6312
 081828,42.2433027045,29.6815172684\C,0,43.1038851555,46.0182937574,31.
 6391854637\C,0,44.0872270319,47.0318343454,31.0551960915\C,0,43.989118
 2477,47.0859747886,29.5332004838\C,0,44.2406935495,45.6848128176,28.95
 3930553\C,0,45.0348686012,48.0260093088,28.9440088014\C,0,44.982621281
 4,48.1026996097,27.4124990344\C,0,45.2509305745,46.7093821767,26.85493
 61412\C,0,44.2444046947,45.7053343407,27.4195741416\C,0,45.0493920848,
 49.4939396746,29.3672787034\C,0,45.9015992295,50.1754117703,28.2788316
 745\C,0,46.1094429594,49.1290665327,27.1636963224\C,0,43.6673572019,48
 .659734996,26.8650295129\O,0,46.0992473213,49.7490765765,25.8982808319
 \H,0,43.1697034258,43.5937351055,32.804249067\H,0,42.2038388028,45.015
 6003214,29.1812045204\H,0,44.5122406584,43.0323590948,29.0142233713\H,
 0,43.177115443,43.2489913185,27.873335082\H,0,41.5725642594,42.5151070
 696,29.6318833436\H,0,42.7682744431,41.2393256469,29.2731754719\H,0,43
 .2478975063,45.9318724661,32.7169379235\H,0,42.078154423,46.3877970094
 ,31.4844524746\H,0,45.1060859837,46.7517990643,31.3411950623\H,0,43.87
 95091219,48.0142621069,31.4793167813\H,0,42.9847010878,47.4124337227,2
 9.2596965133\H,0,45.2328397351,45.353644075,29.2902440351\H,0,46.01970
 43345,47.609960002,29.197445002\H,0,46.2598899027,46.3993425508,27.141
 6333292\H,0,45.199701776,46.7109476483,25.7638558905\H,0,43.2407720397
 ,45.9429636055,27.0684996942\H,0,44.5091610164,44.7186073819,27.037617
 2795\H,0,45.4883531712,49.6228699678,30.3523734686\H,0,44.0371559291,4
 9.8948603204,29.3990771759\H,0,46.8606031297,50.496169714,28.679184680
 6\H,0,45.4065232703,51.046320661,27.8519381081\H,0,47.0805754208,48.62
 60565709,27.3101850016\H,0,43.5181926602,49.6824369553,27.193429772\H,
 0,43.7046087991,48.6625291192,25.7778186366\H,0,42.8182708233,48.06603
 65968,27.1841175973\H,0,46.08944332,49.0591145454,25.2240677663\\Versi
 on=ES64L-G16RevC.01\State=1-A\HF=-851.7923038\RMSD=3.312e-09\Dipole=-0
 .1202635,1.1336885,-0.764297\Quadrupole=10.8917978,-17.6536887,6.76189
 09,-4.8782159,1.7255184,17.5561518\PG=C01 [X(C18H26O2)]\\@
 The archive entry for this job was punched.


 At the touch of love, everyone becomes a poet.
                                -- Plato
 Job cpu time:       0 days  0 hours 17 minutes 33.5 seconds.
 Elapsed time:       0 days  0 hours  0 minutes 16.8 seconds.
 File lengths (MBytes):  RWF=     71 Int=      0 D2E=      0 Chk=   1339 Scr=      1
 Normal termination of Gaussian 16 at Sun May  3 12:40:21 2026.
