 Entering Gaussian System, Link 0=g16
 Initial command:
 /cm/shared/apps/spack/cpu/opt/spack/linux-centos8-zen/gcc-8.3.1/gaussian-16.C.01-po5bqktfeugvmjyga3v7eigbecnokxng/g16/l1.exe "/scratch/hklem/job_32495862/Gau-42802.inp" -scrdir="/scratch/hklem/job_32495862/"
 Entering Link 1 = /cm/shared/apps/spack/cpu/opt/spack/linux-centos8-zen/gcc-8.3.1/gaussian-16.C.01-po5bqktfeugvmjyga3v7eigbecnokxng/g16/l1.exe PID=     42811.
  
 Copyright (c) 1988-2019, Gaussian, Inc.  All Rights Reserved.
  
 This is part of the Gaussian(R) 16 program.  It is based on
 the Gaussian(R) 09 system (copyright 2009, Gaussian, Inc.),
 the Gaussian(R) 03 system (copyright 2003, Gaussian, Inc.),
 the Gaussian(R) 98 system (copyright 1998, Gaussian, Inc.),
 the Gaussian(R) 94 system (copyright 1995, Gaussian, Inc.),
 the Gaussian 92(TM) system (copyright 1992, Gaussian, Inc.),
 the Gaussian 90(TM) system (copyright 1990, Gaussian, Inc.),
 the Gaussian 88(TM) system (copyright 1988, Gaussian, Inc.),
 the Gaussian 86(TM) system (copyright 1986, Carnegie Mellon
 University), and the Gaussian 82(TM) system (copyright 1983,
 Carnegie Mellon University). Gaussian is a federally registered
 trademark of Gaussian, Inc.
  
 This software contains proprietary and confidential information,
 including trade secrets, belonging to Gaussian, Inc.
  
 This software is provided under written license and may be
 used, copied, transmitted, or stored only in accord with that
 written license.
  
 The following legend is applicable only to US Government
 contracts under FAR:
  
                    RESTRICTED RIGHTS LEGEND
  
 Use, reproduction and disclosure by the US Government is
 subject to restrictions as set forth in subparagraphs (a)
 and (c) of the Commercial Computer Software - Restricted
 Rights clause in FAR 52.227-19.
  
 Gaussian, Inc.
 340 Quinnipiac St., Bldg. 40, Wallingford CT 06492
  
  
 ---------------------------------------------------------------
 Warning -- This program may not be used in any manner that
 competes with the business of Gaussian, Inc. or will provide
 assistance to any competitor of Gaussian, Inc.  The licensee
 of this program is prohibited from giving any competitor of
 Gaussian, Inc. access to this program.  By using this program,
 the user acknowledges that Gaussian, Inc. is engaged in the
 business of creating and licensing software in the field of
 computational chemistry and represents and warrants to the
 licensee that it is not a competitor of Gaussian, Inc. and that
 it will not use this program in any manner prohibited above.
 ---------------------------------------------------------------
  

 Cite this work as:
 Gaussian 16, Revision C.01,
 M. J. Frisch, G. W. Trucks, H. B. Schlegel, G. E. Scuseria, 
 M. A. Robb, J. R. Cheeseman, G. Scalmani, V. Barone, 
 G. A. Petersson, H. Nakatsuji, X. Li, M. Caricato, A. V. Marenich, 
 J. Bloino, B. G. Janesko, R. Gomperts, B. Mennucci, H. P. Hratchian, 
 J. V. Ortiz, A. F. Izmaylov, J. L. Sonnenberg, D. Williams-Young, 
 F. Ding, F. Lipparini, F. Egidi, J. Goings, B. Peng, A. Petrone, 
 T. Henderson, D. Ranasinghe, V. G. Zakrzewski, J. Gao, N. Rega, 
 G. Zheng, W. Liang, M. Hada, M. Ehara, K. Toyota, R. Fukuda, 
 J. Hasegawa, M. Ishida, T. Nakajima, Y. Honda, O. Kitao, H. Nakai, 
 T. Vreven, K. Throssell, J. A. Montgomery, Jr., J. E. Peralta, 
 F. Ogliaro, M. J. Bearpark, J. J. Heyd, E. N. Brothers, K. N. Kudin, 
 V. N. Staroverov, T. A. Keith, R. Kobayashi, J. Normand, 
 K. Raghavachari, A. P. Rendell, J. C. Burant, S. S. Iyengar, 
 J. Tomasi, M. Cossi, J. M. Millam, M. Klene, C. Adamo, R. Cammi, 
 J. W. Ochterski, R. L. Martin, K. Morokuma, O. Farkas, 
 J. B. Foresman, and D. J. Fox, Gaussian, Inc., Wallingford CT, 2019.
 
 ******************************************
 Gaussian 16:  ES64L-G16RevC.01  3-Jul-2019
                24-Jul-2024 
 ******************************************
 %nprocshared=32
 Will use up to   32 processors via shared memory.
 %mem=64GB
 --------------------------
 # 6-31G(d) wb97xd prop=efg
 --------------------------
 1/38=1,172=1/1;
 2/12=2,17=6,18=5,40=1/2;
 3/5=1,6=6,7=1,11=2,25=1,30=1,74=-58/1,2,3;
 4//1;
 5/5=2,38=5/2;
 6/7=2,8=2,9=2,10=2,14=1,28=1/1,2;
 99/5=1,9=1/99;
 -------------------------------
 19nt_xstal_distance_cutoff4_efg
 -------------------------------
 Symbolic Z-matrix:
 Charge = -1 Multiplicity = 1
 H                    0    -5.36324  -5.62075   7.70345 
 C                    -1   -5.51886  -5.18475   6.7102 
 H                    0    -5.54462  -4.09485   6.81395 
 C                    0    -4.41194  -5.60804   5.73492 
 H                    0    -3.4379   -5.29856   6.13383 
 H                    0    -4.38559  -6.70221   5.66292 
 C                    0    -4.61892  -5.00967   4.36469 
 C                    0    -5.32636  -5.69338   3.37461 
 H                    0    -5.67598  -6.70491   3.57014 
 C                    0    -5.60363  -5.10765   2.14479 
 H                    0    -6.16787  -5.63894   1.38398 
 C                    0    -5.17574  -3.80576   1.88537 
 O                    0    -5.50727  -3.24888   0.69053 
 H                    0    -5.12453  -2.33488   0.62076 
 C                    0    -4.43768  -3.11475   2.84972 
 H                    0    -4.0947   -2.10524   2.64786 
 C                    0    -4.17354  -3.71931   4.07278 
 H                    0    -3.60953  -3.16568   4.82049 
 H                    0    -6.49943  -5.50586   6.34272 
 H                    0    -0.00541  -6.7852    5.13042 
 C                    -1    0.33459  -5.90772   4.56809 
 H                    0     1.07303  -6.24619   3.82944 
 C                    0    -0.83804  -5.20584   3.87181 
 H                    0    -1.54315  -4.87413   4.64673 
 C                    0    -0.37383  -3.96395   3.10713 
 H                    0     0.32146  -4.23777   2.30277 
 H                    0    -1.22824  -3.44955   2.65247 
 H                    0     0.14069  -3.25385   3.76445 
 C                    0    -1.59048  -6.1608    2.94231 
 H                    0    -2.00211  -7.01327   3.4955 
 H                    0    -2.42371  -5.65025   2.44687 
 H                    0    -0.91956  -6.55361   2.16732 
 H                    0     0.84507  -5.23271   5.2644 
 H                    0    -4.72275   3.18986  -6.51729 
 C                    -1   -3.81095   2.71182  -6.14246 
 H                    0    -3.03346   3.47371  -6.03581 
 C                    0    -4.0642    2.02353  -4.79733 
 H                    0    -4.43638   2.76181  -4.07735 
 H                    0    -4.83252   1.25174  -4.89803 
 C                    0    -2.79362   1.38466  -4.22046 
 O                    0    -1.76582   2.11952  -4.12562 
 O                    0    -2.84146   0.16651  -3.90774 
 H                    0    -3.47252   1.98925  -6.89339 
 H                    0    -0.79998  -7.97352  -3.75319 
 C                    -1   -0.19367  -7.15413  -4.15485 
 H                    0    -0.67076  -6.80489  -5.07623 
 C                    0    -0.07732  -6.01146  -3.13978 
 H                    0     0.43187  -6.37152  -2.23875 
 H                    0     0.54899  -5.22038  -3.56712 
 C                    0    -1.43482  -5.46097  -2.76696 
 C                    0    -2.04741  -5.77481  -1.55301 
 H                    0    -1.51283  -6.37975  -0.82329 
 C                    0    -3.33354  -5.33275  -1.25088 
 H                    0    -3.78716  -5.57849  -0.29292 
 C                    0    -4.03471  -4.55094  -2.17186 
 O                    0    -5.27913  -4.07173  -1.93199 
 H                    0    -5.43327  -4.00545  -0.96983 
 C                    0    -3.43142  -4.21722  -3.3867 
 H                    0    -3.96758  -3.57291  -4.07609 
 C                    0    -2.1514   -4.66982  -3.67425 
 H                    0    -1.68296  -4.38268  -4.61319 
 H                    0     0.79355  -7.55392  -4.41799 
 H                    0     3.79136  -5.51687  -5.1156 
 C                    -1    4.02699  -4.64895  -4.49304 
 H                    0     4.70168  -3.98495  -5.03732 
 H                    0     3.09913  -4.09334  -4.30325 
 C                    0     4.66734  -5.02297  -3.17582 
 O                    0     5.30182  -4.22294  -2.49168 
 N                    0     4.48107  -6.31416  -2.79498 
 H                    0     3.88282  -6.88946  -3.36883 
 C                    -1    4.88659  -6.84468  -1.50805 
 H                    0     5.48829  -6.06958  -1.02868 
 C                    0     3.68377  -7.24285  -0.64371 
 H                    0     3.10907  -8.01078  -1.18312 
 H                    0     4.0587   -7.72754   0.26887 
 C                    0     2.74342  -6.09092  -0.25875 
 H                    0     2.47442  -5.5505   -1.17766 
 C                    0     1.45363  -6.63131   0.364 
 H                    0     1.65544  -7.10421   1.33408 
 H                    0     0.73469  -5.8211    0.52908 
 H                    0     0.97233  -7.37995  -0.27666 
 C                    0     3.41358  -5.10134   0.69446 
 H                    0     4.29882  -4.6429    0.24717 
 H                    0     2.72705  -4.28945   0.95803 
 H                    0     3.71678  -5.60001   1.62473 
 H                    0     5.53364  -7.71641  -1.6645 
 H                    0     8.78496  -4.32653   2.39152 
 C                    -1    7.9945   -3.72424   2.85462 
 H                    0     8.35345  -2.68913   2.92381 
 C                    0     6.69711  -3.78365   2.03666 
 H                    0     6.36324  -4.83159   2.00563 
 C                    0     5.5957   -2.95323   2.70121 
 H                    0     5.90027  -1.90116   2.76841 
 H                    0     4.66601  -2.99377   2.12288 
 H                    0     5.38044  -3.30931   3.71566 
 C                    0     6.92338  -3.31567   0.59783 
 H                    0     7.7454   -3.85861   0.11683 
 H                    0     6.03205  -3.45155  -0.02289 
 H                    0     7.1668   -2.24877   0.57516 
 H                    0     7.83834  -4.09255   3.87537 
 H                    0    -1.39408   5.41827   7.1941 
 C                    -1   -0.47033   4.8855    7.44396 
 H                    0    -0.17406   5.1724    8.45893 
 C                    0    -0.66693   3.36787   7.33454 
 H                    0     0.26336   2.86116   7.61772 
 H                    0    -1.42615   3.05238   8.06195 
 C                    0    -1.08183   2.92039   5.94979 
 C                    0    -0.19411   2.24855   5.10772 
 H                    0     0.81132   2.02685   5.46013 
 C                    0    -0.5797    1.84779   3.82949 
 H                    0     0.13008   1.33128   3.18851 
 C                    0    -1.86936   2.10711   3.37745 
 H                    0    -2.18902   1.7922    2.38941 
 C                    0    -2.76423   2.78186   4.20543 
 H                    0    -3.7642    2.99221   3.84012 
 C                    0    -2.37122   3.18439   5.47704 
 H                    0    -3.07741   3.70758   6.11945 
 H                    0     0.30454   5.22496   6.7485 
 H                    0     4.37243   1.91145   5.24438 
 C                    -1    4.92694   2.1214    4.32043 
 H                    0     5.65869   1.31687   4.17933 
 C                    0     3.96742   2.21768   3.12979 
 H                    0     4.56034   2.42219   2.22595 
 C                    0     3.23367   0.894     2.90485 
 H                    0     2.64444   0.61906   3.79039 
 H                    0     2.54595   0.96732   2.05417 
 H                    0     3.9373    0.07977   2.69647 
 C                    0     2.98127   3.36988   3.32483 
 H                    0     3.50444   4.32895   3.41749 
 H                    0     2.28413   3.44491   2.48386 
 H                    0     2.38295   3.22579   4.23238 
 H                    0     5.4726    3.06167   4.46779 
 H                    0     10.0809   0.35051   2.3742 
 C                    -1    10.57302   0.13691   1.41905 
 H                    0     11.46877  -0.45759   1.62787 
 C                    0     9.62769  -0.60465   0.48055 
 H                    0     10.14871  -0.85393  -0.45354 
 H                    0     9.33697  -1.55912   0.93438 
 C                    0     8.36715   0.17443   0.10474 
 H                    0     8.6271    1.11206  -0.40027 
 H                    0     7.7667   -0.40826  -0.60143 
 S                    0     7.28368   0.60097   1.52096 
 C                    0     7.70699   2.34945   1.76006 
 H                    0     7.44466   2.93745   0.87537 
 H                    0     7.11578   2.71261   2.60452 
 H                    0     8.76817   2.48042   1.98958 
 H                    0     10.89694   1.09012   0.98254 
 H                    0     6.70587   6.44541   2.08158 
 C                    -1    5.67617   6.73969   1.84948 
 H                    0     5.7155    7.71      1.3439 
 C                    0     4.9839    5.68154   0.98965 
 H                    0     5.49292   5.61317   0.01713 
 H                    0     5.09872   4.69645   1.46319 
 C                    0     3.48863   5.92888   0.73975 
 H                    0     2.97289   5.88911   1.71123 
 C                    0     3.22588   7.30849   0.1343 
 H                    0     3.79029   7.43522  -0.79783 
 H                    0     2.16381   7.42207  -0.10498 
 H                    0     3.50518   8.1176    0.81803 
 C                    0     2.91541   4.82391  -0.14795 
 H                    0     3.02942   3.84168   0.32597 
 H                    0     1.85195   4.97951  -0.35122 
 H                    0     3.42401   4.7958   -1.11859 
 H                    0     5.14648   6.88023   2.80011 
 H                    0     0.37398   6.95131   2.7235 
 C                    -1   -0.67771   6.99034   2.41454 
 H                    0    -0.72266   7.51152   1.45039 
 C                    0    -1.2708    5.58293   2.29469 
 H                    0    -1.21989   5.10306   3.28182 
 C                    0    -2.74028   5.63489   1.86999 
 H                    0    -2.83477   6.09234   0.87505 
 H                    0    -3.17978   4.63223   1.82129 
 H                    0    -3.33787   6.23128   2.57091 
 C                    0    -0.458     4.73285   1.31887 
 H                    0     0.59327   4.6817    1.6234 
 H                    0    -0.8441    3.70894   1.27922 
 H                    0    -0.49648   5.15071   0.30359 
 H                    0    -1.22564   7.59374   3.14851 
 H                    0    -6.21952   4.37633   3.17894 
 C                    -1   -6.65027   4.37726   2.17232 
 H                    0    -5.90731   4.81646   1.50092 
 C                    0    -7.00516   2.96965   1.7281 
 H                    0    -7.73986   2.4992    2.38991 
 H                    0    -7.45477   2.97812   0.72576 
 C                    0    -5.79782   2.06862   1.63325 
 O                    0    -4.6499    2.46919   1.57594 
 O                    0    -6.13603   0.79056   1.59443 
 H                    0    -5.34821   0.26621   1.29035 
 H                    0    -7.53723   5.01865   2.18052 
 H                    0    -11.05467   0.14161  -2.47803 
 C                    -1   -10.16811   0.50892  -1.95003 
 H                    0    -10.505    1.04371  -1.05359 
 C                    0    -9.23013  -0.63995  -1.57549 
 H                    0    -9.76294  -1.3446   -0.92213 
 H                    0    -8.95016  -1.20323  -2.47404 
 C                    0    -7.96409  -0.18502  -0.84394 
 H                    0    -8.22041   0.49457  -0.02441 
 H                    0    -7.45217  -1.03762  -0.38456 
 S                    0    -6.73855   0.7016   -1.86502 
 C                    0    -5.86818  -0.7028   -2.61889 
 H                    0    -6.48131  -1.19923  -3.37601 
 H                    0    -4.94936  -0.32921  -3.08513 
 H                    0    -5.59565  -1.43499  -1.85407 
 H                    0    -9.65683   1.22767  -2.59931 
 H                    0    -5.63863   4.33962  -2.83091 
 C                    -1   -5.09603   4.70292  -1.95133 
 H                    0    -5.83955   4.94109  -1.1818 
 C                    0    -4.1062    3.65448  -1.4427 
 H                    0    -3.34991   3.40749  -2.19504 
 H                    0    -3.58713   3.99656  -0.54124 
 H                    0    -4.62516   2.72581  -1.18891 
 H                    0    -4.60146   5.6403   -2.23211 
 H                    0    -1.39403   9.18872  -3.0495 
 C                    -1   -0.59668   9.19036  -2.29875 
 H                    0    -0.71675   10.07741  -1.66662 
 C                    0    -0.64348   7.90686  -1.45739 
 H                    0     0.12844   7.9734   -0.67841 
 H                    0    -1.60148   7.86241  -0.9235 
 C                    0    -0.46345   6.6313   -2.22968 
 C                    0    -1.4061    5.6524   -2.41697 
 H                    0    -2.43016   5.62979  -2.07347 
 N                    0    -0.88768   4.59496  -3.11878 
 H                    0    -1.3838    3.75927  -3.45533 
 C                    0     0.42386   4.86803  -3.40049 
 C                    0     1.37663   4.08247  -4.05763 
 H                    0     1.11234   3.09956  -4.43585 
 C                    0     2.64916   4.60761  -4.20407 
 H                    0     3.41408   4.02187  -4.7064 
 C                    0     2.96714   5.89298  -3.72052 
 H                    0     3.97262   6.2804   -3.8623 
 C                    0     2.02246   6.66232  -3.06316 
 H                    0     2.28156   7.64857  -2.68796 
 C                    0     0.72991   6.14906  -2.87508 
 H                    0     0.35665   9.27676  -2.83103 
 C                    0    -3.24224  -0.77442  -0.01506 
 O                    0    -4.34902  -0.83092   0.56456 
 C                    0    -2.47843   0.43874  -0.13637 
 C                    0    -1.25627   0.43567  -0.73078 
 C                    0    -0.53773  -0.83412  -1.12085 
 C                    0    -1.20262  -2.08475  -0.55202 
 C                    0    -2.71209  -2.00475  -0.67707 
 C                    0    -0.58507   1.71216  -1.13087 
 C                    0     0.93051   1.74251  -0.89336 
 C                    0     1.60445   0.47673  -1.42961 
 C                    0     0.96289  -0.75998  -0.76201 
 C                    0     3.11225   0.44316  -1.21024 
 C                    0     3.75946  -0.84689  -1.75284 
 C                    0     3.18805  -2.03215  -0.97727 
 C                    0     1.66373  -2.08873  -1.10184 
 C                    0     3.9906    1.56705  -1.77879 
 C                    0     5.40944   0.94031  -1.83502 
 C                    0     5.23993  -0.54729  -1.45727 
 C                    0     3.56499  -1.03548  -3.26549 
 O                    0     6.19099  -1.33623  -2.14691 
 H                    0    -2.96114   1.36289   0.17259 
 H                    0    -0.59498  -0.86573  -2.22048 
 H                    0    -0.92587  -2.20033   0.50614 
 H                    0    -0.85386  -2.98133  -1.07214 
 H                    0    -2.99526  -1.9393   -1.7375 
 H                    0    -3.19471  -2.88761  -0.25864 
 H                    0    -1.08024   2.57315  -0.67113 
 H                    0    -0.77849   1.79177  -2.21435 
 H                    0     1.14173   1.84401   0.18271 
 H                    0     1.34179   2.63385  -1.38063 
 H                    0     1.40082   0.42282  -2.50828 
 H                    0     1.04596  -0.61293   0.3301 
 H                    0     3.27868   0.4321   -0.11908 
 H                    0     3.46897  -1.92569   0.08209 
 H                    0     3.62163  -2.97512  -1.32901 
 H                    0     1.39488  -2.38928  -2.12104 
 H                    0     1.28624  -2.87726  -0.43867 
 H                    0     3.95946   2.46474  -1.15855 
 H                    0     3.64237   1.8655   -2.77474 
 H                    0     6.1011    1.44113  -1.15029 
 H                    0     5.84264   0.99574  -2.83866 
 H                    0     5.38742  -0.66089  -0.36915 
 H                    0     3.9206   -0.16945  -3.8327 
 H                    0     4.14411  -1.90108  -3.59923 
 H                    0     2.52207  -1.20933  -3.53891 
 H                    0     5.89959  -2.26324  -2.13945 
 O                    0    -0.27401  -0.38858  -4.44083 
 H                    0    -0.09917   0.56262  -4.46599 
 H                    0    -1.24247  -0.37357  -4.22623 
 O                    0     0.61351  -2.96888  -4.33467 
 H                    0    -0.02818  -3.11164  -3.62782 
 H                    0     0.46846  -2.02245  -4.549 
 
 Stoichiometry    C96H175N2O11S2(1-)
 Framework group  C1[X(C96H175N2O11S2)]
 Deg. of freedom   852
 Full point group                 C1      NOp   1
 Largest Abelian subgroup         C1      NOp   1
 Largest concise Abelian subgroup C1      NOp   1
                         Standard orientation:                         
 ---------------------------------------------------------------------
 Center     Atomic      Atomic             Coordinates (Angstroms)
 Number     Number       Type             X           Y           Z
 ---------------------------------------------------------------------
      1          1           0       -5.363242   -5.620753    7.703453
      2          6           0       -5.518858   -5.184750    6.710199
      3          1           0       -5.544615   -4.094855    6.813954
      4          6           0       -4.411938   -5.608040    5.734922
      5          1           0       -3.437896   -5.298555    6.133833
      6          1           0       -4.385588   -6.702206    5.662918
      7          6           0       -4.618923   -5.009672    4.364691
      8          6           0       -5.326358   -5.693384    3.374611
      9          1           0       -5.675984   -6.704909    3.570144
     10          6           0       -5.603632   -5.107648    2.144794
     11          1           0       -6.167870   -5.638943    1.383983
     12          6           0       -5.175740   -3.805757    1.885374
     13          8           0       -5.507272   -3.248877    0.690533
     14          1           0       -5.124531   -2.334877    0.620756
     15          6           0       -4.437678   -3.114747    2.849724
     16          1           0       -4.094697   -2.105241    2.647859
     17          6           0       -4.173543   -3.719313    4.072785
     18          1           0       -3.609529   -3.165676    4.820492
     19          1           0       -6.499431   -5.505862    6.342717
     20          1           0       -0.005412   -6.785200    5.130424
     21          6           0        0.334594   -5.907718    4.568093
     22          1           0        1.073028   -6.246188    3.829436
     23          6           0       -0.838037   -5.205838    3.871810
     24          1           0       -1.543147   -4.874133    4.646733
     25          6           0       -0.373834   -3.963954    3.107133
     26          1           0        0.321463   -4.237769    2.302770
     27          1           0       -1.228244   -3.449547    2.652465
     28          1           0        0.140687   -3.253848    3.764445
     29          6           0       -1.590475   -6.160803    2.942312
     30          1           0       -2.002113   -7.013269    3.495495
     31          1           0       -2.423708   -5.650247    2.446867
     32          1           0       -0.919561   -6.553608    2.167316
     33          1           0        0.845066   -5.232706    5.264395
     34          1           0       -4.722746    3.189855   -6.517289
     35          6           0       -3.810948    2.711824   -6.142458
     36          1           0       -3.033463    3.473707   -6.035809
     37          6           0       -4.064199    2.023528   -4.797331
     38          1           0       -4.436380    2.761813   -4.077351
     39          1           0       -4.832517    1.251737   -4.898028
     40          6           0       -2.793621    1.384660   -4.220461
     41          8           0       -1.765824    2.119515   -4.125617
     42          8           0       -2.841462    0.166509   -3.907743
     43          1           0       -3.472524    1.989248   -6.893385
     44          1           0       -0.799981   -7.973521   -3.753190
     45          6           0       -0.193668   -7.154132   -4.154849
     46          1           0       -0.670759   -6.804886   -5.076232
     47          6           0       -0.077320   -6.011461   -3.139776
     48          1           0        0.431874   -6.371521   -2.238753
     49          1           0        0.548989   -5.220384   -3.567122
     50          6           0       -1.434822   -5.460969   -2.766961
     51          6           0       -2.047406   -5.774812   -1.553011
     52          1           0       -1.512833   -6.379747   -0.823291
     53          6           0       -3.333543   -5.332754   -1.250877
     54          1           0       -3.787159   -5.578493   -0.292920
     55          6           0       -4.034713   -4.550944   -2.171861
     56          8           0       -5.279129   -4.071727   -1.931993
     57          1           0       -5.433272   -4.005449   -0.969833
     58          6           0       -3.431417   -4.217218   -3.386699
     59          1           0       -3.967577   -3.572914   -4.076091
     60          6           0       -2.151402   -4.669824   -3.674251
     61          1           0       -1.682956   -4.382677   -4.613190
     62          1           0        0.793553   -7.553924   -4.417993
     63          1           0        3.791357   -5.516871   -5.115597
     64          6           0        4.026990   -4.648947   -4.493041
     65          1           0        4.701684   -3.984949   -5.037320
     66          1           0        3.099126   -4.093338   -4.303253
     67          6           0        4.667341   -5.022969   -3.175819
     68          8           0        5.301819   -4.222941   -2.491684
     69          7           0        4.481072   -6.314160   -2.794984
     70          1           0        3.882823   -6.889457   -3.368829
     71          6           0        4.886585   -6.844684   -1.508050
     72          1           0        5.488289   -6.069581   -1.028684
     73          6           0        3.683766   -7.242847   -0.643705
     74          1           0        3.109073   -8.010779   -1.183117
     75          1           0        4.058704   -7.727543    0.268873
     76          6           0        2.743417   -6.090920   -0.258746
     77          1           0        2.474418   -5.550499   -1.177660
     78          6           0        1.453626   -6.631312    0.364004
     79          1           0        1.655436   -7.104211    1.334076
     80          1           0        0.734693   -5.821097    0.529078
     81          1           0        0.972334   -7.379952   -0.276661
     82          6           0        3.413583   -5.101337    0.694463
     83          1           0        4.298822   -4.642898    0.247167
     84          1           0        2.727054   -4.289453    0.958025
     85          1           0        3.716783   -5.600014    1.624725
     86          1           0        5.533643   -7.716414   -1.664499
     87          1           0        8.784962   -4.326531    2.391516
     88          6           0        7.994497   -3.724238    2.854621
     89          1           0        8.353454   -2.689124    2.923811
     90          6           0        6.697114   -3.783652    2.036663
     91          1           0        6.363238   -4.831588    2.005629
     92          6           0        5.595698   -2.953232    2.701208
     93          1           0        5.900271   -1.901163    2.768407
     94          1           0        4.666011   -2.993767    2.122882
     95          1           0        5.380437   -3.309313    3.715657
     96          6           0        6.923378   -3.315667    0.597825
     97          1           0        7.745401   -3.858613    0.116832
     98          1           0        6.032050   -3.451552   -0.022885
     99          1           0        7.166801   -2.248767    0.575155
    100          1           0        7.838343   -4.092544    3.875369
    101          1           0       -1.394081    5.418274    7.194098
    102          6           0       -0.470333    4.885497    7.443960
    103          1           0       -0.174064    5.172404    8.458934
    104          6           0       -0.666925    3.367873    7.334536
    105          1           0        0.263358    2.861155    7.617718
    106          1           0       -1.426148    3.052383    8.061955
    107          6           0       -1.081828    2.920391    5.949789
    108          6           0       -0.194108    2.248546    5.107724
    109          1           0        0.811319    2.026855    5.460126
    110          6           0       -0.579701    1.847786    3.829490
    111          1           0        0.130081    1.331276    3.188511
    112          6           0       -1.869356    2.107112    3.377449
    113          1           0       -2.189023    1.792196    2.389408
    114          6           0       -2.764228    2.781864    4.205427
    115          1           0       -3.764197    2.992211    3.840117
    116          6           0       -2.371221    3.184386    5.477044
    117          1           0       -3.077409    3.707576    6.119448
    118          1           0        0.304537    5.224964    6.748500
    119          1           0        4.372429    1.911453    5.244378
    120          6           0        4.926942    2.121396    4.320434
    121          1           0        5.658694    1.316865    4.179332
    122          6           0        3.967420    2.217680    3.129792
    123          1           0        4.560337    2.422191    2.225955
    124          6           0        3.233668    0.893996    2.904854
    125          1           0        2.644435    0.619058    3.790386
    126          1           0        2.545954    0.967322    2.054174
    127          1           0        3.937299    0.079767    2.696465
    128          6           0        2.981274    3.369884    3.324830
    129          1           0        3.504439    4.328946    3.417485
    130          1           0        2.284132    3.444907    2.483861
    131          1           0        2.382949    3.225787    4.232381
    132          1           0        5.472602    3.061673    4.467788
    133          1           0       10.080904    0.350506    2.374202
    134          6           0       10.573016    0.136911    1.419045
    135          1           0       11.468767   -0.457588    1.627872
    136          6           0        9.627694   -0.604644    0.480550
    137          1           0       10.148712   -0.853928   -0.453535
    138          1           0        9.336967   -1.559121    0.934375
    139          6           0        8.367149    0.174433    0.104741
    140          1           0        8.627099    1.112064   -0.400271
    141          1           0        7.766703   -0.408254   -0.601426
    142         16           0        7.283682    0.600974    1.520963
    143          6           0        7.706991    2.349446    1.760060
    144          1           0        7.444663    2.937454    0.875368
    145          1           0        7.115782    2.712611    2.604516
    146          1           0        8.768172    2.480422    1.989575
    147          1           0       10.896937    1.090118    0.982543
    148          1           0        6.705870    6.445409    2.081579
    149          6           0        5.676174    6.739690    1.849475
    150          1           0        5.715500    7.709999    1.343895
    151          6           0        4.983899    5.681542    0.989648
    152          1           0        5.492918    5.613174    0.017133
    153          1           0        5.098719    4.696447    1.463186
    154          6           0        3.488630    5.928876    0.739753
    155          1           0        2.972889    5.889110    1.711233
    156          6           0        3.225877    7.308486    0.134300
    157          1           0        3.790292    7.435221   -0.797832
    158          1           0        2.163814    7.422067   -0.104981
    159          1           0        3.505184    8.117596    0.818027
    160          6           0        2.915410    4.823909   -0.147945
    161          1           0        3.029419    3.841682    0.325969
    162          1           0        1.851952    4.979506   -0.351217
    163          1           0        3.424008    4.795803   -1.118586
    164          1           0        5.146480    6.880226    2.800109
    165          1           0        0.373979    6.951311    2.723495
    166          6           0       -0.677710    6.990336    2.414539
    167          1           0       -0.722655    7.511517    1.450390
    168          6           0       -1.270804    5.582927    2.294685
    169          1           0       -1.219890    5.103060    3.281821
    170          6           0       -2.740280    5.634892    1.869989
    171          1           0       -2.834771    6.092338    0.875046
    172          1           0       -3.179782    4.632234    1.821292
    173          1           0       -3.337870    6.231284    2.570914
    174          6           0       -0.458004    4.732852    1.318873
    175          1           0        0.593271    4.681696    1.623398
    176          1           0       -0.844101    3.708941    1.279224
    177          1           0       -0.496481    5.150711    0.303594
    178          1           0       -1.225640    7.593740    3.148506
    179          1           0       -6.219522    4.376330    3.178939
    180          6           0       -6.650265    4.377263    2.172318
    181          1           0       -5.907310    4.816464    1.500922
    182          6           0       -7.005163    2.969647    1.728099
    183          1           0       -7.739859    2.499196    2.389914
    184          1           0       -7.454767    2.978119    0.725764
    185          6           0       -5.797822    2.068622    1.633253
    186          8           0       -4.649904    2.469188    1.575936
    187          8           0       -6.136033    0.790561    1.594427
    188          1           0       -5.348208    0.266209    1.290346
    189          1           0       -7.537235    5.018652    2.180518
    190          1           0      -11.054672    0.141610   -2.478034
    191          6           0      -10.168112    0.508917   -1.950034
    192          1           0      -10.505004    1.043704   -1.053590
    193          6           0       -9.230134   -0.639955   -1.575487
    194          1           0       -9.762942   -1.344598   -0.922132
    195          1           0       -8.950158   -1.203234   -2.474035
    196          6           0       -7.964086   -0.185021   -0.843940
    197          1           0       -8.220412    0.494568   -0.024411
    198          1           0       -7.452172   -1.037624   -0.384564
    199         16           0       -6.738548    0.701601   -1.865016
    200          6           0       -5.868180   -0.702797   -2.618887
    201          1           0       -6.481312   -1.199231   -3.376013
    202          1           0       -4.949357   -0.329205   -3.085126
    203          1           0       -5.595650   -1.434989   -1.854073
    204          1           0       -9.656829    1.227671   -2.599311
    205          1           0       -5.638630    4.339621   -2.830914
    206          6           0       -5.096027    4.702924   -1.951328
    207          1           0       -5.839552    4.941086   -1.181795
    208          6           0       -4.106203    3.654475   -1.442697
    209          1           0       -3.349906    3.407491   -2.195041
    210          1           0       -3.587133    3.996558   -0.541244
    211          1           0       -4.625158    2.725807   -1.188912
    212          1           0       -4.601458    5.640295   -2.232108
    213          1           0       -1.394029    9.188721   -3.049499
    214          6           0       -0.596679    9.190356   -2.298750
    215          1           0       -0.716747   10.077407   -1.666615
    216          6           0       -0.643482    7.906863   -1.457389
    217          1           0        0.128440    7.973404   -0.678412
    218          1           0       -1.601484    7.862409   -0.923496
    219          6           0       -0.463448    6.631301   -2.229677
    220          6           0       -1.406096    5.652396   -2.416968
    221          1           0       -2.430159    5.629793   -2.073474
    222          7           0       -0.887681    4.594957   -3.118783
    223          1           0       -1.383804    3.759271   -3.455326
    224          6           0        0.423863    4.868028   -3.400488
    225          6           0        1.376625    4.082470   -4.057633
    226          1           0        1.112338    3.099559   -4.435854
    227          6           0        2.649157    4.607607   -4.204066
    228          1           0        3.414080    4.021874   -4.706403
    229          6           0        2.967140    5.892983   -3.720523
    230          1           0        3.972624    6.280400   -3.862297
    231          6           0        2.022456    6.662322   -3.063157
    232          1           0        2.281559    7.648565   -2.687963
    233          6           0        0.729905    6.149061   -2.875081
    234          1           0        0.356653    9.276756   -2.831026
    235          6           0       -3.242236   -0.774424   -0.015056
    236          8           0       -4.349016   -0.830919    0.564564
    237          6           0       -2.478432    0.438740   -0.136366
    238          6           0       -1.256268    0.435674   -0.730776
    239          6           0       -0.537726   -0.834123   -1.120845
    240          6           0       -1.202621   -2.084746   -0.552022
    241          6           0       -2.712090   -2.004751   -0.677074
    242          6           0       -0.585070    1.712156   -1.130866
    243          6           0        0.930510    1.742505   -0.893355
    244          6           0        1.604454    0.476730   -1.429605
    245          6           0        0.962891   -0.759981   -0.762012
    246          6           0        3.112251    0.443157   -1.210240
    247          6           0        3.759463   -0.846893   -1.752836
    248          6           0        3.188053   -2.032147   -0.977274
    249          6           0        1.663728   -2.088731   -1.101840
    250          6           0        3.990597    1.567049   -1.778787
    251          6           0        5.409444    0.940314   -1.835022
    252          6           0        5.239926   -0.547294   -1.457268
    253          6           0        3.564987   -1.035484   -3.265492
    254          8           0        6.190986   -1.336234   -2.146910
    255          1           0       -2.961144    1.362889    0.172593
    256          1           0       -0.594978   -0.865733   -2.220478
    257          1           0       -0.925867   -2.200335    0.506140
    258          1           0       -0.853860   -2.981326   -1.072139
    259          1           0       -2.995256   -1.939295   -1.737495
    260          1           0       -3.194714   -2.887614   -0.258638
    261          1           0       -1.080238    2.573145   -0.671125
    262          1           0       -0.778488    1.791770   -2.214347
    263          1           0        1.141729    1.844013    0.182710
    264          1           0        1.341788    2.633852   -1.380630
    265          1           0        1.400818    0.422817   -2.508283
    266          1           0        1.045960   -0.612928    0.330100
    267          1           0        3.278678    0.432100   -0.119083
    268          1           0        3.468966   -1.925685    0.082086
    269          1           0        3.621631   -2.975117   -1.329010
    270          1           0        1.394877   -2.389276   -2.121040
    271          1           0        1.286241   -2.877261   -0.438670
    272          1           0        3.959457    2.464738   -1.158545
    273          1           0        3.642371    1.865501   -2.774742
    274          1           0        6.101099    1.441132   -1.150293
    275          1           0        5.842644    0.995741   -2.838657
    276          1           0        5.387418   -0.660889   -0.369146
    277          1           0        3.920601   -0.169449   -3.832700
    278          1           0        4.144113   -1.901075   -3.599234
    279          1           0        2.522072   -1.209325   -3.538914
    280          1           0        5.899588   -2.263238   -2.139453
    281          8           0       -0.274009   -0.388578   -4.440829
    282          1           0       -0.099169    0.562615   -4.465993
    283          1           0       -1.242468   -0.373572   -4.226225
    284          8           0        0.613508   -2.968882   -4.334666
    285          1           0       -0.028180   -3.111640   -3.627822
    286          1           0        0.468461   -2.022449   -4.549001
 ---------------------------------------------------------------------
 Rotational constants (GHZ):           0.0123082           0.0110864           0.0086745
 Standard basis: 6-31G(d) (6D, 7F)
 There are  2023 symmetry adapted cartesian basis functions of A   symmetry.
 There are  2023 symmetry adapted basis functions of A   symmetry.
  2023 basis functions,  3856 primitive gaussians,  2023 cartesian basis functions
   443 alpha electrons      443 beta electrons
       nuclear repulsion energy     28784.7351486867 Hartrees.
 NAtoms=  286 NActive=  286 NUniq=  286 SFac= 1.00D+00 NAtFMM=   60 NAOKFM=T Big=T
 Integral buffers will be    131072 words long.
 Raffenetti 2 integral format.
 Two-electron integral symmetry is turned on.
 Nuclear repulsion after empirical dispersion term =    28784.3782994786 Hartrees.
 One-electron integrals computed using PRISM.
 NBasis=  2023 RedAO= T EigKep=  3.52D-04  NBF=  2023
 NBsUse=  2023 1.00D-06 EigRej= -1.00D+00 NBFU=  2023
 ExpMin= 1.17D-01 ExpMax= 2.19D+04 ExpMxC= 3.30D+03 IAcc=3 IRadAn=         5 AccDes= 0.00D+00
 Harris functional with IExCor= 4639 and IRadAn=       5 diagonalized for initial guess.
 HarFok:  IExCor= 4639 AccDes= 0.00D+00 IRadAn=         5 IDoV= 1 UseB2=F ITyADJ=14
 ICtDFT=  3500011 ScaDFX=  1.000000  1.000000  1.000000  1.000000
 FoFCou: FMM=F IPFlag=           0 FMFlag=      100000 FMFlg1=        2001
         NFxFlg=           0 DoJE=T BraDBF=F KetDBF=T FulRan=T
         wScrn=  0.000000 ICntrl=       500 IOpCl=  0 I1Cent=   200000004 NGrid=           0
         NMat0=    1 NMatS0=      1 NMatT0=    0 NMatD0=    1 NMtDS0=    0 NMtDT0=    0
 Petite list used in FoFCou.
 Requested convergence on RMS density matrix=1.00D-08 within 128 cycles.
 Requested convergence on MAX density matrix=1.00D-06.
 Requested convergence on             energy=1.00D-06.
 No special actions if energy rises.
 Integral accuracy reduced to 1.0D-05 until final iterations.
 Initial convergence to 1.0D-05 achieved.  Increase integral accuracy.
 SCF Done:  E(RwB97XD) =  -5495.97295921     A.U. after   15 cycles
            NFock= 15  Conv=0.38D-08     -V/T= 2.0086
 Hyperfine terms turned off by default for NAtoms > 100.

 **********************************************************************

            Population analysis using the SCF Density.

 **********************************************************************

 Orbital symmetries:
       Occupied  (A) (A) (A) (A) (A) (A) (A) (A) (A) (A) (A) (A)
                 (A) (A) (A) (A) (A) (A) (A) (A) (A) (A) (A) (A)
                 (A) (A) (A) (A) (A) (A) (A) (A) (A) (A) (A) (A)
                 (A) (A) (A) (A) (A) (A) (A) (A) (A) (A) (A) (A)
                 (A) (A) (A) (A) (A) (A) (A) (A) (A) (A) (A) (A)
                 (A) (A) (A) (A) (A) (A) (A) (A) (A) (A) (A) (A)
                 (A) (A) (A) (A) (A) (A) (A) (A) (A) (A) (A) (A)
                 (A) (A) (A) (A) (A) (A) (A) (A) (A) (A) (A) (A)
                 (A) (A) (A) (A) (A) (A) (A) (A) (A) (A) (A) (A)
                 (A) (A) (A) (A) (A) (A) (A) (A) (A) (A) (A) (A)
                 (A) (A) (A) (A) (A) (A) (A) (A) (A) (A) (A) (A)
                 (A) (A) (A) (A) (A) (A) (A) (A) (A) (A) (A) (A)
                 (A) (A) (A) (A) (A) (A) (A) (A) (A) (A) (A) (A)
                 (A) (A) (A) (A) (A) (A) (A) (A) (A) (A) (A) (A)
                 (A) (A) (A) (A) (A) (A) (A) (A) (A) (A) (A) (A)
                 (A) (A) (A) (A) (A) (A) (A) (A) (A) (A) (A) (A)
                 (A) (A) (A) (A) (A) (A) (A) (A) (A) (A) (A) (A)
                 (A) (A) (A) (A) (A) (A) (A) (A) (A) (A) (A) (A)
                 (A) (A) (A) (A) (A) (A) (A) (A) (A) (A) (A) (A)
                 (A) (A) (A) (A) (A) (A) (A) (A) (A) (A) (A) (A)
                 (A) (A) (A) (A) (A) (A) (A) (A) (A) (A) (A) (A)
                 (A) (A) (A) (A) (A) (A) (A) (A) (A) (A) (A) (A)
                 (A) (A) (A) (A) (A) (A) (A) (A) (A) (A) (A) (A)
                 (A) (A) (A) (A) (A) (A) (A) (A) (A) (A) (A) (A)
                 (A) (A) (A) (A) (A) (A) (A) (A) (A) (A) (A) (A)
                 (A) (A) (A) (A) (A) (A) (A) (A) (A) (A) (A) (A)
                 (A) (A) (A) (A) (A) (A) (A) (A) (A) (A) (A) (A)
                 (A) (A) (A) (A) (A) (A) (A) (A) (A) (A) (A) (A)
                 (A) (A) (A) (A) (A) (A) (A) (A) (A) (A) (A) (A)
                 (A) (A) (A) (A) (A) (A) (A) (A) (A) (A) (A) (A)
                 (A) (A) (A) (A) (A) (A) (A) (A) (A) (A) (A) (A)
                 (A) (A) (A) (A) (A) (A) (A) (A) (A) (A) (A) (A)
                 (A) (A) (A) (A) (A) (A) (A) (A) (A) (A) (A) (A)
                 (A) (A) (A) (A) (A) (A) (A) (A) (A) (A) (A) (A)
                 (A) (A) (A) (A) (A) (A) (A) (A) (A) (A) (A) (A)
                 (A) (A) (A) (A) (A) (A) (A) (A) (A) (A) (A) (A)
                 (A) (A) (A) (A) (A) (A) (A) (A) (A) (A) (A)
       Virtual   (A) (A) (A) (A) (A) (A) (A) (A) (A) (A) (A) (A)
                 (A) (A) (A) (A) (A) (A) (A) (A) (A) (A) (A) (A)
                 (A) (A) (A) (A) (A) (A) (A) (A) (A) (A) (A) (A)
                 (A) (A) (A) (A) (A) (A) (A) (A) (A) (A) (A) (A)
                 (A) (A) (A) (A) (A) (A) (A) (A) (A) (A) (A) (A)
                 (A) (A) (A) (A) (A) (A) (A) (A) (A) (A) (A) (A)
                 (A) (A) (A) (A) (A) (A) (A) (A) (A) (A) (A) (A)
                 (A) (A) (A) (A) (A) (A) (A) (A) (A) (A) (A) (A)
                 (A) (A) (A) (A) (A) (A) (A) (A) (A) (A) (A) (A)
                 (A) (A) (A) (A) (A) (A) (A) (A) (A) (A) (A) (A)
                 (A) (A) (A) (A) (A) (A) (A) (A) (A) (A) (A) (A)
                 (A) (A) (A) (A) (A) (A) (A) (A) (A) (A) (A) (A)
                 (A) (A) (A) (A) (A) (A) (A) (A) (A) (A) (A) (A)
                 (A) (A) (A) (A) (A) (A) (A) (A) (A) (A) (A) (A)
                 (A) (A) (A) (A) (A) (A) (A) (A) (A) (A) (A) (A)
                 (A) (A) (A) (A) (A) (A) (A) (A) (A) (A) (A) (A)
                 (A) (A) (A) (A) (A) (A) (A) (A) (A) (A) (A) (A)
                 (A) (A) (A) (A) (A) (A) (A) (A) (A) (A) (A) (A)
                 (A) (A) (A) (A) (A) (A) (A) (A) (A) (A) (A) (A)
                 (A) (A) (A) (A) (A) (A) (A) (A) (A) (A) (A) (A)
                 (A) (A) (A) (A) (A) (A) (A) (A) (A) (A) (A) (A)
                 (A) (A) (A) (A) (A) (A) (A) (A) (A) (A) (A) (A)
                 (A) (A) (A) (A) (A) (A) (A) (A) (A) (A) (A) (A)
                 (A) (A) (A) (A) (A) (A) (A) (A) (A) (A) (A) (A)
                 (A) (A) (A) (A) (A) (A) (A) (A) (A) (A) (A) (A)
                 (A) (A) (A) (A) (A) (A) (A) (A) (A) (A) (A) (A)
                 (A) (A) (A) (A) (A) (A) (A) (A) (A) (A) (A) (A)
                 (A) (A) (A) (A) (A) (A) (A) (A) (A) (A) (A) (A)
                 (A) (A) (A) (A) (A) (A) (A) (A) (A) (A) (A) (A)
                 (A) (A) (A) (A) (A) (A) (A) (A) (A) (A) (A) (A)
                 (A) (A) (A) (A) (A) (A) (A) (A) (A) (A) (A) (A)
                 (A) (A) (A) (A) (A) (A) (A) (A) (A) (A) (A) (A)
                 (A) (A) (A) (A) (A) (A) (A) (A) (A) (A) (A) (A)
                 (A) (A) (A) (A) (A) (A) (A) (A) (A) (A) (A) (A)
                 (A) (A) (A) (A) (A) (A) (A) (A) (A) (A) (A) (A)
                 (A) (A) (A) (A) (A) (A) (A) (A) (A) (A) (A) (A)
                 (A) (A) (A) (A) (A) (A) (A) (A) (A) (A) (A) (A)
                 (A) (A) (A) (A) (A) (A) (A) (A) (A) (A) (A) (A)
                 (A) (A) (A) (A) (A) (A) (A) (A) (A) (A) (A) (A)
                 (A) (A) (A) (A) (A) (A) (A) (A) (A) (A) (A) (A)
                 (A) (A) (A) (A) (A) (A) (A) (A) (A) (A) (A) (A)
                 (A) (A) (A) (A) (A) (A) (A) (A) (A) (A) (A) (A)
                 (A) (A) (A) (A) (A) (A) (A) (A) (A) (A) (A) (A)
                 (A) (A) (A) (A) (A) (A) (A) (A) (A) (A) (A) (A)
                 (A) (A) (A) (A) (A) (A) (A) (A) (A) (A) (A) (A)
                 (A) (A) (A) (A) (A) (A) (A) (A) (A) (A) (A) (A)
                 (A) (A) (A) (A) (A) (A) (A) (A) (A) (A) (A) (A)
                 (A) (A) (A) (A) (A) (A) (A) (A) (A) (A) (A) (A)
                 (A) (A) (A) (A) (A) (A) (A) (A) (A) (A) (A) (A)
                 (A) (A) (A) (A) (A) (A) (A) (A) (A) (A) (A) (A)
                 (A) (A) (A) (A) (A) (A) (A) (A) (A) (A) (A) (A)
                 (A) (A) (A) (A) (A) (A) (A) (A) (A) (A) (A) (A)
                 (A) (A) (A) (A) (A) (A) (A) (A) (A) (A) (A) (A)
                 (A) (A) (A) (A) (A) (A) (A) (A) (A) (A) (A) (A)
                 (A) (A) (A) (A) (A) (A) (A) (A) (A) (A) (A) (A)
                 (A) (A) (A) (A) (A) (A) (A) (A) (A) (A) (A) (A)
                 (A) (A) (A) (A) (A) (A) (A) (A) (A) (A) (A) (A)
                 (A) (A) (A) (A) (A) (A) (A) (A) (A) (A) (A) (A)
                 (A) (A) (A) (A) (A) (A) (A) (A) (A) (A) (A) (A)
                 (A) (A) (A) (A) (A) (A) (A) (A) (A) (A) (A) (A)
                 (A) (A) (A) (A) (A) (A) (A) (A) (A) (A) (A) (A)
                 (A) (A) (A) (A) (A) (A) (A) (A) (A) (A) (A) (A)
                 (A) (A) (A) (A) (A) (A) (A) (A) (A) (A) (A) (A)
                 (A) (A) (A) (A) (A) (A) (A) (A) (A) (A) (A) (A)
                 (A) (A) (A) (A) (A) (A) (A) (A) (A) (A) (A) (A)
                 (A) (A) (A) (A) (A) (A) (A) (A) (A) (A) (A) (A)
                 (A) (A) (A) (A) (A) (A) (A) (A) (A) (A) (A) (A)
                 (A) (A) (A) (A) (A) (A) (A) (A) (A) (A) (A) (A)
                 (A) (A) (A) (A) (A) (A) (A) (A) (A) (A) (A) (A)
                 (A) (A) (A) (A) (A) (A) (A) (A) (A) (A) (A) (A)
                 (A) (A) (A) (A) (A) (A) (A) (A) (A) (A) (A) (A)
                 (A) (A) (A) (A) (A) (A) (A) (A) (A) (A) (A) (A)
                 (A) (A) (A) (A) (A) (A) (A) (A) (A) (A) (A) (A)
                 (A) (A) (A) (A) (A) (A) (A) (A) (A) (A) (A) (A)
                 (A) (A) (A) (A) (A) (A) (A) (A) (A) (A) (A) (A)
                 (A) (A) (A) (A) (A) (A) (A) (A) (A) (A) (A) (A)
                 (A) (A) (A) (A) (A) (A) (A) (A) (A) (A) (A) (A)
                 (A) (A) (A) (A) (A) (A) (A) (A) (A) (A) (A) (A)
                 (A) (A) (A) (A) (A) (A) (A) (A) (A) (A) (A) (A)
                 (A) (A) (A) (A) (A) (A) (A) (A) (A) (A) (A) (A)
                 (A) (A) (A) (A) (A) (A) (A) (A) (A) (A) (A) (A)
                 (A) (A) (A) (A) (A) (A) (A) (A) (A) (A) (A) (A)
                 (A) (A) (A) (A) (A) (A) (A) (A) (A) (A) (A) (A)
                 (A) (A) (A) (A) (A) (A) (A) (A) (A) (A) (A) (A)
                 (A) (A) (A) (A) (A) (A) (A) (A) (A) (A) (A) (A)
                 (A) (A) (A) (A) (A) (A) (A) (A) (A) (A) (A) (A)
                 (A) (A) (A) (A) (A) (A) (A) (A) (A) (A) (A) (A)
                 (A) (A) (A) (A) (A) (A) (A) (A) (A) (A) (A) (A)
                 (A) (A) (A) (A) (A) (A) (A) (A) (A) (A) (A) (A)
                 (A) (A) (A) (A) (A) (A) (A) (A) (A) (A) (A) (A)
                 (A) (A) (A) (A) (A) (A) (A) (A) (A) (A) (A) (A)
                 (A) (A) (A) (A) (A) (A) (A) (A) (A) (A) (A) (A)
                 (A) (A) (A) (A) (A) (A) (A) (A) (A) (A) (A) (A)
                 (A) (A) (A) (A) (A) (A) (A) (A) (A) (A) (A) (A)
                 (A) (A) (A) (A) (A) (A) (A) (A) (A) (A) (A) (A)
                 (A) (A) (A) (A) (A) (A) (A) (A) (A) (A) (A) (A)
                 (A) (A) (A) (A) (A) (A) (A) (A) (A) (A) (A) (A)
                 (A) (A) (A) (A) (A) (A) (A) (A) (A) (A) (A) (A)
                 (A) (A) (A) (A) (A) (A) (A) (A) (A) (A) (A) (A)
                 (A) (A) (A) (A) (A) (A) (A) (A) (A) (A) (A) (A)
                 (A) (A) (A) (A) (A) (A) (A) (A) (A) (A) (A) (A)
                 (A) (A) (A) (A) (A) (A) (A) (A) (A) (A) (A) (A)
                 (A) (A) (A) (A) (A) (A) (A) (A) (A) (A) (A) (A)
                 (A) (A) (A) (A) (A) (A) (A) (A) (A) (A) (A) (A)
                 (A) (A) (A) (A) (A) (A) (A) (A) (A) (A) (A) (A)
                 (A) (A) (A) (A) (A) (A) (A) (A) (A) (A) (A) (A)
                 (A) (A) (A) (A) (A) (A) (A) (A) (A) (A) (A) (A)
                 (A) (A) (A) (A) (A) (A) (A) (A) (A) (A) (A) (A)
                 (A) (A) (A) (A) (A) (A) (A) (A) (A) (A) (A) (A)
                 (A) (A) (A) (A) (A) (A) (A) (A) (A) (A) (A) (A)
                 (A) (A) (A) (A) (A) (A) (A) (A) (A) (A) (A) (A)
                 (A) (A) (A) (A) (A) (A) (A) (A) (A) (A) (A) (A)
                 (A) (A) (A) (A) (A) (A) (A) (A) (A) (A) (A) (A)
                 (A) (A) (A) (A) (A) (A) (A) (A) (A) (A) (A) (A)
                 (A) (A) (A) (A) (A) (A) (A) (A) (A) (A) (A) (A)
                 (A) (A) (A) (A) (A) (A) (A) (A) (A) (A) (A) (A)
                 (A) (A) (A) (A) (A) (A) (A) (A) (A) (A) (A) (A)
                 (A) (A) (A) (A) (A) (A) (A) (A) (A) (A) (A) (A)
                 (A) (A) (A) (A) (A) (A) (A) (A) (A) (A) (A) (A)
                 (A) (A) (A) (A) (A) (A) (A) (A) (A) (A) (A) (A)
                 (A) (A) (A) (A) (A) (A) (A) (A) (A) (A) (A) (A)
                 (A) (A) (A) (A) (A) (A) (A) (A) (A) (A) (A) (A)
                 (A) (A) (A) (A) (A) (A) (A) (A) (A) (A) (A) (A)
                 (A) (A) (A) (A) (A) (A) (A) (A) (A) (A) (A) (A)
                 (A) (A) (A) (A) (A) (A) (A) (A) (A) (A) (A) (A)
                 (A) (A) (A) (A) (A) (A) (A) (A) (A) (A) (A) (A)
                 (A) (A) (A) (A) (A) (A) (A) (A) (A) (A) (A) (A)
                 (A) (A) (A) (A) (A) (A) (A) (A) (A) (A) (A) (A)
                 (A) (A) (A) (A) (A) (A) (A) (A) (A) (A) (A) (A)
                 (A) (A) (A) (A) (A) (A) (A) (A) (A) (A) (A) (A)
                 (A) (A) (A) (A) (A) (A) (A) (A) (A) (A) (A) (A)
                 (A) (A) (A) (A) (A) (A) (A) (A)
 The electronic state is 1-A.
 Alpha  occ. eigenvalues --  -88.97053 -88.94558 -19.23386 -19.22161 -19.21207
 Alpha  occ. eigenvalues --  -19.21056 -19.18682 -19.18090 -19.17329 -19.16765
 Alpha  occ. eigenvalues --  -19.15735 -19.12136 -19.11984 -14.42983 -14.38875
 Alpha  occ. eigenvalues --  -10.35337 -10.35263 -10.32618 -10.30171 -10.29032
 Alpha  occ. eigenvalues --  -10.28474 -10.28185 -10.26007 -10.25942 -10.25411
 Alpha  occ. eigenvalues --  -10.24891 -10.24859 -10.24733 -10.24683 -10.24554
 Alpha  occ. eigenvalues --  -10.24383 -10.24326 -10.24128 -10.24088 -10.23993
 Alpha  occ. eigenvalues --  -10.23955 -10.23950 -10.23924 -10.23861 -10.23812
 Alpha  occ. eigenvalues --  -10.23750 -10.23748 -10.23711 -10.23663 -10.23522
 Alpha  occ. eigenvalues --  -10.23336 -10.23290 -10.23260 -10.23241 -10.23160
 Alpha  occ. eigenvalues --  -10.23068 -10.23043 -10.22995 -10.22920 -10.22849
 Alpha  occ. eigenvalues --  -10.22842 -10.22841 -10.22731 -10.22686 -10.22672
 Alpha  occ. eigenvalues --  -10.22501 -10.22464 -10.22396 -10.22346 -10.22344
 Alpha  occ. eigenvalues --  -10.22332 -10.22310 -10.22264 -10.22262 -10.22238
 Alpha  occ. eigenvalues --  -10.22233 -10.22192 -10.22175 -10.22170 -10.22002
 Alpha  occ. eigenvalues --  -10.21931 -10.21922 -10.21887 -10.21881 -10.21578
 Alpha  occ. eigenvalues --  -10.21531 -10.21448 -10.21433 -10.21403 -10.21383
 Alpha  occ. eigenvalues --  -10.21365 -10.21293 -10.21280 -10.21072 -10.21018
 Alpha  occ. eigenvalues --  -10.20970 -10.20948 -10.20823 -10.20709 -10.20665
 Alpha  occ. eigenvalues --  -10.20623 -10.20604 -10.20576 -10.20559 -10.20535
 Alpha  occ. eigenvalues --  -10.20312 -10.20299 -10.20219 -10.20196 -10.19745
 Alpha  occ. eigenvalues --  -10.19732 -10.19540 -10.19424 -10.19274 -10.19108
 Alpha  occ. eigenvalues --  -10.18972  -7.98806  -7.96385  -5.93867  -5.93476
 Alpha  occ. eigenvalues --   -5.92797  -5.91434  -5.91046  -5.90381  -1.12380
 Alpha  occ. eigenvalues --   -1.09856  -1.08494  -1.07950  -1.07442  -1.03360
 Alpha  occ. eigenvalues --   -1.02987  -1.02630  -1.00639  -0.98878  -0.98509
 Alpha  occ. eigenvalues --   -0.97554  -0.93820  -0.89855  -0.89274  -0.88750
 Alpha  occ. eigenvalues --   -0.88450  -0.86907  -0.85946  -0.85326  -0.85045
 Alpha  occ. eigenvalues --   -0.84000  -0.83835  -0.83562  -0.83495  -0.83230
 Alpha  occ. eigenvalues --   -0.82788  -0.82397  -0.82133  -0.81897  -0.81679
 Alpha  occ. eigenvalues --   -0.81501  -0.81450  -0.81148  -0.80317  -0.79806
 Alpha  occ. eigenvalues --   -0.78839  -0.78425  -0.77614  -0.77440  -0.77059
 Alpha  occ. eigenvalues --   -0.76837  -0.76696  -0.76479  -0.76145  -0.76102
 Alpha  occ. eigenvalues --   -0.75984  -0.75889  -0.75341  -0.74549  -0.74314
 Alpha  occ. eigenvalues --   -0.74139  -0.73119  -0.72601  -0.72490  -0.72244
 Alpha  occ. eigenvalues --   -0.71930  -0.71436  -0.71428  -0.71404  -0.71028
 Alpha  occ. eigenvalues --   -0.70871  -0.70692  -0.70215  -0.69760  -0.69569
 Alpha  occ. eigenvalues --   -0.69129  -0.69035  -0.68263  -0.68030  -0.67444
 Alpha  occ. eigenvalues --   -0.66487  -0.66167  -0.65683  -0.65611  -0.65360
 Alpha  occ. eigenvalues --   -0.65042  -0.64900  -0.63942  -0.63819  -0.63577
 Alpha  occ. eigenvalues --   -0.63438  -0.62903  -0.62704  -0.62616  -0.62298
 Alpha  occ. eigenvalues --   -0.62033  -0.61281  -0.60425  -0.60276  -0.60084
 Alpha  occ. eigenvalues --   -0.59924  -0.59885  -0.59451  -0.59010  -0.58744
 Alpha  occ. eigenvalues --   -0.58633  -0.58536  -0.57967  -0.57841  -0.57392
 Alpha  occ. eigenvalues --   -0.56792  -0.56710  -0.56101  -0.56029  -0.55916
 Alpha  occ. eigenvalues --   -0.54358  -0.53597  -0.53311  -0.53155  -0.52810
 Alpha  occ. eigenvalues --   -0.52169  -0.51761  -0.51680  -0.51544  -0.51083
 Alpha  occ. eigenvalues --   -0.50459  -0.50339  -0.50204  -0.50072  -0.49866
 Alpha  occ. eigenvalues --   -0.49693  -0.49574  -0.49422  -0.49249  -0.49175
 Alpha  occ. eigenvalues --   -0.49079  -0.49064  -0.48755  -0.48712  -0.48522
 Alpha  occ. eigenvalues --   -0.48486  -0.48360  -0.48164  -0.47982  -0.47935
 Alpha  occ. eigenvalues --   -0.47691  -0.47613  -0.47245  -0.47199  -0.47138
 Alpha  occ. eigenvalues --   -0.47039  -0.46834  -0.46776  -0.46436  -0.46205
 Alpha  occ. eigenvalues --   -0.46163  -0.46003  -0.45815  -0.45810  -0.45733
 Alpha  occ. eigenvalues --   -0.45626  -0.45588  -0.45380  -0.45259  -0.45208
 Alpha  occ. eigenvalues --   -0.45134  -0.45039  -0.44946  -0.44855  -0.44792
 Alpha  occ. eigenvalues --   -0.44783  -0.44651  -0.44564  -0.44476  -0.44403
 Alpha  occ. eigenvalues --   -0.44286  -0.44210  -0.44132  -0.44037  -0.43796
 Alpha  occ. eigenvalues --   -0.43545  -0.43499  -0.43489  -0.43408  -0.43326
 Alpha  occ. eigenvalues --   -0.43171  -0.43124  -0.43065  -0.43026  -0.42979
 Alpha  occ. eigenvalues --   -0.42953  -0.42814  -0.42673  -0.42638  -0.42505
 Alpha  occ. eigenvalues --   -0.42197  -0.42098  -0.41898  -0.41872  -0.41671
 Alpha  occ. eigenvalues --   -0.41554  -0.41473  -0.41377  -0.41313  -0.41220
 Alpha  occ. eigenvalues --   -0.41180  -0.41108  -0.40913  -0.40837  -0.40751
 Alpha  occ. eigenvalues --   -0.40651  -0.40589  -0.40533  -0.40321  -0.40170
 Alpha  occ. eigenvalues --   -0.40114  -0.40000  -0.39954  -0.39705  -0.39682
 Alpha  occ. eigenvalues --   -0.39616  -0.39535  -0.39140  -0.39075  -0.39009
 Alpha  occ. eigenvalues --   -0.38959  -0.38854  -0.38795  -0.38731  -0.38608
 Alpha  occ. eigenvalues --   -0.38393  -0.38338  -0.38248  -0.38128  -0.37982
 Alpha  occ. eigenvalues --   -0.37904  -0.37796  -0.37775  -0.37678  -0.37625
 Alpha  occ. eigenvalues --   -0.37410  -0.37338  -0.37249  -0.37051  -0.36953
 Alpha  occ. eigenvalues --   -0.36757  -0.36614  -0.36607  -0.36551  -0.36540
 Alpha  occ. eigenvalues --   -0.36468  -0.36418  -0.36361  -0.36334  -0.36282
 Alpha  occ. eigenvalues --   -0.36100  -0.36070  -0.35963  -0.35875  -0.35785
 Alpha  occ. eigenvalues --   -0.35737  -0.35680  -0.35526  -0.35401  -0.35372
 Alpha  occ. eigenvalues --   -0.35264  -0.35109  -0.35036  -0.34809  -0.34685
 Alpha  occ. eigenvalues --   -0.34598  -0.34546  -0.34441  -0.34414  -0.34274
 Alpha  occ. eigenvalues --   -0.34231  -0.34167  -0.34151  -0.34054  -0.33996
 Alpha  occ. eigenvalues --   -0.33969  -0.33911  -0.33847  -0.33745  -0.33731
 Alpha  occ. eigenvalues --   -0.33646  -0.33574  -0.33519  -0.33486  -0.33326
 Alpha  occ. eigenvalues --   -0.33308  -0.32979  -0.32711  -0.32585  -0.32366
 Alpha  occ. eigenvalues --   -0.32271  -0.32236  -0.32040  -0.31992  -0.31949
 Alpha  occ. eigenvalues --   -0.31777  -0.31702  -0.31357  -0.31248  -0.31194
 Alpha  occ. eigenvalues --   -0.31063  -0.29927  -0.29669  -0.29217  -0.28822
 Alpha  occ. eigenvalues --   -0.28700  -0.28496  -0.28266  -0.28062  -0.27669
 Alpha  occ. eigenvalues --   -0.27298  -0.26993  -0.26692  -0.26449  -0.25785
 Alpha  occ. eigenvalues --   -0.25516  -0.25328  -0.24960  -0.24429  -0.23729
 Alpha  occ. eigenvalues --   -0.23117  -0.23099  -0.22392  -0.22013  -0.21598
 Alpha  occ. eigenvalues --   -0.21094  -0.20576  -0.18326
 Alpha virt. eigenvalues --    0.08334   0.12332   0.13460   0.13879   0.14021
 Alpha virt. eigenvalues --    0.14161   0.14273   0.15121   0.15472   0.16639
 Alpha virt. eigenvalues --    0.16794   0.17625   0.17984   0.18059   0.18993
 Alpha virt. eigenvalues --    0.19466   0.19814   0.20022   0.20147   0.20546
 Alpha virt. eigenvalues --    0.20592   0.21008   0.21416   0.21584   0.21785
 Alpha virt. eigenvalues --    0.21909   0.22324   0.22408   0.22545   0.22618
 Alpha virt. eigenvalues --    0.22918   0.23112   0.23357   0.23509   0.23599
 Alpha virt. eigenvalues --    0.23845   0.23886   0.24008   0.24226   0.24266
 Alpha virt. eigenvalues --    0.24529   0.24782   0.24842   0.24920   0.24972
 Alpha virt. eigenvalues --    0.25292   0.25335   0.25532   0.25650   0.25750
 Alpha virt. eigenvalues --    0.25873   0.26059   0.26231   0.26369   0.26471
 Alpha virt. eigenvalues --    0.26621   0.26693   0.26779   0.27024   0.27176
 Alpha virt. eigenvalues --    0.27330   0.27437   0.27526   0.27764   0.27792
 Alpha virt. eigenvalues --    0.27969   0.28007   0.28102   0.28312   0.28412
 Alpha virt. eigenvalues --    0.28487   0.28581   0.28669   0.28851   0.28921
 Alpha virt. eigenvalues --    0.28940   0.29022   0.29074   0.29230   0.29304
 Alpha virt. eigenvalues --    0.29435   0.29520   0.29622   0.29752   0.29762
 Alpha virt. eigenvalues --    0.29922   0.29965   0.30015   0.30097   0.30256
 Alpha virt. eigenvalues --    0.30328   0.30418   0.30501   0.30526   0.30614
 Alpha virt. eigenvalues --    0.30710   0.30744   0.30824   0.30954   0.30986
 Alpha virt. eigenvalues --    0.31166   0.31293   0.31330   0.31384   0.31449
 Alpha virt. eigenvalues --    0.31488   0.31568   0.31657   0.31758   0.31806
 Alpha virt. eigenvalues --    0.31835   0.31941   0.32029   0.32054   0.32137
 Alpha virt. eigenvalues --    0.32230   0.32362   0.32466   0.32520   0.32570
 Alpha virt. eigenvalues --    0.32578   0.32668   0.32758   0.32824   0.32889
 Alpha virt. eigenvalues --    0.32976   0.33085   0.33177   0.33319   0.33433
 Alpha virt. eigenvalues --    0.33489   0.33615   0.33663   0.33752   0.33832
 Alpha virt. eigenvalues --    0.33951   0.33993   0.34104   0.34201   0.34263
 Alpha virt. eigenvalues --    0.34365   0.34412   0.34600   0.34641   0.34691
 Alpha virt. eigenvalues --    0.34769   0.34806   0.34874   0.34942   0.35196
 Alpha virt. eigenvalues --    0.35326   0.35415   0.35560   0.35623   0.35659
 Alpha virt. eigenvalues --    0.35691   0.35913   0.36017   0.36118   0.36171
 Alpha virt. eigenvalues --    0.36255   0.36322   0.36374   0.36518   0.36622
 Alpha virt. eigenvalues --    0.36666   0.36726   0.36877   0.37037   0.37108
 Alpha virt. eigenvalues --    0.37217   0.37393   0.37416   0.37571   0.37617
 Alpha virt. eigenvalues --    0.37677   0.37773   0.37821   0.37988   0.38038
 Alpha virt. eigenvalues --    0.38096   0.38296   0.38349   0.38451   0.38508
 Alpha virt. eigenvalues --    0.38637   0.38710   0.38818   0.38853   0.38988
 Alpha virt. eigenvalues --    0.39103   0.39210   0.39316   0.39429   0.39568
 Alpha virt. eigenvalues --    0.39645   0.39719   0.39753   0.39897   0.40088
 Alpha virt. eigenvalues --    0.40161   0.40174   0.40292   0.40415   0.40510
 Alpha virt. eigenvalues --    0.40559   0.40715   0.40912   0.41027   0.41144
 Alpha virt. eigenvalues --    0.41276   0.41367   0.41434   0.41571   0.41733
 Alpha virt. eigenvalues --    0.41746   0.41810   0.42131   0.42235   0.42440
 Alpha virt. eigenvalues --    0.42533   0.42610   0.42717   0.42842   0.42892
 Alpha virt. eigenvalues --    0.42976   0.43095   0.43207   0.43269   0.43484
 Alpha virt. eigenvalues --    0.43556   0.43822   0.43929   0.44125   0.44252
 Alpha virt. eigenvalues --    0.44398   0.44724   0.44893   0.44961   0.45207
 Alpha virt. eigenvalues --    0.45244   0.45415   0.45508   0.45845   0.46080
 Alpha virt. eigenvalues --    0.46454   0.46590   0.46671   0.47045   0.47159
 Alpha virt. eigenvalues --    0.47203   0.47502   0.47642   0.47806   0.47936
 Alpha virt. eigenvalues --    0.48231   0.48416   0.48516   0.48599   0.48839
 Alpha virt. eigenvalues --    0.48926   0.49230   0.49383   0.49633   0.49932
 Alpha virt. eigenvalues --    0.50305   0.50441   0.50683   0.50982   0.51065
 Alpha virt. eigenvalues --    0.51316   0.51456   0.51777   0.51993   0.52647
 Alpha virt. eigenvalues --    0.53112   0.53353   0.53902   0.54167   0.54499
 Alpha virt. eigenvalues --    0.55655   0.56300   0.56566   0.57134   0.57667
 Alpha virt. eigenvalues --    0.57861   0.58505   0.58958   0.59616   0.59874
 Alpha virt. eigenvalues --    0.60833   0.60974   0.61318   0.61552   0.61715
 Alpha virt. eigenvalues --    0.61823   0.62051   0.62767   0.62950   0.63070
 Alpha virt. eigenvalues --    0.63590   0.63915   0.63937   0.64180   0.64401
 Alpha virt. eigenvalues --    0.64503   0.64784   0.64862   0.65069   0.65197
 Alpha virt. eigenvalues --    0.65323   0.65357   0.65518   0.65658   0.65781
 Alpha virt. eigenvalues --    0.66100   0.66182   0.66270   0.66440   0.66537
 Alpha virt. eigenvalues --    0.66681   0.66760   0.66907   0.66997   0.67190
 Alpha virt. eigenvalues --    0.67358   0.67464   0.67588   0.67746   0.67771
 Alpha virt. eigenvalues --    0.67797   0.67958   0.68143   0.68175   0.68449
 Alpha virt. eigenvalues --    0.68715   0.68883   0.68941   0.69013   0.69082
 Alpha virt. eigenvalues --    0.69298   0.69460   0.69572   0.69604   0.69721
 Alpha virt. eigenvalues --    0.69771   0.69864   0.70077   0.70258   0.70327
 Alpha virt. eigenvalues --    0.70594   0.70698   0.70799   0.70905   0.71033
 Alpha virt. eigenvalues --    0.71202   0.71319   0.71583   0.71663   0.71760
 Alpha virt. eigenvalues --    0.71844   0.72047   0.72261   0.72382   0.72579
 Alpha virt. eigenvalues --    0.72832   0.72869   0.72975   0.73124   0.73227
 Alpha virt. eigenvalues --    0.73404   0.73499   0.73662   0.73716   0.73800
 Alpha virt. eigenvalues --    0.73986   0.74124   0.74283   0.74391   0.74565
 Alpha virt. eigenvalues --    0.74647   0.74739   0.74837   0.74914   0.75256
 Alpha virt. eigenvalues --    0.75332   0.75431   0.75588   0.75767   0.75911
 Alpha virt. eigenvalues --    0.76047   0.76173   0.76239   0.76301   0.76391
 Alpha virt. eigenvalues --    0.76568   0.76765   0.76878   0.76940   0.77009
 Alpha virt. eigenvalues --    0.77249   0.77312   0.77499   0.77634   0.77711
 Alpha virt. eigenvalues --    0.77770   0.77909   0.78107   0.78379   0.78456
 Alpha virt. eigenvalues --    0.78638   0.78693   0.78795   0.78996   0.79114
 Alpha virt. eigenvalues --    0.79225   0.79299   0.79562   0.79586   0.79861
 Alpha virt. eigenvalues --    0.79954   0.80073   0.80312   0.80377   0.80486
 Alpha virt. eigenvalues --    0.80609   0.80782   0.80888   0.81029   0.81256
 Alpha virt. eigenvalues --    0.81481   0.81654   0.81765   0.81829   0.81861
 Alpha virt. eigenvalues --    0.82011   0.82084   0.82328   0.82439   0.82518
 Alpha virt. eigenvalues --    0.82611   0.82826   0.82981   0.83174   0.83381
 Alpha virt. eigenvalues --    0.83481   0.83684   0.83732   0.83878   0.83960
 Alpha virt. eigenvalues --    0.84105   0.84196   0.84281   0.84463   0.84547
 Alpha virt. eigenvalues --    0.84676   0.84847   0.84872   0.85117   0.85239
 Alpha virt. eigenvalues --    0.85367   0.85578   0.85707   0.85870   0.86035
 Alpha virt. eigenvalues --    0.86155   0.86196   0.86362   0.86699   0.86736
 Alpha virt. eigenvalues --    0.86823   0.87011   0.87211   0.87432   0.87542
 Alpha virt. eigenvalues --    0.87670   0.87800   0.87978   0.88242   0.88302
 Alpha virt. eigenvalues --    0.88361   0.88501   0.88678   0.88854   0.88956
 Alpha virt. eigenvalues --    0.89188   0.89399   0.89443   0.89729   0.89769
 Alpha virt. eigenvalues --    0.89906   0.90225   0.90391   0.90512   0.90610
 Alpha virt. eigenvalues --    0.90820   0.91038   0.91157   0.91290   0.91461
 Alpha virt. eigenvalues --    0.91611   0.91823   0.92200   0.92282   0.92473
 Alpha virt. eigenvalues --    0.92699   0.92994   0.93143   0.93341   0.93479
 Alpha virt. eigenvalues --    0.93591   0.93619   0.93726   0.93784   0.94062
 Alpha virt. eigenvalues --    0.94269   0.94349   0.94454   0.94621   0.94860
 Alpha virt. eigenvalues --    0.94939   0.95017   0.95309   0.95644   0.95722
 Alpha virt. eigenvalues --    0.95928   0.96086   0.96132   0.96368   0.96478
 Alpha virt. eigenvalues --    0.96619   0.96706   0.97223   0.97453   0.97536
 Alpha virt. eigenvalues --    0.97578   0.97981   0.98130   0.98220   0.98394
 Alpha virt. eigenvalues --    0.98541   0.98710   0.98739   0.98920   0.99169
 Alpha virt. eigenvalues --    0.99261   0.99349   0.99505   0.99624   0.99812
 Alpha virt. eigenvalues --    0.99958   1.00080   1.00209   1.00389   1.00477
 Alpha virt. eigenvalues --    1.00575   1.00704   1.00983   1.01072   1.01204
 Alpha virt. eigenvalues --    1.01233   1.01459   1.01595   1.01760   1.01830
 Alpha virt. eigenvalues --    1.01885   1.02016   1.02084   1.02151   1.02298
 Alpha virt. eigenvalues --    1.02467   1.02561   1.02768   1.02882   1.02968
 Alpha virt. eigenvalues --    1.03182   1.03225   1.03424   1.03573   1.03706
 Alpha virt. eigenvalues --    1.03783   1.03927   1.04011   1.04115   1.04219
 Alpha virt. eigenvalues --    1.04285   1.04294   1.04389   1.04597   1.04680
 Alpha virt. eigenvalues --    1.04860   1.04963   1.05069   1.05136   1.05206
 Alpha virt. eigenvalues --    1.05243   1.05377   1.05470   1.05517   1.05576
 Alpha virt. eigenvalues --    1.05703   1.05813   1.05944   1.05990   1.06139
 Alpha virt. eigenvalues --    1.06182   1.06292   1.06436   1.06522   1.06634
 Alpha virt. eigenvalues --    1.06663   1.06780   1.06926   1.06995   1.07106
 Alpha virt. eigenvalues --    1.07204   1.07298   1.07361   1.07418   1.07660
 Alpha virt. eigenvalues --    1.07763   1.07786   1.07957   1.08027   1.08166
 Alpha virt. eigenvalues --    1.08316   1.08349   1.08516   1.08571   1.08770
 Alpha virt. eigenvalues --    1.08924   1.08935   1.09062   1.09170   1.09254
 Alpha virt. eigenvalues --    1.09391   1.09502   1.09608   1.09728   1.09761
 Alpha virt. eigenvalues --    1.09918   1.09944   1.10014   1.10071   1.10191
 Alpha virt. eigenvalues --    1.10257   1.10352   1.10516   1.10674   1.10713
 Alpha virt. eigenvalues --    1.10781   1.11091   1.11211   1.11395   1.11434
 Alpha virt. eigenvalues --    1.11508   1.11617   1.11716   1.11880   1.12023
 Alpha virt. eigenvalues --    1.12066   1.12181   1.12307   1.12409   1.12570
 Alpha virt. eigenvalues --    1.12581   1.12640   1.12739   1.12884   1.13061
 Alpha virt. eigenvalues --    1.13142   1.13256   1.13574   1.13732   1.13776
 Alpha virt. eigenvalues --    1.13855   1.14130   1.14182   1.14268   1.14488
 Alpha virt. eigenvalues --    1.14543   1.14684   1.14751   1.14813   1.14988
 Alpha virt. eigenvalues --    1.15118   1.15318   1.15553   1.15856   1.15960
 Alpha virt. eigenvalues --    1.15973   1.16220   1.16231   1.16494   1.16586
 Alpha virt. eigenvalues --    1.16688   1.16950   1.16985   1.17223   1.17390
 Alpha virt. eigenvalues --    1.17603   1.17752   1.17930   1.17999   1.18183
 Alpha virt. eigenvalues --    1.18275   1.18444   1.18607   1.18751   1.18842
 Alpha virt. eigenvalues --    1.19004   1.19051   1.19242   1.19364   1.19495
 Alpha virt. eigenvalues --    1.19797   1.19894   1.20110   1.20380   1.20571
 Alpha virt. eigenvalues --    1.20657   1.20935   1.21109   1.21269   1.21432
 Alpha virt. eigenvalues --    1.21704   1.21826   1.21948   1.22185   1.22341
 Alpha virt. eigenvalues --    1.22535   1.22687   1.22792   1.23088   1.23188
 Alpha virt. eigenvalues --    1.23394   1.23683   1.23902   1.24230   1.24369
 Alpha virt. eigenvalues --    1.24597   1.24769   1.24863   1.25021   1.25190
 Alpha virt. eigenvalues --    1.25544   1.25773   1.25849   1.25992   1.26326
 Alpha virt. eigenvalues --    1.26354   1.26738   1.27018   1.27369   1.27395
 Alpha virt. eigenvalues --    1.27488   1.27871   1.27996   1.28108   1.28311
 Alpha virt. eigenvalues --    1.28767   1.28976   1.29163   1.29249   1.29427
 Alpha virt. eigenvalues --    1.29750   1.29809   1.29972   1.30161   1.30289
 Alpha virt. eigenvalues --    1.30825   1.31119   1.31245   1.31396   1.31725
 Alpha virt. eigenvalues --    1.32009   1.32422   1.32728   1.32801   1.33056
 Alpha virt. eigenvalues --    1.33227   1.33853   1.33982   1.34412   1.34611
 Alpha virt. eigenvalues --    1.34834   1.35079   1.35196   1.35580   1.35852
 Alpha virt. eigenvalues --    1.36055   1.36345   1.36574   1.36663   1.37098
 Alpha virt. eigenvalues --    1.37188   1.37590   1.37835   1.38052   1.38459
 Alpha virt. eigenvalues --    1.38699   1.38936   1.39233   1.39329   1.39653
 Alpha virt. eigenvalues --    1.39721   1.40015   1.40183   1.40377   1.40447
 Alpha virt. eigenvalues --    1.40725   1.41201   1.41430   1.41610   1.41767
 Alpha virt. eigenvalues --    1.42003   1.42344   1.42654   1.42674   1.42988
 Alpha virt. eigenvalues --    1.43229   1.43718   1.43876   1.44633   1.45239
 Alpha virt. eigenvalues --    1.45423   1.46075   1.46400   1.46709   1.47096
 Alpha virt. eigenvalues --    1.47494   1.47914   1.48155   1.48623   1.49102
 Alpha virt. eigenvalues --    1.49211   1.49498   1.49960   1.50168   1.50510
 Alpha virt. eigenvalues --    1.50666   1.51036   1.51516   1.51680   1.51984
 Alpha virt. eigenvalues --    1.52212   1.52609   1.52662   1.52965   1.53190
 Alpha virt. eigenvalues --    1.53515   1.53803   1.53964   1.54117   1.54398
 Alpha virt. eigenvalues --    1.54912   1.55389   1.55847   1.56246   1.56568
 Alpha virt. eigenvalues --    1.56818   1.56905   1.57029   1.57131   1.57349
 Alpha virt. eigenvalues --    1.57674   1.57822   1.58064   1.58116   1.58393
 Alpha virt. eigenvalues --    1.58708   1.58861   1.58954   1.59146   1.59228
 Alpha virt. eigenvalues --    1.59293   1.59526   1.59603   1.59781   1.59920
 Alpha virt. eigenvalues --    1.60107   1.60239   1.60257   1.60377   1.60678
 Alpha virt. eigenvalues --    1.60952   1.61033   1.61219   1.61361   1.61494
 Alpha virt. eigenvalues --    1.61572   1.61729   1.61833   1.61912   1.62113
 Alpha virt. eigenvalues --    1.62382   1.62639   1.62850   1.63027   1.63231
 Alpha virt. eigenvalues --    1.63494   1.63681   1.63830   1.64134   1.64198
 Alpha virt. eigenvalues --    1.64493   1.64728   1.64844   1.65212   1.65249
 Alpha virt. eigenvalues --    1.65473   1.65566   1.65726   1.65795   1.65850
 Alpha virt. eigenvalues --    1.66084   1.66336   1.66582   1.66932   1.66962
 Alpha virt. eigenvalues --    1.67422   1.67462   1.67684   1.67914   1.67968
 Alpha virt. eigenvalues --    1.68050   1.68610   1.68745   1.68838   1.69328
 Alpha virt. eigenvalues --    1.69542   1.69853   1.69979   1.70208   1.70344
 Alpha virt. eigenvalues --    1.70628   1.70753   1.71408   1.72166   1.73195
 Alpha virt. eigenvalues --    1.73746   1.74096   1.74351   1.75088   1.75418
 Alpha virt. eigenvalues --    1.76075   1.76895   1.77486   1.77619   1.78208
 Alpha virt. eigenvalues --    1.78387   1.78954   1.79555   1.79762   1.80164
 Alpha virt. eigenvalues --    1.80343   1.81645   1.81963   1.82592   1.82689
 Alpha virt. eigenvalues --    1.82929   1.83790   1.83959   1.84414   1.84571
 Alpha virt. eigenvalues --    1.84701   1.85220   1.85484   1.85779   1.86179
 Alpha virt. eigenvalues --    1.86440   1.86675   1.86899   1.87006   1.87168
 Alpha virt. eigenvalues --    1.87302   1.87445   1.87792   1.87929   1.87970
 Alpha virt. eigenvalues --    1.88121   1.88414   1.88519   1.88607   1.88655
 Alpha virt. eigenvalues --    1.88960   1.89220   1.90180   1.90243   1.90342
 Alpha virt. eigenvalues --    1.90618   1.90647   1.90860   1.91072   1.91372
 Alpha virt. eigenvalues --    1.91812   1.92081   1.92316   1.92528   1.92786
 Alpha virt. eigenvalues --    1.93056   1.93328   1.93577   1.94251   1.94375
 Alpha virt. eigenvalues --    1.94908   1.95028   1.95146   1.95306   1.95461
 Alpha virt. eigenvalues --    1.95739   1.95836   1.95983   1.96029   1.96272
 Alpha virt. eigenvalues --    1.96491   1.96618   1.96883   1.96950   1.97116
 Alpha virt. eigenvalues --    1.97207   1.97371   1.97595   1.97805   1.98036
 Alpha virt. eigenvalues --    1.98194   1.98388   1.98596   1.98835   1.98965
 Alpha virt. eigenvalues --    1.99200   1.99297   1.99480   1.99651   1.99742
 Alpha virt. eigenvalues --    1.99931   2.00032   2.00348   2.00390   2.00672
 Alpha virt. eigenvalues --    2.01018   2.01578   2.01726   2.02057   2.02246
 Alpha virt. eigenvalues --    2.02389   2.02979   2.03103   2.03215   2.03588
 Alpha virt. eigenvalues --    2.04120   2.04411   2.04837   2.04977   2.05199
 Alpha virt. eigenvalues --    2.05360   2.05573   2.05757   2.06233   2.06617
 Alpha virt. eigenvalues --    2.06672   2.07171   2.07306   2.07732   2.08005
 Alpha virt. eigenvalues --    2.08256   2.08394   2.08498   2.08671   2.08868
 Alpha virt. eigenvalues --    2.09117   2.09311   2.09434   2.09571   2.09686
 Alpha virt. eigenvalues --    2.09945   2.10070   2.10095   2.10218   2.10398
 Alpha virt. eigenvalues --    2.10464   2.10705   2.10918   2.10952   2.11044
 Alpha virt. eigenvalues --    2.11143   2.11194   2.11303   2.11407   2.11456
 Alpha virt. eigenvalues --    2.11664   2.11735   2.11838   2.12108   2.12147
 Alpha virt. eigenvalues --    2.12368   2.12475   2.12537   2.12672   2.12769
 Alpha virt. eigenvalues --    2.12889   2.12949   2.13398   2.13616   2.14042
 Alpha virt. eigenvalues --    2.14186   2.14399   2.14442   2.14520   2.14892
 Alpha virt. eigenvalues --    2.14910   2.15018   2.15074   2.15348   2.15500
 Alpha virt. eigenvalues --    2.15754   2.16074   2.16088   2.16245   2.16617
 Alpha virt. eigenvalues --    2.16737   2.16948   2.17099   2.17410   2.17475
 Alpha virt. eigenvalues --    2.17539   2.17662   2.17703   2.17845   2.18058
 Alpha virt. eigenvalues --    2.18154   2.18318   2.18454   2.18772   2.19023
 Alpha virt. eigenvalues --    2.19253   2.19517   2.19656   2.19748   2.20051
[...]
  112 Atom       -0.286629      0.140624      0.146005
  113 Atom       -0.298414      0.143792      0.154622
  114 Atom       -0.296081      0.143826      0.152255
  115 Atom       -0.300322      0.144310      0.156012
  116 Atom       -0.232325      0.076860      0.155465
  117 Atom       -0.300943      0.140367      0.160576
  118 Atom       -0.290999      0.142003      0.148996
  119 Atom       -0.289266      0.141708      0.147558
  120 Atom       -0.012927     -0.002978      0.015905
  121 Atom       -0.287564      0.142650      0.144914
  122 Atom       -0.031426     -0.010655      0.042082
  123 Atom       -0.276610      0.136498      0.140112
  124 Atom       -0.030448      0.007128      0.023320
  125 Atom       -0.288125      0.140756      0.147369
  126 Atom       -0.288804      0.141532      0.147272
  127 Atom       -0.288441      0.141323      0.147118
  128 Atom       -0.025877      0.004020      0.021857
  129 Atom       -0.291047      0.142284      0.148763
  130 Atom       -0.289778      0.141224      0.148553
  131 Atom       -0.290193      0.141390      0.148802
  132 Atom       -0.290462      0.143483      0.146980
  133 Atom       -0.289043      0.143882      0.145161
  134 Atom       -0.027767     -0.000536      0.028303
  135 Atom       -0.293857      0.144276      0.149581
  136 Atom       -0.049270     -0.003836      0.053106
  137 Atom       -0.283938      0.138556      0.145382
  138 Atom       -0.283878      0.137390      0.146488
  139 Atom       -0.248885      0.071222      0.177663
  140 Atom       -0.286533      0.135556      0.150977
  141 Atom       -0.266233      0.128444      0.137789
  142 Atom       -2.297884     -0.531113      2.828997
  143 Atom       -0.203433      0.099218      0.104215
  144 Atom       -0.290434      0.141023      0.149411
  145 Atom       -0.292123      0.139549      0.152575
  146 Atom       -0.292716      0.142460      0.150255
  147 Atom       -0.290078      0.142305      0.147774
  148 Atom       -0.293201      0.144620      0.148582
  149 Atom       -0.013804      0.002085      0.011719
  150 Atom       -0.293204      0.144863      0.148341
  151 Atom       -0.039323      0.007947      0.031376
  152 Atom       -0.281841      0.137995      0.143846
  153 Atom       -0.282264      0.137665      0.144599
  154 Atom       -0.030026     -0.001561      0.031587
  155 Atom       -0.277472      0.138080      0.139392
  156 Atom       -0.015223      0.001216      0.014007
  157 Atom       -0.289928      0.141492      0.148436
  158 Atom       -0.292376      0.143026      0.149350
  159 Atom       -0.293162      0.144536      0.148626
  160 Atom       -0.047663      0.007917      0.039746
  161 Atom       -0.290074      0.141989      0.148085
  162 Atom       -0.289345      0.139763      0.149582
  163 Atom       -0.286459      0.138291      0.148168
  164 Atom       -0.290080      0.142796      0.147284
  165 Atom       -0.291082      0.143095      0.147987
  166 Atom       -0.005690     -0.002931      0.008621
  167 Atom       -0.288670      0.142071      0.146599
  168 Atom       -0.039610     -0.014450      0.054059
  169 Atom       -0.276993      0.138326      0.138667
  170 Atom       -0.030964     -0.014144      0.045108
  171 Atom       -0.287718      0.140648      0.147069
  172 Atom       -0.279941      0.137777      0.142164
  173 Atom       -0.292015      0.142936      0.149079
  174 Atom       -0.028890      0.004877      0.024013
  175 Atom       -0.292299      0.142722      0.149578
  176 Atom       -0.292486      0.143260      0.149226
  177 Atom       -0.279245      0.136399      0.142846
  178 Atom       -0.292183      0.143848      0.148335
  179 Atom       -0.293114      0.140942      0.152171
  180 Atom       -0.064190      0.013188      0.051002
  181 Atom       -0.290904      0.140249      0.150655
  182 Atom       -0.050126      0.013914      0.036212
  183 Atom       -0.288332      0.140575      0.147757
  184 Atom       -0.281775      0.136790      0.144985
  185 Atom       -0.406222      0.052162      0.354060
  186 Atom       -0.789716     -0.694438      1.484155
  187 Atom       -1.249343      0.350519      0.898824
  188 Atom       -0.306359      0.132421      0.173938
  189 Atom       -0.294296      0.143461      0.150835
  190 Atom       -0.294260      0.144325      0.149935
  191 Atom       -0.035917     -0.001327      0.037244
  192 Atom       -0.291010      0.142100      0.148910
  193 Atom       -0.037463     -0.005558      0.043022
  194 Atom       -0.283980      0.138764      0.145216
  195 Atom       -0.285788      0.139178      0.146609
  196 Atom       -0.200142      0.077213      0.122929
  197 Atom       -0.287772      0.136612      0.151161
  198 Atom       -0.285144      0.136413      0.148731
  199 Atom       -2.263742     -0.504965      2.768707
  200 Atom       -0.251036      0.090407      0.160629
  201 Atom       -0.295843      0.142391      0.153452
  202 Atom       -0.263688      0.125491      0.138197
  203 Atom       -0.292967      0.140918      0.152049
  204 Atom       -0.288752      0.143475      0.145276
  205 Atom       -0.291709      0.143069      0.148640
  206 Atom       -0.020208      0.001494      0.018714
  207 Atom       -0.293096      0.144292      0.148804
  208 Atom       -0.074923      0.025934      0.048990
  209 Atom       -0.288440      0.141644      0.146797
  210 Atom       -0.290183      0.139357      0.150826
  211 Atom       -0.287013      0.138729      0.148285
  212 Atom       -0.292030      0.142045      0.149986
  213 Atom       -0.292680      0.143604      0.149076
  214 Atom       -0.034704      0.011400      0.023304
  215 Atom       -0.292869      0.143882      0.148987
  216 Atom       -0.038782     -0.003481      0.042263
  217 Atom       -0.283719      0.140369      0.143350
  218 Atom       -0.285093      0.139033      0.146060
  219 Atom       -0.070686      0.005457      0.065229
  220 Atom       -0.120979     -0.095129      0.216108
  221 Atom       -0.311104      0.142487      0.168617
  222 Atom       -0.412377     -0.178868      0.591245
  223 Atom       -0.290598      0.119780      0.170819
  224 Atom       -0.149710     -0.082880      0.232590
  225 Atom       -0.202905      0.070567      0.132338
  226 Atom       -0.304696      0.143530      0.161166
  227 Atom       -0.219653      0.086608      0.133044
  228 Atom       -0.305071      0.142012      0.163059
  229 Atom       -0.188799      0.064654      0.124145
  230 Atom       -0.305933      0.141965      0.163967
  231 Atom       -0.226790      0.081502      0.145288
  232 Atom       -0.304963      0.143295      0.161669
  233 Atom       -0.187245      0.076107      0.111138
  234 Atom       -0.292267      0.142617      0.149650
  235 Atom       -0.585199      0.162316      0.422883
  236 Atom       -0.892859     -0.486374      1.379233
  237 Atom       -0.124687      0.008673      0.116014
  238 Atom       -0.557935      0.247935      0.310001
  239 Atom       -0.074129      0.000305      0.073824
  240 Atom       -0.050410      0.000378      0.050031
  241 Atom       -0.059520      0.006024      0.053496
  242 Atom       -0.093429      0.004018      0.089411
  243 Atom       -0.048295     -0.010163      0.058457
  244 Atom       -0.030140     -0.006030      0.036169
  245 Atom       -0.041771      0.012413      0.029358
  246 Atom       -0.024337      0.006903      0.017434
  247 Atom       -0.025070      0.011054      0.014016
  248 Atom       -0.029495     -0.011627      0.041122
  249 Atom       -0.040306     -0.012663      0.052969
  250 Atom       -0.058680      0.009240      0.049440
  251 Atom       -0.041426     -0.005396      0.046822
  252 Atom       -0.305249      0.134428      0.170821
  253 Atom       -0.044060      0.003260      0.040800
  254 Atom       -1.581050     -0.095359      1.676410
  255 Atom       -0.288230      0.132023      0.156207
  256 Atom       -0.257301      0.123963      0.133338
  257 Atom       -0.279217      0.135744      0.143473
  258 Atom       -0.286584      0.142193      0.144391
  259 Atom       -0.272863      0.132780      0.140083
  260 Atom       -0.290546      0.140496      0.150050
  261 Atom       -0.286738      0.136994      0.149744
  262 Atom       -0.248675      0.121393      0.127282
  263 Atom       -0.280511      0.137704      0.142807
  264 Atom       -0.281380      0.138769      0.142611
  265 Atom       -0.273007      0.133923      0.139084
  266 Atom       -0.269205      0.134354      0.134851
  267 Atom       -0.268019      0.131985      0.136034
  268 Atom       -0.279009      0.136849      0.142160
  269 Atom       -0.280020      0.138237      0.141783
  270 Atom       -0.272736      0.133722      0.139015
  271 Atom       -0.286489      0.139697      0.146792
  272 Atom       -0.293724      0.145388      0.148336
  273 Atom       -0.287300      0.141662      0.145639
  274 Atom       -0.292462      0.143396      0.149066
  275 Atom       -0.291339      0.144146      0.147192
  276 Atom       -0.262802      0.124073      0.138730
  277 Atom       -0.294410      0.141979      0.152431
  278 Atom       -0.293460      0.141338      0.152122
  279 Atom       -0.289889      0.139775      0.150114
  280 Atom       -0.404067      0.174387      0.229679
  281 Atom       -1.301751     -0.189885      1.491637
  282 Atom       -0.442357      0.199629      0.242728
  283 Atom       -0.311693      0.127175      0.184518
  284 Atom       -1.383008     -0.154745      1.537753
  285 Atom       -0.453743      0.198523      0.255220
  286 Atom       -0.355664      0.149023      0.206641
 -----------------------------------------------------
 Unable to Open any file for archive entry.
 1\1\GINC-EXP-10-52\SP\RwB97XD\6-31G(d)\C96H175N2O11S2(1-)\HKLEM\24-Jul
 -2024\0\\# 6-31G(d) wb97xd prop=efg\\19nt_xstal_distance_cutoff4_efg\\
 -1,1\H,0,-5.363242,-5.620753,7.703453\C,-1,-5.518858,-5.18475,6.710199
 \H,0,-5.544615,-4.094855,6.813954\C,0,-4.411938,-5.60804,5.734922\H,0,
 -3.437896,-5.298555,6.133833\H,0,-4.385588,-6.702206,5.662918\C,0,-4.6
 18923,-5.009672,4.364691\C,0,-5.326358,-5.693384,3.374611\H,0,-5.67598
 4,-6.704909,3.570144\C,0,-5.603632,-5.107648,2.144794\H,0,-6.16787,-5.
 638943,1.383983\C,0,-5.17574,-3.805757,1.885374\O,0,-5.507272,-3.24887
 7,0.690533\H,0,-5.124531,-2.334877,0.620756\C,0,-4.437678,-3.114747,2.
 849724\H,0,-4.094697,-2.105241,2.647859\C,0,-4.173543,-3.719313,4.0727
 85\H,0,-3.609529,-3.165676,4.820492\H,0,-6.499431,-5.505862,6.342717\H
 ,0,-0.005412,-6.7852,5.130424\C,-1,0.334594,-5.907718,4.568093\H,0,1.0
 73028,-6.246188,3.829436\C,0,-0.838037,-5.205838,3.87181\H,0,-1.543147
 ,-4.874133,4.646733\C,0,-0.373834,-3.963954,3.107133\H,0,0.321463,-4.2
 37769,2.30277\H,0,-1.228244,-3.449547,2.652465\H,0,0.140687,-3.253848,
 3.764445\C,0,-1.590475,-6.160803,2.942312\H,0,-2.002113,-7.013269,3.49
 5495\H,0,-2.423708,-5.650247,2.446867\H,0,-0.919561,-6.553608,2.167316
 \H,0,0.845066,-5.232706,5.264395\H,0,-4.722746,3.189855,-6.517289\C,-1
 ,-3.810948,2.711824,-6.142458\H,0,-3.033463,3.473707,-6.035809\C,0,-4.
 064199,2.023528,-4.797331\H,0,-4.43638,2.761813,-4.077351\H,0,-4.83251
 7,1.251737,-4.898028\C,0,-2.793621,1.38466,-4.220461\O,0,-1.765824,2.1
 19515,-4.125617\O,0,-2.841462,0.166509,-3.907743\H,0,-3.472524,1.98924
 8,-6.893385\H,0,-0.799982,-7.973521,-3.75319\C,-1,-0.193668,-7.154132,
 -4.154849\H,0,-0.670759,-6.804886,-5.076232\C,0,-0.07732,-6.011461,-3.
 139776\H,0,0.431874,-6.371521,-2.238753\H,0,0.548989,-5.220384,-3.5671
 22\C,0,-1.434822,-5.460969,-2.766961\C,0,-2.047406,-5.774812,-1.553011
 \H,0,-1.512833,-6.379747,-0.823291\C,0,-3.333543,-5.332754,-1.250877\H
 ,0,-3.787159,-5.578493,-0.29292\C,0,-4.034713,-4.550944,-2.171861\O,0,
 -5.279129,-4.071727,-1.931993\H,0,-5.433272,-4.005449,-0.969833\C,0,-3
 .431417,-4.217218,-3.386699\H,0,-3.967577,-3.572914,-4.076091\C,0,-2.1
 51402,-4.669824,-3.674251\H,0,-1.682956,-4.382677,-4.61319\H,0,0.79355
 2,-7.553924,-4.417993\H,0,3.791357,-5.516871,-5.115597\C,-1,4.02699,-4
 .648947,-4.493041\H,0,4.701684,-3.984949,-5.03732\H,0,3.099126,-4.0933
 38,-4.303253\C,0,4.667341,-5.022969,-3.175819\O,0,5.301819,-4.222941,-
 2.491684\N,0,4.481072,-6.31416,-2.794984\H,0,3.882823,-6.889457,-3.368
 829\C,-1,4.886585,-6.844684,-1.50805\H,0,5.488289,-6.069581,-1.028684\
 C,0,3.683766,-7.242847,-0.643705\H,0,3.109072,-8.010779,-1.183117\H,0,
 4.058703,-7.727543,0.268873\C,0,2.743417,-6.09092,-0.258746\H,0,2.4744
 18,-5.550499,-1.17766\C,0,1.453626,-6.631312,0.364004\H,0,1.655436,-7.
 104211,1.334076\H,0,0.734693,-5.821097,0.529078\H,0,0.972333,-7.379952
 ,-0.276661\C,0,3.413583,-5.101337,0.694463\H,0,4.298822,-4.642898,0.24
 7167\H,0,2.727054,-4.289453,0.958025\H,0,3.716783,-5.600014,1.624725\H
 ,0,5.533642,-7.716414,-1.664499\H,0,8.784962,-4.326532,2.391516\C,-1,7
 .994497,-3.724239,2.854621\H,0,8.353454,-2.689125,2.923811\C,0,6.69711
 4,-3.783652,2.036663\H,0,6.363238,-4.831588,2.005629\C,0,5.595698,-2.9
 53232,2.701208\H,0,5.900271,-1.901163,2.768407\H,0,4.666011,-2.993767,
 2.122882\H,0,5.380437,-3.309313,3.715657\C,0,6.923378,-3.315667,0.5978
 25\H,0,7.745401,-3.858614,0.116832\H,0,6.03205,-3.451552,-0.022885\H,0
 ,7.166801,-2.248767,0.575155\H,0,7.838343,-4.092545,3.875369\H,0,-1.39
 4081,5.418274,7.194098\C,-1,-0.470333,4.885497,7.44396\H,0,-0.174064,5
 .172404,8.458934\C,0,-0.666925,3.367873,7.334536\H,0,0.263358,2.861155
 ,7.617718\H,0,-1.426148,3.052383,8.061955\C,0,-1.081828,2.920391,5.949
 789\C,0,-0.194108,2.248546,5.107724\H,0,0.811319,2.026855,5.460126\C,0
 ,-0.579701,1.847786,3.82949\H,0,0.130081,1.331276,3.188511\C,0,-1.8693
 56,2.107112,3.377449\H,0,-2.189023,1.792196,2.389408\C,0,-2.764228,2.7
 81864,4.205427\H,0,-3.764197,2.992211,3.840117\C,0,-2.371221,3.184386,
 5.477044\H,0,-3.077409,3.707576,6.119448\H,0,0.304537,5.224964,6.7485\
 H,0,4.372429,1.911453,5.244378\C,-1,4.926942,2.121396,4.320434\H,0,5.6
 58694,1.316865,4.179332\C,0,3.96742,2.21768,3.129792\H,0,4.560337,2.42
 2191,2.225955\C,0,3.233668,0.893996,2.904854\H,0,2.644435,0.619058,3.7
 90386\H,0,2.545954,0.967322,2.054174\H,0,3.937299,0.079767,2.696465\C,
 0,2.981274,3.369884,3.32483\H,0,3.504439,4.328946,3.417485\H,0,2.28413
 2,3.444907,2.483861\H,0,2.382949,3.225787,4.232381\H,0,5.472602,3.0616
 73,4.467788\H,0,10.080904,0.350505,2.374202\C,-1,10.573016,0.13691,1.4
 19045\H,0,11.468767,-0.457589,1.627872\C,0,9.627694,-0.604645,0.48055\
 H,0,10.148712,-0.853929,-0.453535\H,0,9.336967,-1.559122,0.934375\C,0,
 8.367149,0.174432,0.104741\H,0,8.627099,1.112063,-0.400271\H,0,7.76670
 3,-0.408255,-0.601426\S,0,7.283682,0.600974,1.520963\C,0,7.706991,2.34
 9445,1.76006\H,0,7.444663,2.937454,0.875368\H,0,7.115782,2.712611,2.60
 4516\H,0,8.768172,2.480421,1.989575\H,0,10.896937,1.090117,0.982543\H,
 0,6.70587,6.445409,2.081579\C,-1,5.676174,6.73969,1.849475\H,0,5.7155,
 7.709999,1.343895\C,0,4.983899,5.681542,0.989648\H,0,5.492918,5.613174
 ,0.017133\H,0,5.098719,4.696447,1.463186\C,0,3.48863,5.928876,0.739753
 \H,0,2.972889,5.88911,1.711233\C,0,3.225877,7.308486,0.1343\H,0,3.7902
 92,7.435221,-0.797832\H,0,2.163814,7.422067,-0.104981\H,0,3.505185,8.1
 17596,0.818027\C,0,2.91541,4.823909,-0.147945\H,0,3.029419,3.841682,0.
 325969\H,0,1.851952,4.979506,-0.351217\H,0,3.424008,4.795803,-1.118586
 \H,0,5.14648,6.880226,2.800109\H,0,0.373979,6.951311,2.723495\C,-1,-0.
 67771,6.990336,2.414539\H,0,-0.722655,7.511517,1.45039\C,0,-1.270804,5
 .582927,2.294685\H,0,-1.21989,5.10306,3.281821\C,0,-2.74028,5.634892,1
 .869989\H,0,-2.834771,6.092338,0.875046\H,0,-3.179782,4.632234,1.82129
 2\H,0,-3.33787,6.231284,2.570914\C,0,-0.458004,4.732852,1.318873\H,0,0
 .593271,4.681696,1.623398\H,0,-0.844101,3.708941,1.279224\H,0,-0.49648
 1,5.150711,0.303594\H,0,-1.22564,7.59374,3.148506\H,0,-6.219522,4.3763
 3,3.178939\C,-1,-6.650265,4.377263,2.172318\H,0,-5.90731,4.816464,1.50
 0922\C,0,-7.005163,2.969647,1.728099\H,0,-7.739859,2.499196,2.389914\H
 ,0,-7.454767,2.978119,0.725764\C,0,-5.797822,2.068622,1.633253\O,0,-4.
 649904,2.469188,1.575936\O,0,-6.136033,0.790561,1.594427\H,0,-5.348208
 ,0.266209,1.290346\H,0,-7.537235,5.018652,2.180518\H,0,-11.054672,0.14
 1611,-2.478034\C,-1,-10.168112,0.508918,-1.950034\H,0,-10.505004,1.043
 705,-1.05359\C,0,-9.230134,-0.639954,-1.575487\H,0,-9.762942,-1.344597
 ,-0.922132\H,0,-8.950158,-1.203233,-2.474035\C,0,-7.964086,-0.18502,-0
 .84394\H,0,-8.220412,0.494569,-0.024411\H,0,-7.452172,-1.037624,-0.384
 564\S,0,-6.738548,0.701601,-1.865016\C,0,-5.86818,-0.702797,-2.618887\
 H,0,-6.481312,-1.199231,-3.376013\H,0,-4.949357,-0.329205,-3.085126\H,
 0,-5.59565,-1.434989,-1.854073\H,0,-9.656829,1.227672,-2.599311\H,0,-5
 .63863,4.339621,-2.830914\C,-1,-5.096027,4.702924,-1.951328\H,0,-5.839
 552,4.941086,-1.181795\C,0,-4.106203,3.654475,-1.442697\H,0,-3.349906,
 3.407491,-2.195041\H,0,-3.587133,3.996558,-0.541244\H,0,-4.625158,2.72
 5807,-1.188912\H,0,-4.601458,5.640295,-2.232108\H,0,-1.394028,9.188721
 ,-3.049499\C,-1,-0.596678,9.190356,-2.29875\H,0,-0.716746,10.077407,-1
 .666615\C,0,-0.643482,7.906863,-1.457389\H,0,0.12844,7.973404,-0.67841
 2\H,0,-1.601484,7.862409,-0.923496\C,0,-0.463448,6.631301,-2.229677\C,
 0,-1.406096,5.652396,-2.416968\H,0,-2.430159,5.629793,-2.073474\N,0,-0
 .887681,4.594957,-3.118783\H,0,-1.383804,3.759271,-3.455326\C,0,0.4238
 63,4.868028,-3.400488\C,0,1.376625,4.08247,-4.057633\H,0,1.112338,3.09
 9559,-4.435854\C,0,2.649157,4.607607,-4.204066\H,0,3.41408,4.021874,-4
 .706403\C,0,2.96714,5.892983,-3.720523\H,0,3.972624,6.2804,-3.862297\C
 ,0,2.022456,6.662322,-3.063157\H,0,2.281559,7.648565,-2.687963\C,0,0.7
 29905,6.149061,-2.875081\H,0,0.356654,9.276756,-2.831026\C,0,-3.242236
 ,-0.774424,-0.015056\O,0,-4.349016,-0.830919,0.564564\C,0,-2.478432,0.
 43874,-0.136366\C,0,-1.256268,0.435674,-0.730776\C,0,-0.537726,-0.8341
 23,-1.120845\C,0,-1.202621,-2.084746,-0.552022\C,0,-2.71209,-2.004751,
 -0.677074\C,0,-0.58507,1.712156,-1.130866\C,0,0.93051,1.742505,-0.8933
 55\C,0,1.604454,0.47673,-1.429605\C,0,0.962891,-0.759981,-0.762012\C,0
 ,3.112251,0.443157,-1.21024\C,0,3.759463,-0.846893,-1.752836\C,0,3.188
 053,-2.032147,-0.977274\C,0,1.663728,-2.088731,-1.10184\C,0,3.990597,1
 .567049,-1.778787\C,0,5.409444,0.940314,-1.835022\C,0,5.239926,-0.5472
 94,-1.457268\C,0,3.564987,-1.035484,-3.265492\O,0,6.190986,-1.336234,-
 2.14691\H,0,-2.961144,1.362889,0.172593\H,0,-0.594978,-0.865733,-2.220
 478\H,0,-0.925867,-2.200335,0.50614\H,0,-0.85386,-2.981326,-1.072139\H
 ,0,-2.995256,-1.939295,-1.737495\H,0,-3.194714,-2.887614,-0.258638\H,0
 ,-1.080238,2.573145,-0.671125\H,0,-0.778488,1.79177,-2.214347\H,0,1.14
 1729,1.844013,0.18271\H,0,1.341788,2.633852,-1.38063\H,0,1.400818,0.42
 2817,-2.508283\H,0,1.04596,-0.612928,0.3301\H,0,3.278678,0.4321,-0.119
 083\H,0,3.468966,-1.925685,0.082086\H,0,3.621631,-2.975117,-1.32901\H,
 0,1.394877,-2.389276,-2.12104\H,0,1.286241,-2.877261,-0.43867\H,0,3.95
 9457,2.464738,-1.158545\H,0,3.642371,1.865501,-2.774742\H,0,6.101099,1
 .441132,-1.150293\H,0,5.842644,0.995741,-2.838657\H,0,5.387418,-0.6608
 89,-0.369146\H,0,3.920601,-0.169449,-3.8327\H,0,4.144113,-1.901075,-3.
 599234\H,0,2.522072,-1.209325,-3.538914\H,0,5.899588,-2.263238,-2.1394
 53\O,0,-0.274009,-0.388578,-4.440829\H,0,-0.099169,0.562615,-4.465993\
 H,0,-1.242468,-0.373572,-4.226225\O,0,0.613508,-2.968882,-4.334666\H,0
 ,-0.02818,-3.11164,-3.627822\H,0,0.468461,-2.022449,-4.549001\\Version
 =ES64L-G16RevC.01\State=1-A\HF=-5495.9729592\RMSD=3.824e-09\Dipole=1.6
 6294,-2.6983775,3.6522325\Quadrupole=-20.0087899,16.3806646,3.6281252,
 -7.3097508,-15.8928092,13.6171115\PG=C01 [X(C96H175N2O11S2)]\\@
 The archive entry for this job was punched.


 In the beginning there was nothing, which exploded.
 Job cpu time:       0 days  4 hours  7 minutes 54.3 seconds.
 Elapsed time:       0 days  0 hours  8 minutes  2.9 seconds.
 File lengths (MBytes):  RWF=   2199 Int=      0 D2E=      0 Chk=    236 Scr=      1
 Normal termination of Gaussian 16 at Wed Jul 24 21:58:53 2024.
