 Entering Gaussian System, Link 0=g16
 Input=cutoff8_elec_field.com
 Output=cutoff8_elec_field.log
 Initial command:
 /usr/local/packages/license/gaussian/g16-c01/g16/l1.exe "/work/arkanil/gauss_scratch/Gau-394237.inp" -scrdir="/work/arkanil/gauss_scratch/"
 Entering Link 1 = /usr/local/packages/license/gaussian/g16-c01/g16/l1.exe PID=    394238.
  
 Copyright (c) 1988-2019, Gaussian, Inc.  All Rights Reserved.
  
 This is part of the Gaussian(R) 16 program.  It is based on
 the Gaussian(R) 09 system (copyright 2009, Gaussian, Inc.),
 the Gaussian(R) 03 system (copyright 2003, Gaussian, Inc.),
 the Gaussian(R) 98 system (copyright 1998, Gaussian, Inc.),
 the Gaussian(R) 94 system (copyright 1995, Gaussian, Inc.),
 the Gaussian 92(TM) system (copyright 1992, Gaussian, Inc.),
 the Gaussian 90(TM) system (copyright 1990, Gaussian, Inc.),
 the Gaussian 88(TM) system (copyright 1988, Gaussian, Inc.),
 the Gaussian 86(TM) system (copyright 1986, Carnegie Mellon
 University), and the Gaussian 82(TM) system (copyright 1983,
 Carnegie Mellon University). Gaussian is a federally registered
 trademark of Gaussian, Inc.
  
 This software contains proprietary and confidential information,
 including trade secrets, belonging to Gaussian, Inc.
  
 This software is provided under written license and may be
 used, copied, transmitted, or stored only in accord with that
 written license.
  
 The following legend is applicable only to US Government
 contracts under FAR:
  
                    RESTRICTED RIGHTS LEGEND
  
 Use, reproduction and disclosure by the US Government is
 subject to restrictions as set forth in subparagraphs (a)
 and (c) of the Commercial Computer Software - Restricted
 Rights clause in FAR 52.227-19.
  
 Gaussian, Inc.
 340 Quinnipiac St., Bldg. 40, Wallingford CT 06492
  
  
 ---------------------------------------------------------------
 Warning -- This program may not be used in any manner that
 competes with the business of Gaussian, Inc. or will provide
 assistance to any competitor of Gaussian, Inc.  The licensee
 of this program is prohibited from giving any competitor of
 Gaussian, Inc. access to this program.  By using this program,
 the user acknowledges that Gaussian, Inc. is engaged in the
 business of creating and licensing software in the field of
 computational chemistry and represents and warrants to the
 licensee that it is not a competitor of Gaussian, Inc. and that
 it will not use this program in any manner prohibited above.
 ---------------------------------------------------------------
  

 Cite this work as:
 Gaussian 16, Revision C.01,
 M. J. Frisch, G. W. Trucks, H. B. Schlegel, G. E. Scuseria, 
 M. A. Robb, J. R. Cheeseman, G. Scalmani, V. Barone, 
 G. A. Petersson, H. Nakatsuji, X. Li, M. Caricato, A. V. Marenich, 
 J. Bloino, B. G. Janesko, R. Gomperts, B. Mennucci, H. P. Hratchian, 
 J. V. Ortiz, A. F. Izmaylov, J. L. Sonnenberg, D. Williams-Young, 
 F. Ding, F. Lipparini, F. Egidi, J. Goings, B. Peng, A. Petrone, 
 T. Henderson, D. Ranasinghe, V. G. Zakrzewski, J. Gao, N. Rega, 
 G. Zheng, W. Liang, M. Hada, M. Ehara, K. Toyota, R. Fukuda, 
 J. Hasegawa, M. Ishida, T. Nakajima, Y. Honda, O. Kitao, H. Nakai, 
 T. Vreven, K. Throssell, J. A. Montgomery, Jr., J. E. Peralta, 
 F. Ogliaro, M. J. Bearpark, J. J. Heyd, E. N. Brothers, K. N. Kudin, 
 V. N. Staroverov, T. A. Keith, R. Kobayashi, J. Normand, 
 K. Raghavachari, A. P. Rendell, J. C. Burant, S. S. Iyengar, 
 J. Tomasi, M. Cossi, J. M. Millam, M. Klene, C. Adamo, R. Cammi, 
 J. W. Ochterski, R. L. Martin, K. Morokuma, O. Farkas, 
 J. B. Foresman, and D. J. Fox, Gaussian, Inc., Wallingford CT, 2019.
 
 ******************************************
 Gaussian 16:  ES64L-G16RevC.01  3-Jul-2019
                 3-May-2026 
 ******************************************
 %chk=ksi_reactant_trial.chk
 %nprocshared=64
 Will use up to   64 processors via shared memory.
 %mem=200GB
 -------------------------------------------------
 # wb97xd/6-31g(d) prop=efg SCF=(XQC,MaxCycle=500)
 -------------------------------------------------
 1/38=1,172=1/1;
 2/12=2,17=6,18=5,40=1/2;
 3/5=1,6=6,7=1,11=2,25=1,30=1,74=-58/1,2,3;
 4//1;
 5/5=2,7=500,8=3,13=1,38=5/2,8;
 6/7=2,8=2,9=2,10=2,14=1,28=1/1,2;
 99/5=1,9=1/99;
 ----------------------
 elec_field_cutoff8_dft
 ----------------------
 Symbolic Z-matrix:
 Charge = -2 Multiplicity = 1
 H                    0     7.54295  -6.78986  -9.46378 
 C                    -1    6.87575  -6.2101   -8.8152 
 H                    0     6.74209  -6.7782   -7.88638 
 C                    0     7.44974  -4.81927  -8.52823 
 H                    0     7.57101  -4.26093  -9.46377 
 H                    0     6.73924  -4.24845  -7.91854 
 C                    0     8.79634  -4.90754  -7.81041 
 H                    0     8.69148  -5.45549  -6.86781 
 H                    0     9.51795  -5.45268  -8.43023 
 S                    0     9.59338  -3.30735  -7.45219 
 C                    0     8.43542  -2.62976  -6.23029 
 H                    0     8.33233  -3.31625  -5.38469 
 H                    0     8.84311  -1.67306  -5.88958 
 H                    0     7.45359  -2.45753  -6.6797 
 H                    0     5.90246  -6.14023  -9.31404 
 H                    0     3.02424  -8.39819  -7.45927 
 C                    -1    2.84262  -8.03712  -6.43908 
 H                    0     2.56757  -8.90286  -5.83152 
 C                    0     4.12459  -7.38378  -5.88331 
 H                    0     4.88588  -8.16804  -5.7931 
 H                    0     4.52581  -6.66643  -6.61 
 C                    0     3.93031  -6.67923  -4.55836 
 C                    0     3.68972  -7.37268  -3.37213 
 H                    0     3.64115  -8.4607   -3.38006 
 C                    0     3.49958  -6.6952   -2.16455 
 H                    0     3.26328  -7.24326  -1.25457 
 C                    0     3.54375  -5.29612  -2.12786 
 O                    0     3.36574  -4.58736  -0.99774 
 H                    0     3.52216  -5.12412  -0.19898 
 C                    0     3.77473  -4.59018  -3.31232 
 H                    0     3.81159  -3.50985  -3.27304 
 C                    0     3.96717  -5.2812   -4.4952 
 H                    0     4.17923  -4.71417  -5.39865 
 C                    0     1.61331  -7.14099  -6.4479 
 O                    0     0.54767  -7.53179  -5.96632 
 N                    0     1.73128  -5.92942  -7.03091 
 H                    0     2.60929  -5.66199  -7.45076 
 C                    -1    0.5701   -5.07921  -7.22951 
 H                    0    -0.05888  -5.18368  -6.34106 
 C                    0     0.8762   -3.60022  -7.46845 
 H                    0     1.50319  -3.51738  -8.36926 
 C                    0    -0.44494  -2.87505  -7.75288 
 H                    0    -1.15806  -3.00405  -6.93182 
 H                    0    -0.27682  -1.79984  -7.87752 
 H                    0    -0.9294   -3.25356  -8.65952 
 C                    0     1.65466  -2.95304  -6.31471 
 H                    0     2.64555  -3.41924  -6.27112 
 H                    0     1.82511  -1.89812  -6.56284 
 C                    0     1.00517  -3.05764  -4.93691 
 H                    0     0.95082  -4.10019  -4.60898 
 H                    0     1.58541  -2.5112   -4.18642 
 H                    0    -0.00787  -2.63807  -4.93116 
 H                    0    -0.02057  -5.46848  -8.07107 
 H                    0    -1.64823  -8.95219  -6.62204 
 C                    -1   -2.04351  -9.53715  -5.78378 
 H                    0    -2.80401  -10.22758  -6.15449 
 C                    0    -0.88344  -10.28324  -5.09856 
 H                    0    -0.29903  -9.55475  -4.52521 
 H                    0    -1.29482  -11.00472  -4.37831 
 C                    0     0.07579  -10.99369  -6.057 
 H                    0     0.47682  -10.22539  -6.73291 
 C                    0     1.24546  -11.59225  -5.27153 
 H                    0     0.89398  -12.36652  -4.57746 
 H                    0     1.98489  -12.05027  -5.93851 
 H                    0     1.75355  -10.824   -4.67575 
 C                    0    -0.62212  -12.06506  -6.89698 
 H                    0    -1.41315  -11.63788  -7.5222 
 H                    0     0.08868  -12.57184  -7.5598 
 H                    0    -1.0792   -12.8257  -6.25075 
 C                    0    -2.70509  -8.61908  -4.76802 
 O                    0    -3.72001  -8.92347  -4.15603 
 N                    0    -2.05678  -7.436    -4.56336 
 H                    0    -1.16562  -7.28336  -5.03121 
 C                    -1   -2.51308  -6.48993  -3.55859 
 H                    0    -2.63842  -6.99599  -2.59362 
 C                    0    -1.46395  -5.35962  -3.42444 
 H                    0    -1.23505  -5.02265  -4.44611 
 C                    0    -1.97694  -4.1406   -2.65535 
 H                    0    -2.23486  -4.39974  -1.62336 
 H                    0    -1.19803  -3.37144  -2.63127 
 H                    0    -2.86692  -3.7053   -3.11657 
 C                    0    -0.17888  -5.9004   -2.787 
 H                    0     0.2456   -6.74082  -3.34624 
 H                    0     0.58903  -5.12233  -2.73527 
 H                    0    -0.38058  -6.23555  -1.76255 
 C                    0    -3.90109  -5.94297  -3.90703 
 O                    0    -4.69686  -5.62405  -3.02395 
 N                    0    -4.11345  -5.76625  -5.22181 
 H                    0    -3.43564  -6.18253  -5.84438 
 C                    -1   -5.3749   -5.32432  -5.78243 
 H                    0    -5.69953  -4.43888  -5.22661 
 C                    0    -5.21116  -4.97358  -7.25679 
 H                    0    -4.45776  -4.18851  -7.37818 
 H                    0    -4.91154  -5.85736  -7.82945 
 C                    0    -6.53802  -4.45329  -7.80593 
 O                    0    -6.96616  -3.35498  -7.36189 
 O                    0    -7.15055  -5.20467  -8.62087 
 H                    0    -6.14697  -6.0892   -5.63699 
 H                    0    -5.45846  -8.96814  -2.39061 
 C                    -1   -6.22504  -8.98795  -1.61207 
 H                    0    -6.02944  -8.19044  -0.88964 
 H                    0    -7.20441  -8.80477  -2.06024 
 H                    0    -6.22368  -9.96396  -1.11396 
 H                    0    -1.82259  -11.72264   0.66545 
 C                    -1   -2.62285  -12.1474   1.28203 
 H                    0    -2.3331   -12.03193   2.33406 
 C                    0    -3.96214  -11.45997   0.98648 
 H                    0    -4.19135  -11.62543  -0.07401 
 C                    0    -5.09297  -12.08962   1.80545 
 H                    0    -4.85476  -12.06766   2.87948 
 H                    0    -6.0438   -11.56517   1.63606 
 H                    0    -5.24567  -13.14056   1.53866 
 C                    0    -3.89027  -9.93669   1.18144 
 H                    0    -3.03997  -9.55614   0.60563 
 H                    0    -4.77778  -9.47259   0.73592 
 C                    0    -3.76803  -9.46819   2.63005 
 H                    0    -2.99734  -10.01572   3.18697 
 H                    0    -3.5208   -8.406     2.68366 
 H                    0    -4.71365  -9.57744   3.17755 
 H                    0    -2.67679  -13.22132   1.07216 
 H                    0     0.9537   -12.51703  -1.55828 
 C                    -1    1.75091  -11.84303  -1.22255 
 H                    0     2.24909  -11.44927  -2.11792 
 C                    0     1.19451  -10.69774  -0.37047 
 H                    0     0.72098  -11.13496   0.52291 
 C                    0     2.32921  -9.78515   0.09352 
 H                    0     2.78879  -9.30037  -0.77688 
 H                    0     1.98083  -8.99954   0.7705 
 H                    0     3.11519  -10.34528   0.61161 
 C                    0     0.11298  -9.91575  -1.13205 
 H                    0     0.54696  -9.50858  -2.05689 
 H                    0    -0.6733   -10.6144  -1.44967 
 C                    0    -0.51562  -8.77674  -0.3282 
 H                    0     0.1903   -7.95751  -0.15924 
 H                    0    -1.38364  -8.36093  -0.85132 
 H                    0    -0.84731  -9.1281    0.6584 
 H                    0     2.48422  -12.43468  -0.66318 
 H                    0     8.29951  -12.48005  -0.51893 
 C                    -1    8.58043  -12.4832   0.54003 
 H                    0     9.47399  -11.85797   0.64425 
 C                    0     7.4372   -11.94599   1.40641 
 H                    0     6.56768  -12.60858   1.31511 
 H                    0     7.73792  -11.96612   2.46085 
 C                    0     7.04964  -10.54143   1.01277 
 C                    0     6.09124  -10.31278   0.02524 
 H                    0     5.58515  -11.1561  -0.4405 
 C                    0     5.76292  -9.02348  -0.38139 
 H                    0     5.02237  -8.86247  -1.15883 
 C                    0     6.40132  -7.9384    0.20972 
 O                    0     6.08032  -6.63945  -0.09234 
 H                    0     5.54594  -6.61097  -0.90397 
 C                    0     7.37382  -8.13936   1.18508 
 H                    0     7.8725   -7.28043   1.62002 
 C                    0     7.68788  -9.43327   1.57768 
 H                    0     8.44781  -9.58153   2.34133 
 H                    0     8.84602  -13.50819   0.82233 
 H                    0     9.5236   -5.12756   6.0695 
 C                    -1    9.02948  -4.38266   5.43576 
 H                    0     9.64431  -4.20762   4.54676 
 C                    0     7.64336  -4.89689   5.00805 
 H                    0     7.09145  -5.15838   5.92003 
 C                    0     6.85593  -3.81572   4.26214 
 H                    0     7.43972  -3.40645   3.42783 
 H                    0     5.91083  -4.21225   3.86956 
 H                    0     6.60803  -2.98208   4.92542 
 C                    0     7.80113  -6.15009   4.14738 
 H                    0     8.32835  -6.94931   4.68287 
 H                    0     6.8275   -6.54215   3.82389 
 H                    0     8.38532  -5.90991   3.24925 
 C                    0     8.88502  -3.10033   6.25475 
 O                    0     8.3646   -3.11106   7.36754 
 N                    0     9.32567  -1.9808    5.63536 
 H                    0     9.6704   -2.04337   4.67908 
 C                    -1    9.24531  -0.65239   6.21767 
 H                    0     8.97882  -0.77983   7.26995 
 C                    0     10.58167   0.09287   6.06922 
 H                    0     10.79696   0.20059   5.00023 
 H                    0     10.43902   1.10565   6.46969 
 C                    0     11.78856  -0.57071   6.732 
 H                    0     11.69933  -0.54083   7.82285 
 H                    0     11.83551  -1.61851   6.41148 
 C                    0     13.09852   0.14185   6.29475 
 O                    0     13.366    0.0249    5.05915 
 O                    0     13.7327   0.77491   7.15486 
 C                    0     8.17092   0.11788   5.4657 
 O                    0     8.32061   0.40372   4.27431 
 N                    0     7.06043   0.43026   6.15227 
 H                    0     6.93992   0.07117   7.0891 
 C                    -1    5.87828   0.89698   5.45356 
 H                    0     6.22488   1.54152   4.64748 
 C                    0     5.15256  -0.32395   4.86275 
 H                    0     5.85016  -0.83775   4.19085 
 H                    0     4.92379  -1.02122   5.67684 
 C                    0     3.85918  -0.06167   4.08438 
 O                    0     3.47771   1.11897   3.93791 
 O                    0     3.28169  -1.10015   3.63972 
 C                    0     4.98228   1.65712   6.43481 
 O                    0     4.31749   1.03078   7.2648 
 N                    0     4.9762    2.9997    6.36672 
 C                    0     4.20874   3.78205   7.33659 
 H                    0     4.37654   3.3878    8.34213 
 H                    0     3.14014   3.69747   7.10904 
 C                    0     4.71972   5.21339   7.15025 
 H                    0     5.5491    5.40047   7.83832 
 H                    0     3.93774   5.95601   7.32706 
 C                    0     5.22548   5.23742   5.70467 
 H                    0     5.95376   6.02761   5.51139 
 H                    0     4.39974   5.37963   5.00304 
 C                    -1    5.82535   3.83206   5.51657 
 H                    0     5.74854   3.52925   4.46953 
 C                    0     7.28464   3.80194   5.99042 
 O                    0     7.58669   3.64526   7.16766 
 N                    0     8.15438   4.02399   4.98553 
 H                    0     7.78769   4.0764    4.04153 
 C                    -1    9.57426   4.19076   5.15996 
 H                    0     9.82868   3.85537   6.1691 
 C                    0     10.37557   3.40746   4.11457 
 H                    0     10.17707   2.33756   4.24495 
 H                    0     10.02406   3.68059   3.10997 
 C                    0     11.8465   3.71861   4.24648 
 C                    0     12.59352   3.19825   5.30345 
 H                    0     12.14801   2.50801   6.0106 
 C                    0     13.93086   3.53793   5.47206 
 H                    0     14.47923   3.05608   6.27594 
 C                    0     14.53994   4.41902   4.5804 
 H                    0     15.5867   4.68805   4.7064 
 C                    0     13.80909   4.93946   3.51383 
 H                    0     14.2772   5.60024   2.79013 
 C                    0     12.47069   4.59031   3.35334 
 H                    0     11.90101   5.00388   2.52598 
 H                    0     9.8434    5.25456   5.09438 
 H                    0     0.5723   -7.52965   8.84502 
 C                    -1    0.52217  -6.49302   8.48574 
 H                    0     0.12985  -5.87626   9.29988 
 C                    0     1.935    -6.01731   8.09199 
 H                    0     2.60294  -6.27665   8.92044 
 H                    0     2.30298  -6.57957   7.22363 
 C                    0     2.03551  -4.5339    7.81622 
 C                    0     1.97371  -3.62448   8.87746 
 H                    0     1.79963  -3.9902    9.88806 
 C                    0     2.18149  -2.2651    8.6576 
 H                    0     2.17545  -1.57381   9.49551 
 C                    0     2.45846  -1.79396   7.37302 
 H                    0     2.70586  -0.74679   7.2124 
 C                    0     2.48693  -2.68904   6.30551 
 H                    0     2.72692  -2.32122   5.31085 
 C                    0     2.26628  -4.04762   6.52828 
 H                    0     2.3195   -4.7428    5.6912 
 C                    0    -0.48166  -6.44531   7.36596 
 O                    0    -1.51022  -5.75754   7.42176 
 N                    0    -0.26861  -7.26341   6.3078 
 H                    0     0.65911  -7.64808   6.1841 
 C                    -1   -1.1191   -7.18409   5.13104 
 H                    0    -1.15666  -6.14811   4.76528 
 C                    0    -0.56576  -8.08774   4.01246 
 H                    0    -0.37159  -9.09056   4.41549 
 H                    0    -1.35302  -8.19338   3.26088 
 C                    0     0.66654  -7.5146    3.35232 
 C                    0     1.94425  -8.03318   3.5564 
 H                    0     2.08263  -8.89588   4.20575 
 C                    0     3.06139  -7.48925   2.91842 
 H                    0     4.05114  -7.90785   3.07861 
 C                    0     2.88543  -6.41797   2.04871 
 O                    0     3.89661  -5.81441   1.37271 
 H                    0     4.74692  -6.28446   1.37532 
 C                    0     1.61159  -5.88496   1.83205 
 H                    0     1.49574  -5.06067   1.13587 
 C                    0     0.52025  -6.42401   2.48697 
 H                    0    -0.46038  -5.98269   2.3341 
 C                    0    -2.56224  -7.53954   5.43823 
 O                    0    -3.46743  -7.0823    4.74879 
 N                    0    -2.8055   -8.41127   6.45166 
 H                    0    -2.03233  -8.72271   7.02226 
 C                    -1   -4.17029  -8.72971   6.79595 
 H                    0    -4.71478  -8.55609   5.85929 
 C                    0    -4.38221  -10.20611   7.18912 
 H                    0    -3.42106  -10.66323   7.44653 
 H                    0    -5.01176  -10.26368   8.08259 
 C                    0    -5.03208  -11.00127   6.04107 
 H                    0    -4.51573  -10.73768   5.10979 
 H                    0    -4.88885  -12.0766   6.18459 
 C                    0    -6.53429  -10.68705   5.93026 
 H                    0    -7.09017  -11.41512   6.53154 
 H                    0    -6.73577  -9.69025   6.34417 
 N                    0    -7.00443  -10.73046   4.53572 
 H                    0    -6.30956  -10.81913   3.80426 
 C                    0    -8.22877  -10.35902   4.14684 
 N                    0    -9.284    -10.45988   4.9611 
 H                    0    -9.16422  -10.89952   5.86105 
 H                    0    -9.98907  -9.70463   4.90195 
 N                    0    -8.41402  -9.87918   2.90498 
 H                    0    -7.72771  -9.22426   2.53852 
 H                    0    -9.36117  -9.60743   2.67252 
 C                    0    -4.89308  -7.72496   7.7055 
 O                    0    -6.10549  -7.85647   7.85771 
 N                    0    -4.15566  -6.7167    8.20059 
 H                    0    -3.18073  -6.66014   7.9249 
 C                    -1   -4.75752  -5.48705   8.70756 
 H                    0    -5.6857   -5.74489   9.2167 
 C                    0    -3.80888  -4.72774   9.65554 
 H                    0    -3.09499  -4.14346   9.06851 
 H                    0    -4.42979  -4.01372   10.20549 
 C                    0    -3.05844  -5.63577   10.63065 
 H                    0    -3.75143  -6.16675   11.28723 
 H                    0    -2.49017  -6.38859   10.07042 
 C                    0    -2.06351  -4.91302   11.53661 
 O                    0    -2.05706  -5.09749   12.74264 
 N                    0    -1.13947  -4.12842   10.90996 
 H                    0    -0.54342  -3.59376   11.52626 
 H                    0    -1.23059  -3.77975   9.95341 
 C                    0    -5.09828  -4.6005    7.49922 
 O                    0    -6.23507  -4.14961   7.30096 
 N                    0    -4.07147  -4.35562   6.6668 
 H                    0    -3.14899  -4.70958   6.89334 
 C                    -1   -4.14094  -3.3357    5.64633 
 H                    0    -4.37376  -2.36053   6.08134 
 H                    0    -3.15758  -3.27433   5.16375 
 C                    0    -5.19517  -3.60519   4.57863 
 O                    0    -5.89023  -2.69848   4.12579 
 N                    0    -5.29262  -4.89403   4.17594 
 H                    0    -4.59444  -5.55873   4.50243 
 C                    -1   -6.13465  -5.30622   3.07559 
 H                    0    -6.64722  -4.41013   2.71065 
 C                    0    -5.34035  -5.96888   1.92488 
 H                    0    -5.08904  -6.99124   2.23307 
 H                    0    -6.00963  -6.05553   1.06085 
 C                    0    -4.05051  -5.25002   1.51547 
 H                    0    -3.40952  -5.16848   2.40519 
 C                    0    -3.30238  -6.08739   0.4712 
 H                    0    -3.85678  -6.12842  -0.47501 
 H                    0    -2.31822  -5.6509    0.26189 
 H                    0    -3.13798  -7.11493   0.81768 
 C                    0    -4.32787  -3.84815   0.97155 
 H                    0    -4.79815  -3.19583   1.7164 
 H                    0    -3.39947  -3.36336   0.65035 
 H                    0    -4.9856   -3.90652   0.09576 
 C                    0    -7.2073   -6.29857   3.53168 
 O                    0    -7.86435  -6.96898   2.7262 
 N                    0    -7.39194  -6.44386   4.86061 
 H                    0    -6.93268  -5.807     5.49874 
 C                    -1   -8.39658  -7.36329   5.33637 
 H                    0    -8.14507  -8.35675   4.99644 
 H                    0    -8.35656  -7.3683    6.42999 
 C                    0    -9.81503  -7.04866   4.88785 
 O                    0    -10.63476  -7.96356   4.72083 
 N                    0    -10.0963  -5.74579   4.75581 
 H                    0    -9.3616   -5.04462   4.92847 
 C                    -1   -11.4305  -5.25544   4.49687 
 H                    0    -12.1614  -5.83621   5.0677 
 H                    0    -11.48283  -4.22144   4.84529 
 C                    0    -11.89969  -5.28257   3.06051 
 O                    0    -13.03435  -4.8899    2.7927 
 N                    0    -11.04377  -5.74238   2.13217 
 H                    0    -10.10432  -6.02059   2.38982 
 C                    -1   -11.50445  -5.98949   0.78579 
 H                    0    -10.85112  -6.72729   0.31902 
 H                    0    -12.52125  -6.39555   0.83543 
 C                    0    -11.51499  -4.78262  -0.14147 
 O                    0    -11.05169  -4.86173  -1.27596 
 N                    0    -12.08211  -3.66675   0.36071 
 H                    0    -12.56452  -3.73634   1.25285 
 C                    -1   -12.24866  -2.48186  -0.46086 
 H                    0    -12.39562  -2.83487  -1.49043 
 C                    0    -13.46205  -1.66031  -0.02158 
 H                    0    -14.21536  -2.36106   0.3585 
 H                    0    -13.16678  -1.00912   0.80792 
 C                    0    -14.13895  -0.82197  -1.12157 
 H                    0    -14.44225  -1.49169  -1.94 
 H                    0    -15.07334  -0.449    -0.68687 
 C                    0    -13.36729   0.38329  -1.70309 
 H                    0    -14.08299   1.19534  -1.8914 
 H                    0    -12.64532   0.754    -0.96907 
 C                    0    -12.64685   0.09778  -3.02772 
 H                    0    -11.87633  -0.66965  -2.88766 
 H                    0    -13.36526  -0.30907  -3.75107 
 N                    0    -11.99994   1.26883  -3.64353 
 H                    0    -11.17212   1.51163  -3.10118 
 H                    0    -11.3392   1.66673  -5.54154 
 H                    0    -12.62024   2.07362  -3.56264 
 C                    0    -10.95365  -1.63428  -0.45342 
 O                    0    -10.9057  -0.49931   0.01047 
 N                    0    -9.90602  -2.26841  -1.01804 
 H                    0    -10.04352  -3.20884  -1.38505 
 C                    -1   -8.62875  -1.62777  -1.24763 
 H                    0    -8.78904  -0.54682  -1.18297 
 C                    0    -7.5131   -2.01385  -0.25137 
 H                    0    -7.29507  -3.0824   -0.3892 
 C                    0    -6.25269  -1.20039  -0.57294 
 H                    0    -6.46169  -0.12461  -0.53223 
 H                    0    -5.45855  -1.41787   0.14712 
 H                    0    -5.86482  -1.41983  -1.5742 
 C                    0    -7.96655  -1.79516   1.19193 
 H                    0    -8.83716  -2.41616   1.43169 
 H                    0    -7.15984  -2.04662   1.89003 
 H                    0    -8.2475   -0.7495    1.3598 
 C                    0    -8.23821  -2.02569  -2.65915 
 O                    0    -8.17309  -3.22836  -2.95309 
 N                    0    -8.04472  -1.03805  -3.53596 
 H                    0    -7.95385  -0.0858   -3.17713 
 C                    -1   -7.6778   -1.3071   -4.91201 
 H                    0    -7.61004  -2.39011  -5.0293 
 C                    0    -8.72017  -0.76463  -5.89953 
 H                    0    -8.66343   0.32774  -5.94025 
 H                    0    -8.45848  -1.1504   -6.89146 
 C                    0    -10.15149  -1.14492  -5.51328 
 H                    0    -10.34525  -0.81989  -4.48784 
 H                    0    -10.84855  -0.57331  -6.13828 
 C                    0    -10.49885  -2.63019  -5.62922 
 H                    0    -9.78331  -3.25178  -5.08511 
 H                    0    -11.48555  -2.81896  -5.19092 
 N                    0    -10.50366  -3.01149  -7.03865 
 H                    0    -10.77994  -2.27359  -7.67056 
 C                    0    -9.79528  -3.99966  -7.60865 
 N                    0    -9.44889  -5.09824  -6.95484 
 H                    0    -9.47211  -5.18878  -5.93606 
 H                    0    -8.68111  -5.60777  -7.39425 
 N                    0    -9.51388  -3.92525  -8.93015 
 H                    0    -9.4348   -2.9758   -9.27037 
 H                    0    -8.63204  -4.45579  -9.11842 
 C                    0    -6.28559  -0.71423  -5.1404 
 O                    0    -5.89049   0.21214  -4.42047 
 N                    0    -5.54876  -1.2603   -6.108 
 H                    0    -5.9113   -2.07875  -6.63034 
 C                    -1   -4.15977  -0.85407  -6.2635 
 H                    0    -4.06968   0.20172  -6.00457 
 C                    0    -3.26169  -1.69749  -5.34576 
 H                    0    -3.30897  -2.75324  -5.6355 
 H                    0    -2.2212   -1.35854  -5.39669 
 H                    0    -3.60655  -1.60688  -4.31254 
 C                    0    -3.74133  -1.08689  -7.70824 
 O                    0    -3.98188  -2.14137  -8.28842 
 N                    0    -3.03928  -0.08569  -8.28474 
 H                    0    -2.93661   0.79824  -7.7897 
 C                    -1   -2.60831  -0.2307   -9.66017 
 H                    0    -2.2285   -1.24766  -9.79281 
 C                    0    -3.72879  -0.00237  -10.673 
 H                    0    -3.32753  -0.12515  -11.68271 
 H                    0    -4.51754  -0.73884  -10.50717 
 S                    0    -4.40453   1.69499  -10.49434 
 H                    0    -5.00593   1.74487  -11.69431 
 H                    0    -1.78823   0.47211  -9.83773 
 H                    0     8.41335   1.25525  -7.98266 
 C                    -1    7.63393   1.31016  -8.7514 
 H                    0     8.12319   1.38392  -9.72784 
 C                    0     6.72227   0.08565  -8.68227 
 H                    0     5.93264   0.16399  -9.44066 
 H                    0     7.29588  -0.82151  -8.90805 
 C                    0     6.09562  -0.05785  -7.29958 
 H                    0     6.88385  -0.24651  -6.56155 
 H                    0     5.57551   0.86458  -7.013 
 S                    0     4.88537  -1.42546  -7.25621 
 C                    0     4.7493   -1.61583  -5.45832 
 H                    0     4.85272  -0.64077  -4.98357 
 H                    0     3.7561   -1.97975  -5.19799 
 H                    0     5.50345  -2.30258  -5.06631 
 H                    0     7.06518   2.23384  -8.5898 
 H                    0     2.46377   3.42318  -7.60617 
 C                    -1    1.44807   3.08072  -7.81578 
 H                    0     1.24794   3.26803  -8.87931 
 C                    0     1.32177   1.57486  -7.5266 
 H                    0     0.3088    1.21252  -7.74804 
 H                    0     1.99185   1.04079  -8.21204 
 C                    0     1.68769   1.23951  -6.10195 
 C                    0     0.76824   0.68481  -5.21127 
 H                    0    -0.24835   0.48125  -5.54516 
 C                    0     1.13803   0.41912  -3.89229 
 H                    0     0.418    -0.01283  -3.20198 
 C                    0     2.42225   0.72064  -3.45422 
 H                    0     2.71757   0.54024  -2.43029 
 C                    0     3.3384    1.28655  -4.33486 
 H                    0     4.33219   1.5462   -3.98223 
 C                    0     2.97381   1.53682  -5.64755 
 H                    0     3.68489   2.01403  -6.31504 
 C                    0     0.53027   3.96798  -7.00241 
 O                    0     0.92198   4.90842  -6.32634 
 N                    0    -0.78334   3.66569  -7.13068 
 H                    0    -1.06673   2.82639  -7.61382 
 C                    -1   -1.79244   4.2943   -6.32429 
 H                    0    -1.29248   4.87665  -5.54625 
 C                    0    -2.65785   5.24411  -7.16976 
 H                    0    -1.99213   6.05013  -7.49408 
 H                    0    -3.00576   4.70439  -8.06093 
 C                    0    -3.85902   5.81704  -6.41753 
 H                    0    -4.58514   5.02381  -6.20874 
 H                    0    -3.54064   6.21668  -5.44729 
 C                    0    -4.57563   6.91697  -7.20179 
 H                    0    -4.68335   6.6218   -8.2554 
 H                    0    -5.58523   7.03842  -6.78874 
 N                    0    -3.84975   8.17393  -7.09887 
 H                    0    -2.81747   8.15333  -6.81107 
 C                    0    -4.38386   9.37245  -7.23318 
 N                    0    -5.66413   9.52526  -7.69964 
 H                    0    -6.23136   8.69438  -7.76591 
 H                    0    -6.16459   10.3354  -7.36656 
 N                    0    -3.67912   10.45878  -6.9395 
 H                    0    -2.67857   10.39489  -6.5598 
 H                    0    -4.02497   11.35794  -7.23372 
 C                    0    -2.62863   3.1913   -5.69353 
 O                    0    -2.93186   2.17888  -6.34264 
 N                    0    -3.01601   3.42857  -4.43412 
 H                    0    -2.72776   4.30671  -3.99545 
 C                    -1   -4.02541   2.6355   -3.76936 
 H                    0    -4.3006    1.8268   -4.44729 
 C                    0    -3.52673   1.99213  -2.45668 
 H                    0    -4.39723   1.4894   -2.01447 
 C                    0    -2.46169   0.945    -2.77817 
 H                    0    -1.57841   1.41676  -3.22354 
 H                    0    -2.14493   0.43405  -1.86229 
 H                    0    -2.84217   0.19605  -3.47677 
 C                    0    -2.9872    3.0156   -1.46342 
 H                    0    -3.72945   3.7848   -1.24778 
 H                    0    -2.72731   2.53466  -0.51493 
 H                    0    -2.08799   3.5102   -1.84908 
 C                    0    -5.26012   3.52479  -3.57281 
 O                    0    -5.17007   4.7295   -3.32295 
 N                    0    -6.44512   2.90082  -3.72583 
 H                    0    -6.42865   1.88775  -3.8534 
 C                    -1   -7.68487   3.49865  -3.29534 
 H                    0    -7.54275   4.56994  -3.14984 
 C                    0    -8.88287   3.20076  -4.21169 
 H                    0    -9.03359   2.11675  -4.1932 
 H                    0    -9.74866   3.64977  -3.70805 
 C                    0    -8.94163   3.63257  -5.68247 
 H                    0    -8.80558   4.70865  -5.80581 
 H                    0    -8.20607   3.08753  -6.28163 
 C                    0    -10.36751   3.25482  -6.0429 
 O                    0    -10.52567   1.91063  -6.04329 
 O                    0    -11.28734   4.02822  -6.1504 
 C                    0    -8.17246   2.80002  -2.02508 
 O                    0    -8.07585   1.57041  -1.92459 
 N                    0    -8.84894   3.56506  -1.16457 
 H                    0    -9.01107   4.55202  -1.36641 
 C                    -1   -9.50002   2.9894   -0.00815 
 H                    0    -10.16434   2.17547  -0.33843 
 C                    0    -8.49317   2.35972   0.97293 
 H                    0    -9.03935   1.92527   1.81681 
 H                    0    -8.03182   1.51517   0.45593 
 C                    0    -7.40097   3.29537   1.50585 
 H                    0    -7.79264   4.29985   1.69668 
 H                    0    -7.0378    2.91569   2.46613 
 S                    0    -5.94079   3.44632   0.40384 
 C                    0    -6.01205   5.1811   -0.10818 
 H                    0    -5.82779   5.85457   0.73256 
 H                    0    -5.22516   5.32394  -0.84956 
 H                    0    -6.97093   5.42304  -0.57139 
 C                    0    -10.40658   4.07358   0.57717 
 O                    0    -10.87692   4.95021  -0.14159 
 N                    0    -10.6794   3.966     1.89656 
 H                    0    -10.31852   3.19957   2.46528 
 C                    -1   -11.72715   4.75808   2.49563 
 H                    0    -12.0352   5.47632   1.73022 
 C                    0    -12.94737   3.89244   2.88136 
 H                    0    -12.61665   3.21222   3.67613 
 C                    0    -14.07468   4.76947   3.43045 
 H                    0    -14.4069   5.49234   2.67484 
 H                    0    -14.93803   4.15595   3.70813 
 H                    0    -13.76114   5.32525   4.3199 
 C                    0    -13.42166   3.05879   1.68864 
 H                    0    -12.65703   2.34643   1.36408 
 H                    0    -14.31834   2.48875   1.95551 
 H                    0    -13.66807   3.70144   0.83494 
 C                    0    -11.20726   5.50471   3.72341 
 O                    0    -10.91806   4.92081   4.77223 
 N                    0    -11.16396   6.8444    3.59924 
 H                    0    -11.15782   7.21032   2.65832 
 C                    -1   -10.65833   7.69178   4.6608 
 H                    0    -11.09715   7.33346   5.59539 
 C                    0    -9.12463   7.70265   4.79134 
 H                    0    -8.76557   6.67237   4.68086 
 H                    0    -8.69163   8.28579   3.97328 
 C                    0    -8.67453   8.25719   6.10497 
 C                    0    -7.99093   9.41673   6.33527 
 H                    0    -7.6311    10.15545   5.63172 
 N                    0    -7.76742   9.57415   7.68652 
 H                    0    -7.2005    10.29664   8.0971 
 C                    0    -8.29112   8.49292   8.3575 
 C                    0    -8.29859   8.18479   9.72046 
 H                    0    -7.83635   8.84166   10.45171 
 C                    0    -8.91067   7.00276   10.10183 
 H                    0    -8.92948   6.72988   11.153 
 C                    0    -9.50054   6.14349   9.15507 
 H                    0    -9.9632    5.22074   9.49265 
 C                    0    -9.4902    6.45094   7.80566 
 H                    0    -9.93532   5.78169   7.07309 
 C                    0    -8.87917   7.64479   7.3931 
 H                    0    -11.03302   8.70596   4.49375 
 H                    0    -10.49412   7.84113  -0.89624 
 C                    -1   -9.58816   8.4453   -0.9925 
 H                    0    -9.85006   9.39326  -1.47708 
 C                    0    -8.98159   8.73569   0.38184 
 H                    0    -8.02914   9.2658    0.29432 
 H                    0    -9.6616    9.36102   0.96739 
 S                    0    -8.68536   7.15004   1.24315 
 H                    0    -7.70584   7.58438   2.05072 
 C                    0    -8.62386   7.66224  -1.88779 
 O                    0    -8.85944   6.52109  -2.27977 
 N                    0    -7.50554   8.34247  -2.22142 
 H                    0    -7.26714   9.2078   -1.75126 
 C                    -1   -6.39428   7.75436  -2.93181 
 H                    0    -6.54016   6.67289  -2.97249 
 C                    0    -6.27877   8.31008  -4.35415 
 H                    0    -6.17995   9.40084  -4.32836 
 H                    0    -5.38693   7.9012   -4.83482 
 H                    0    -7.16732   8.04228  -4.93552 
 C                    0    -5.11308   8.07886  -2.16691 
 O                    0    -5.05819   9.10628  -1.48935 
 N                    0    -4.11212   7.21155  -2.36808 
 H                    0    -4.30107   6.32756  -2.84014 
 C                    -1   -2.7844    7.39439  -1.81598 
 H                    0    -2.67846   8.45686  -1.57996 
 C                    0    -2.57451   6.54136  -0.558 
 H                    0    -3.35631   6.81214   0.16392 
 H                    0    -2.74492   5.50046  -0.84195 
 C                    0    -1.19492   6.66416   0.1065 
 H                    0    -0.42177   6.64181  -0.67323 
 C                    0    -1.04849   7.97747   0.87501 
 H                    0    -1.71086   7.98443   1.75019 
 H                    0    -0.02919   8.12123   1.24249 
 H                    0    -1.29818   8.84168   0.25147 
 C                    0    -0.96858   5.45786   1.0185 
 H                    0    -1.03915   4.52555   0.44692 
 H                    0     0.01413   5.49062   1.49819 
 H                    0    -1.72721   5.42443   1.81214 
 C                    0    -1.77345   7.00142  -2.88902 
 O                    0    -1.85648   5.90067  -3.45408 
 N                    0    -0.81089   7.89682  -3.13268 
 H                    0    -0.84298   8.79178  -2.64204 
 C                    -1    0.25186   7.66108  -4.0983 
 H                    0    -0.09919   6.87002  -4.7633 
 C                    0     0.44773   8.90564  -4.95904 
 H                    0     0.66204   9.79267  -4.35527 
 H                    0     1.293     8.7386   -5.63711 
 C                    0    -0.81721   9.14026  -5.79943 
 O                    0    -1.35201   8.10882  -6.29912 
 O                    0    -1.22864   10.3177  -5.92573 
 C                    0     1.5064    7.17987  -3.36365 
 O                    0     1.91962   7.77769  -2.36659 
 N                    0     2.0737    6.06346  -3.85651 
 H                    0     1.6916    5.61537  -4.6885 
 C                    -1    3.11613   5.34901  -3.14266 
 H                    0     3.55081   6.04551  -2.41789 
 C                    0     2.54198   4.11672  -2.38711 
 H                    0     2.19314   3.41391  -3.15382 
 C                    0     3.62741   3.43919  -1.54432 
 H                    0     4.12655   4.17383  -0.90237 
 H                    0     3.18095   2.67352  -0.90076 
 H                    0     4.39519   2.94405  -2.14262 
 C                    0     1.34368   4.4868   -1.50971 
 H                    0     0.52818   4.92384  -2.09546 
 H                    0     0.95675   3.58189  -1.02607 
 H                    0     1.62269   5.19003  -0.71784 
 C                    0     4.18132   4.87837  -4.13254 
 O                    0     3.88095   4.46102  -5.24574 
 N                    0     5.46164   4.89563  -3.67278 
 H                    0     5.66733   5.26327  -2.74252 
 C                    -1    6.51422   4.20931  -4.39828 
 H                    0     6.04005   3.79475  -5.29417 
 C                    0     7.66643   5.14547  -4.82117 
 H                    0     8.06638   5.59807  -3.90325 
 C                    0     8.78681   4.34455  -5.49223 
 H                    0     8.41783   3.83045  -6.38997 
 H                    0     9.60829   4.99924  -5.79579 
 H                    0     9.21215   3.58835  -4.82469 
 C                    0     7.1248    6.26407  -5.71969 
 H                    0     6.77061   5.82551  -6.66323 
 H                    0     6.24607   6.70196  -5.23495 
 C                    0     8.13768   7.37174  -6.00605 
 H                    0     8.9928    7.01063  -6.58759 
 H                    0     7.67161   8.183    -6.57495 
 H                    0     8.52366   7.7973   -5.07267 
 C                    0     7.05262   3.09932  -3.50886 
 O                    0     7.45783   3.36598  -2.38328 
 N                    0     7.08091   1.83568  -4.00777 
 H                    0     6.98797   1.71343  -5.00769 
 C                    -1    7.81574   0.82725  -3.2761 
 H                    0     7.97294   1.23216  -2.27516 
 C                    0     7.12744  -0.52149  -3.12978 
 H                    0     6.97896  -1.00193  -4.10132 
 H                    0     7.79149  -1.17801  -2.55409 
 C                    0     5.81351  -0.48014  -2.38644 
 O                    0     5.3442    0.49876  -1.84676 
 O                    0     5.22795  -1.67229  -2.41661 
 H                    0     4.30941  -1.60898  -2.03539 
 C                    0     9.17124   0.57385  -3.94082 
 O                    0     9.27138   0.48162  -5.16753 
 N                    0     10.18109   0.40783  -3.06935 
 H                    0     9.98158   0.47895  -2.06544 
 C                    -1    11.50833  -0.04808  -3.44592 
 H                    0     11.55561  -0.04552  -4.53964 
 C                    0     12.59454   0.87715  -2.85528 
 H                    0     12.47014   0.86593  -1.76447 
 C                    0     13.99685   0.35124  -3.1658 
 H                    0     14.17502   0.31627  -4.2491 
 H                    0     14.7454   1.011    -2.71812 
 H                    0     14.15862  -0.65185  -2.7565 
 C                    0     12.41248   2.30963  -3.35498 
 H                    0     11.42344   2.70104  -3.10159 
 H                    0     13.15156   2.96779  -2.8882 
 H                    0     12.53747   2.36226  -4.44442 
 C                    0     11.64692  -1.45441  -2.87813 
 O                    0     11.45634  -1.68056  -1.68577 
 N                    0     11.99076  -2.42601  -3.74737 
 H                    0     12.08734  -2.19885  -4.72592 
 C                    -1    12.23786  -3.78329  -3.31632 
 H                    0     12.22646  -3.77582  -2.2249 
 C                    0     11.22354  -4.78649  -3.8712 
 H                    0     11.1557  -4.67025  -4.9613 
 H                    0     11.59589  -5.80018  -3.67687 
 C                    0     9.83884  -4.63276  -3.25128 
 H                    0     9.8806   -4.83689  -2.17586 
 H                    0     9.46584  -3.61109  -3.38714 
 S                    0     8.69668  -5.81507  -4.03354 
 C                    0     7.20719  -5.52277  -3.04957 
 H                    0     6.84456  -4.49601  -3.15523 
 H                    0     6.43387  -6.20098  -3.42116 
 H                    0     7.39737  -5.73841  -1.99458 
 H                    0     13.24528  -4.07541  -3.63639 
 H                    0     11.45828  -11.17774  -2.01693 
 C                    -1    11.49878  -10.12294  -1.72087 
 H                    0     12.14738  -9.5979   -2.43365 
 C                    0     10.0975  -9.49707  -1.70551 
 H                    0     9.47086  -10.07615  -1.0106 
 C                    0     10.15302  -8.05534  -1.18868 
 H                    0     10.79304  -7.4386   -1.83318 
 H                    0     9.161    -7.59184  -1.16546 
 H                    0     10.55795  -8.01647  -0.17092 
 C                    0     9.45637  -9.58094  -3.1003 
 H                    0     9.94199  -8.84713  -3.75772 
 H                    0     9.66417  -10.5717  -3.52827 
 C                    0     7.94677  -9.35049  -3.11044 
 H                    0     7.68526  -8.38296  -2.67108 
 H                    0     7.55403  -9.36433  -4.13368 
 H                    0     7.43002  -10.12514  -2.5326 
 H                    0     11.97205  -10.06403  -0.73398 
 H                    0     10.92806  -4.47405   1.43336 
 C                    -1    10.40097  -3.711     0.8538 
 H                    0     10.96257  -3.51482  -0.06628 
 C                    0     8.98986  -4.21803   0.49489 
 H                    0     9.09416  -5.16251  -0.05901 
 H                    0     8.44335  -4.45492   1.41527 
 C                    0     8.17177  -3.22927  -0.353 
 H                    0     8.84213  -2.66683  -1.01388 
 H                    0     7.45971  -3.76051  -0.98972 
 S                    0     7.21957  -1.98227   0.57448 
 C                    0     5.72462  -2.93648   0.94738 
 H                    0     5.97701  -3.87983   1.4402 
 H                    0     5.11952  -2.34227   1.64048 
 H                    0     5.14624  -3.13332   0.0399 
 C                    0     10.31876  -2.45988   1.71161 
 O                    0     10.06356  -2.55179   2.91091 
 N                    0     10.48467  -1.30236   1.04809 
 H                    0     10.73125  -1.32573   0.06295 
 C                    -1    10.26539   0.00883   1.62589 
 H                    0     9.9806   -0.12582   2.67162 
 C                    0     11.50579   0.88913   1.48411 
 H                    0     11.64107   1.11205   0.42209 
 H                    0     11.31447   1.84483   1.9856 
 C                    0     12.78002   0.25725   2.02627 
 H                    0     12.66123  -0.08707   3.05934 
 H                    0     13.05615  -0.60128   1.40217 
 C                    0     13.886    1.29026   1.93879 
 O                    0     14.08951   1.90414   0.87053 
 N                    0     14.57936   1.47364   3.05937 
 H                    0     15.20079   2.26865   3.09993 
 H                    0     14.26516   1.02418   3.94703 
 C                    0     9.15443   0.69072   0.83856 
 O                    0     9.18549   0.70286  -0.40313 
 N                    0     8.21478   1.30432   1.56048 
 H                    0     8.18665   1.15328   2.57073 
 C                    -1    7.10857   1.98743   0.92893 
 H                    0     7.22142   1.85601  -0.14763 
 C                    0     5.76317   1.40519   1.36471 
 H                    0     5.59597   1.54137   2.43611 
 H                    0     4.94939   1.89976   0.82365 
 H                    0     5.72211   0.34068   1.12443 
 C                    0     7.16286   3.4665    1.28351 
 O                    0     7.01341   3.85921   2.44143 
 N                    0     7.37474   4.29228   0.25462 
 H                    0     7.39068   3.92387  -0.69139 
 C                    -1    7.57714   5.71367   0.41971 
 H                    0     7.93624   5.88064   1.43823 
 C                    0     8.62108   6.20171  -0.6051 
 H                    0     8.25949   5.90263  -1.59615 
 H                    0     8.61199   7.29742  -0.59306 
 C                    0     10.03658   5.71417  -0.37608 
 C                    0     10.41586   4.37301  -0.52306 
 H                    0     9.68613   3.62167  -0.81178 
 C                    0     11.73017   3.96752  -0.31747 
 H                    0     12.01015   2.92551  -0.41928 
 C                    0     12.71927   4.8934    0.03177 
 O                    0     14.00348   4.54753   0.24906 
 H                    0     14.07005   3.58827   0.48055 
 C                    0     12.3597   6.23833   0.15288 
 H                    0     13.12162   6.96127   0.42792 
 C                    0     11.03944   6.62846  -0.03917 
 H                    0     10.78093   7.67886   0.07966 
 C                    0     6.25235   6.43669   0.18571 
 O                    0     5.73394   6.44869  -0.93825 
 N                    0     5.74056   7.04897   1.26158 
 H                    0     6.10634   6.86314   2.19016 
 C                    -1    4.4997    7.78463   1.24143 
 H                    0     4.55041   8.54251   0.4515 
 C                    0     3.28223   6.86741   0.94036 
 H                    0     2.39249   7.50517   0.88897 
 H                    0     3.43355   6.46497  -0.06404 
 C                    0     3.07337   5.76395   1.93315 
 C                    0     3.68402   4.53549   1.95197 
 H                    0     4.4329    4.13827   1.28327 
 N                    0     3.23454   3.78247   3.00716 
 H                    0     3.50267   2.82786   3.25041 
 C                    0     2.30921   4.51682   3.7011 
 C                    0     1.55635   4.16762   4.8269 
 H                    0     1.66244   3.1824    5.27249 
 C                    0     0.69086   5.12411   5.33164 
 H                    0     0.09001   4.89042   6.20676 
 C                    0     0.57864   6.39762   4.73539 
 H                    0    -0.09688   7.13017   5.16836 
 C                    0     1.32105   6.73651   3.61677 
 H                    0     1.23878   7.72847   3.17728 
 C                    0     2.19359   5.78001   3.0716 
 C                    0     4.30386   8.45067   2.59935 
 O                    0     4.82426   7.97728   3.60722 
 N                    0     3.44      9.48263   2.57862 
 H                    0     3.29543   9.99922   1.71217 
 C                    -1    3.022     10.15164   3.78979 
 H                    0     2.96483   9.38542   4.57437 
 C                    0     4.06123   11.21027   4.22279 
 H                    0     3.82087   11.60958   5.21602 
 H                    0     5.01529   10.67166   4.30818 
 O                    0     4.17191   12.22975   3.27111 
 H                    0     3.84375   13.06963   3.66726 
 C                    0     1.61266   10.7137   3.57539 
 O                    0     0.89204   10.36925   2.63251 
 N                    0     1.1935    11.58326   4.5068 
 H                    0     1.83004   11.95288   5.21881 
 C                    -1   -0.0231    12.34066   4.30487 
 H                    0    -0.88546   11.66029   4.34874 
 C                    0    -0.18487   13.45765   5.34123 
 H                    0    -1.2211    13.81838   5.28067 
 H                    0    -0.04215   13.03651   6.34261 
 C                    0     0.78764   14.62973   5.16025 
 H                    0     0.61969   15.12852   4.19911 
 H                    0     0.60953   15.36336   5.95774 
 C                    0     2.25994   14.15014   5.2309 
 O                    0     2.52509   13.36815   6.18464 
 O                    0     3.01538   14.51279   4.30297 
 H                    0    -0.01583   12.76707   3.29039 
 H                    0     0.50113   12.58964  -0.13817 
 C                    -1    0.31051   11.79527  -0.86493 
 H                    0     0.55462   12.16206  -1.86729 
 C                    0     1.16111   10.54232  -0.53062 
 H                    0     1.04344   10.30485   0.53047 
 H                    0     0.79659   9.70065  -1.12691 
 C                    0     2.6428    10.71388  -0.79701 
 O                    0     3.42844   11.1045   0.0563 
 N                    0     3.03831   10.42642  -2.0776 
 H                    0     4.04482   10.38836  -2.18019 
 H                    0     2.55004   9.64515  -2.50901 
 C                    0    -1.13638   11.33044  -0.87564 
 O                    0    -1.53166   10.48515  -1.68272 
 N                    0    -1.93798   11.86292   0.0753 
 H                    0    -1.48214   12.43066   0.77618 
 C                    -1   -3.2499    11.33234   0.41743 
 H                    0    -3.43815   10.47645  -0.23476 
 C                    0    -3.27353   10.95358   1.90211 
 H                    0    -2.43868   10.27099   2.10611 
 H                    0    -3.07283   11.86036   2.4924 
 C                    0    -4.58746   10.33194   2.39625 
 H                    0    -5.41698   10.97306   2.05755 
 C                    0    -4.81081   8.92493   1.83375 
 H                    0    -4.00856   8.25185   2.15914 
 H                    0    -5.75538   8.50961   2.21235 
 H                    0    -4.84474   8.91361   0.74051 
 C                    0    -4.6048    10.29825   3.92774 
 H                    0    -4.53126   11.30592   4.35294 
 H                    0    -5.52221   9.82941   4.30558 
 H                    0    -3.7571    9.71509   4.30698 
 H                    0    -4.02435   12.08145   0.20356 
 O                    0     1.34093  -2.81468   3.12452 
 H                    0     2.02709  -3.48823   3.05039 
 H                    0     1.88069  -1.99379   3.29798 
 O                    0    -1.15776  -3.82763   3.83833 
 H                    0    -1.55652  -3.53878   3.00877 
 H                    0    -0.25349  -3.43875   3.78991 
 O                    0    -1.2011   -3.03504   8.17067 
 H                    0    -0.91736  -3.82131   7.68452 
 H                    0    -0.45675  -2.42132   8.08403 
 O                    0    -7.20908  -3.9686    9.98233 
 H                    0    -7.1012   -3.96746   9.01663 
 H                    0    -7.03646  -3.05682   10.24121 
 O                    0    -7.30872  -5.72447  -1.82354 
 H                    0    -7.6153   -4.80916  -1.9318 
 H                    0    -6.43818  -5.73048  -2.26326 
 O                    0    -8.32071  -3.57637   5.31539 
 H                    0    -7.75531  -3.61135   6.10409 
 H                    0    -7.75589  -3.10873   4.67564 
 O                    0    -8.4582   -5.52294  -4.43558 
 H                    0    -8.12525  -4.6372   -4.22093 
 H                    0    -8.3496   -5.97083  -3.5762 
 O                    0    -10.02934   2.35691   4.1323 
 H                    0    -10.64645   1.70101   4.47308 
 H                    0    -10.26555   3.19204   4.58467 
 C                    0     1.96137  -1.64789  -0.8946 
 O                    0     2.71703  -1.96544  -1.81684 
 C                    0     2.11055  -0.41898  -0.14328 
 C                    0     1.17216   0.01902   0.72784 
 C                    0    -0.1206   -0.74281   0.96581 
 C                    0    -0.40844  -1.75327  -0.14977 
 C                    0     0.83759  -2.56003  -0.4865 
 C                    0     1.43809   1.23159   1.56394 
 C                    0     0.20335   2.06004   1.91084 
 C                    0    -0.94659   1.17324   2.38473 
 C                    0    -1.31094   0.19735   1.24448 
 C                    0    -2.173     1.9705    2.79994 
 C                    0    -3.36875   1.08521   3.20242 
 C                    0    -3.7801    0.2486    1.98957 
 C                    0    -2.60668  -0.60095   1.48179 
 C                    0    -2.05156   2.98116   3.9505 
 C                    0    -3.51751   3.18913   4.41911 
 C                    0    -4.36343   2.19028   3.6059 
 C                    0    -3.09308   0.17185   4.40821 
 O                    0    -5.49166   1.76847   4.35986 
 H                    0     3.03169   0.14048  -0.29535 
 H                    0     0.05483  -1.31981   1.8882 
 H                    0    -0.76496  -1.22525  -1.04594 
 H                    0    -1.21101  -2.43535   0.1518 
 H                    0     1.17574  -3.07317   0.42464 
 H                    0     0.67571  -3.30634  -1.26763 
 H                    0     2.19868   1.8573    1.08476 
 H                    0     1.91284   0.88064   2.49591 
 H                    0    -0.13057   2.63122   1.03413 
 H                    0     0.47337   2.79324   2.67639 
 H                    0    -0.59155   0.58996   3.24924 
 H                    0    -1.47263   0.81499   0.3456 
 H                    0    -2.50023   2.53741   1.91073 
 H                    0    -4.11359   0.92067   1.18553 
 H                    0    -4.6277   -0.41156   2.22851 
 H                    0    -2.40414  -1.41262   2.19742 
 H                    0    -2.90969  -1.08697   0.5468 
 H                    0    -1.56895   3.91061   3.63892 
 H                    0    -1.43088   2.57152   4.75589 
 H                    0    -3.86195   4.2147    4.25925 
 H                    0    -3.64059   2.97225   5.4852 
 H                    0    -4.70264   2.67972   2.68222 
 H                    0    -2.80511   0.74043   5.29696 
 H                    0    -4.00534  -0.383     4.65533 
 H                    0    -2.2972   -0.55332   4.21253 
 H                    0    -5.94883   1.09601   3.83911 
 
 Stoichiometry    C304H508N56O73S7(2-)
 Framework group  C1[X(C304H508N56O73S7)]
 Deg. of freedom  2838
 Full point group                 C1      NOp   1
 Largest Abelian subgroup         C1      NOp   1
 Largest concise Abelian subgroup C1      NOp   1
                         Standard orientation:                         
 ---------------------------------------------------------------------
 Center     Atomic      Atomic             Coordinates (Angstroms)
 Number     Number       Type             X           Y           Z
 ---------------------------------------------------------------------
      1          1           0        7.542952   -6.789860   -9.463785
      2          6           0        6.875752   -6.210101   -8.815199
      3          1           0        6.742086   -6.778199   -7.886384
      4          6           0        7.449736   -4.819271   -8.528231
      5          1           0        7.571005   -4.260925   -9.463774
      6          1           0        6.739242   -4.248455   -7.918543
      7          6           0        8.796337   -4.907536   -7.810407
      8          1           0        8.691475   -5.455493   -6.867807
      9          1           0        9.517954   -5.452677   -8.430227
     10         16           0        9.593379   -3.307349   -7.452189
     11          6           0        8.435416   -2.629759   -6.230290
     12          1           0        8.332328   -3.316251   -5.384694
     13          1           0        8.843113   -1.673064   -5.889582
     14          1           0        7.453589   -2.457525   -6.679702
     15          1           0        5.902459   -6.140234   -9.314043
     16          1           0        3.024237   -8.398188   -7.459275
     17          6           0        2.842623   -8.037124   -6.439078
     18          1           0        2.567570   -8.902858   -5.831523
     19          6           0        4.124588   -7.383782   -5.883314
     20          1           0        4.885884   -8.168036   -5.793100
     21          1           0        4.525810   -6.666429   -6.609998
     22          6           0        3.930311   -6.679229   -4.558355
     23          6           0        3.689720   -7.372676   -3.372134
     24          1           0        3.641153   -8.460701   -3.380064
     25          6           0        3.499584   -6.695196   -2.164554
     26          1           0        3.263277   -7.243260   -1.254567
     27          6           0        3.543750   -5.296118   -2.127857
     28          8           0        3.365744   -4.587361   -0.997736
     29          1           0        3.522164   -5.124121   -0.198980
     30          6           0        3.774725   -4.590176   -3.312317
     31          1           0        3.811586   -3.509847   -3.273037
     32          6           0        3.967165   -5.281198   -4.495203
     33          1           0        4.179232   -4.714173   -5.398655
     34          6           0        1.613311   -7.140987   -6.447896
     35          8           0        0.547666   -7.531787   -5.966324
     36          7           0        1.731281   -5.929418   -7.030910
     37          1           0        2.609285   -5.661992   -7.450759
     38          6           0        0.570100   -5.079214   -7.229512
     39          1           0       -0.058875   -5.183679   -6.341058
     40          6           0        0.876196   -3.600221   -7.468454
     41          1           0        1.503194   -3.517383   -8.369258
     42          6           0       -0.444935   -2.875050   -7.752879
     43          1           0       -1.158062   -3.004049   -6.931822
     44          1           0       -0.276815   -1.799835   -7.877519
     45          1           0       -0.929403   -3.253559   -8.659521
     46          6           0        1.654661   -2.953036   -6.314709
     47          1           0        2.645550   -3.419240   -6.271116
     48          1           0        1.825106   -1.898117   -6.562837
     49          6           0        1.005169   -3.057638   -4.936914
     50          1           0        0.950824   -4.100187   -4.608979
     51          1           0        1.585407   -2.511196   -4.186424
     52          1           0       -0.007868   -2.638065   -4.931159
     53          1           0       -0.020567   -5.468477   -8.071073
     54          1           0       -1.648225   -8.952186   -6.622043
     55          6           0       -2.043514   -9.537146   -5.783784
     56          1           0       -2.804009  -10.227585   -6.154492
     57          6           0       -0.883437  -10.283241   -5.098562
     58          1           0       -0.299031   -9.554746   -4.525210
     59          1           0       -1.294823  -11.004716   -4.378310
     60          6           0        0.075794  -10.993691   -6.057003
     61          1           0        0.476824  -10.225388   -6.732912
     62          6           0        1.245463  -11.592252   -5.271531
     63          1           0        0.893978  -12.366523   -4.577463
     64          1           0        1.984889  -12.050266   -5.938510
     65          1           0        1.753553  -10.824005   -4.675745
     66          6           0       -0.622115  -12.065061   -6.896982
     67          1           0       -1.413151  -11.637883   -7.522199
     68          1           0        0.088681  -12.571844   -7.559798
     69          1           0       -1.079202  -12.825703   -6.250752
     70          6           0       -2.705091   -8.619084   -4.768016
     71          8           0       -3.720014   -8.923474   -4.156029
     72          7           0       -2.056776   -7.436002   -4.563356
     73          1           0       -1.165618   -7.283362   -5.031208
     74          6           0       -2.513080   -6.489925   -3.558591
     75          1           0       -2.638424   -6.995991   -2.593619
     76          6           0       -1.463954   -5.359616   -3.424441
     77          1           0       -1.235051   -5.022648   -4.446112
     78          6           0       -1.976937   -4.140596   -2.655354
     79          1           0       -2.234858   -4.399736   -1.623356
     80          1           0       -1.198025   -3.371443   -2.631266
     81          1           0       -2.866916   -3.705296   -3.116568
     82          6           0       -0.178878   -5.900397   -2.787004
     83          1           0        0.245597   -6.740819   -3.346238
     84          1           0        0.589026   -5.122327   -2.735266
     85          1           0       -0.380576   -6.235554   -1.762550
     86          6           0       -3.901086   -5.942973   -3.907031
     87          8           0       -4.696861   -5.624048   -3.023953
     88          7           0       -4.113450   -5.766250   -5.221811
     89          1           0       -3.435642   -6.182526   -5.844376
     90          6           0       -5.374900   -5.324316   -5.782426
     91          1           0       -5.699531   -4.438881   -5.226610
     92          6           0       -5.211157   -4.973581   -7.256792
     93          1           0       -4.457756   -4.188515   -7.378178
     94          1           0       -4.911544   -5.857355   -7.829449
     95          6           0       -6.538018   -4.453285   -7.805928
     96          8           0       -6.966162   -3.354977   -7.361886
     97          8           0       -7.150545   -5.204668   -8.620869
     98          1           0       -6.146971   -6.089200   -5.636994
     99          1           0       -5.458459   -8.968137   -2.390607
    100          6           0       -6.225036   -8.987950   -1.612072
    101          1           0       -6.029442   -8.190440   -0.889642
    102          1           0       -7.204413   -8.804771   -2.060236
    103          1           0       -6.223683   -9.963958   -1.113962
    104          1           0       -1.822588  -11.722638    0.665447
    105          6           0       -2.622846  -12.147396    1.282032
    106          1           0       -2.333102  -12.031931    2.334064
    107          6           0       -3.962143  -11.459970    0.986477
    108          1           0       -4.191354  -11.625432   -0.074014
    109          6           0       -5.092967  -12.089615    1.805451
    110          1           0       -4.854763  -12.067655    2.879478
    111          1           0       -6.043799  -11.565170    1.636062
    112          1           0       -5.245672  -13.140560    1.538662
    113          6           0       -3.890266   -9.936691    1.181437
    114          1           0       -3.039966   -9.556141    0.605631
    115          1           0       -4.777779   -9.472588    0.735915
    116          6           0       -3.768029   -9.468195    2.630051
    117          1           0       -2.997339  -10.015719    3.186968
    118          1           0       -3.520796   -8.406001    2.683664
    119          1           0       -4.713651   -9.577439    3.177548
    120          1           0       -2.676794  -13.221322    1.072159
    121          1           0        0.953698  -12.517032   -1.558279
    122          6           0        1.750909  -11.843025   -1.222547
    123          1           0        2.249090  -11.449272   -2.117918
    124          6           0        1.194505  -10.697744   -0.370473
    125          1           0        0.720983  -11.134958    0.522907
    126          6           0        2.329209   -9.785147    0.093520
    127          1           0        2.788791   -9.300370   -0.776882
    128          1           0        1.980826   -8.999541    0.770503
    129          1           0        3.115195  -10.345283    0.611614
    130          6           0        0.112978   -9.915747   -1.132048
    131          1           0        0.546959   -9.508584   -2.056895
    132          1           0       -0.673299  -10.614404   -1.449667
    133          6           0       -0.515620   -8.776736   -0.328197
    134          1           0        0.190301   -7.957508   -0.159237
    135          1           0       -1.383644   -8.360926   -0.851321
    136          1           0       -0.847313   -9.128102    0.658396
    137          1           0        2.484220  -12.434676   -0.663179
    138          1           0        8.299506  -12.480053   -0.518928
    139          6           0        8.580426  -12.483195    0.540032
    140          1           0        9.473994  -11.857971    0.644254
    141          6           0        7.437196  -11.945985    1.406406
    142          1           0        6.567676  -12.608583    1.315114
    143          1           0        7.737920  -11.966116    2.460848
    144          6           0        7.049641  -10.541427    1.012767
    145          6           0        6.091245  -10.312779    0.025236
    146          1           0        5.585150  -11.156104   -0.440503
    147          6           0        5.762922   -9.023480   -0.381387
    148          1           0        5.022374   -8.862471   -1.158834
    149          6           0        6.401322   -7.938403    0.209724
    150          8           0        6.080321   -6.639446   -0.092338
    151          1           0        5.545943   -6.610968   -0.903969
    152          6           0        7.373821   -8.139359    1.185083
    153          1           0        7.872503   -7.280432    1.620021
    154          6           0        7.687883   -9.433267    1.577681
    155          1           0        8.447806   -9.581533    2.341327
    156          1           0        8.846018  -13.508193    0.822326
    157          1           0        9.523598   -5.127560    6.069500
    158          6           0        9.029480   -4.382660    5.435755
    159          1           0        9.644306   -4.207622    4.546756
    160          6           0        7.643359   -4.896894    5.008050
    161          1           0        7.091446   -5.158382    5.920025
    162          6           0        6.855927   -3.815717    4.262138
    163          1           0        7.439715   -3.406446    3.427831
    164          1           0        5.910833   -4.212254    3.869555
    165          1           0        6.608031   -2.982078    4.925424
    166          6           0        7.801131   -6.150093    4.147375
    167          1           0        8.328345   -6.949313    4.682873
    168          1           0        6.827500   -6.542152    3.823885
    169          1           0        8.385322   -5.909909    3.249252
    170          6           0        8.885023   -3.100329    6.254748
    171          8           0        8.364603   -3.111057    7.367540
    172          7           0        9.325665   -1.980799    5.635363
    173          1           0        9.670401   -2.043374    4.679078
    174          6           0        9.245311   -0.652385    6.217671
    175          1           0        8.978823   -0.779827    7.269954
    176          6           0       10.581672    0.092867    6.069218
    177          1           0       10.796959    0.200588    5.000230
    178          1           0       10.439022    1.105653    6.469689
    179          6           0       11.788563   -0.570714    6.732001
    180          1           0       11.699327   -0.540833    7.822850
    181          1           0       11.835508   -1.618507    6.411480
    182          6           0       13.098522    0.141845    6.294752
    183          8           0       13.366004    0.024901    5.059147
    184          8           0       13.732700    0.774912    7.154858
    185          6           0        8.170916    0.117878    5.465698
    186          8           0        8.320608    0.403724    4.274308
    187          7           0        7.060427    0.430262    6.152271
    188          1           0        6.939917    0.071171    7.089099
    189          6           0        5.878275    0.896976    5.453563
    190          1           0        6.224883    1.541522    4.647477
    191          6           0        5.152556   -0.323954    4.862751
    192          1           0        5.850163   -0.837746    4.190853
    193          1           0        4.923786   -1.021217    5.676841
    194          6           0        3.859181   -0.061674    4.084384
    195          8           0        3.477706    1.118973    3.937914
    196          8           0        3.281689   -1.100147    3.639723
    197          6           0        4.982281    1.657119    6.434809
    198          8           0        4.317492    1.030783    7.264799
    199          7           0        4.976197    2.999702    6.366723
    200          6           0        4.208739    3.782052    7.336590
    201          1           0        4.376538    3.387803    8.342133
    202          1           0        3.140141    3.697467    7.109043
    203          6           0        4.719721    5.213390    7.150247
    204          1           0        5.549100    5.400469    7.838324
    205          1           0        3.937744    5.956008    7.327064
    206          6           0        5.225479    5.237420    5.704673
    207          1           0        5.953755    6.027609    5.511393
    208          1           0        4.399739    5.379627    5.003037
    209          6           0        5.825350    3.832063    5.516574
    210          1           0        5.748537    3.529245    4.469529
    211          6           0        7.284636    3.801940    5.990424
    212          8           0        7.586692    3.645256    7.167657
    213          7           0        8.154384    4.023987    4.985528
    214          1           0        7.787690    4.076404    4.041525
    215          6           0        9.574260    4.190759    5.159955
    216          1           0        9.828680    3.855370    6.169095
    217          6           0       10.375567    3.407459    4.114568
    218          1           0       10.177066    2.337558    4.244945
    219          1           0       10.024059    3.680594    3.109966
    220          6           0       11.846499    3.718614    4.246478
    221          6           0       12.593524    3.198253    5.303453
    222          1           0       12.148007    2.508014    6.010602
    223          6           0       13.930860    3.537932    5.472057
    224          1           0       14.479227    3.056081    6.275942
    225          6           0       14.539940    4.419020    4.580404
    226          1           0       15.586695    4.688049    4.706395
    227          6           0       13.809091    4.939457    3.513826
    228          1           0       14.277198    5.600244    2.790127
    229          6           0       12.470689    4.590311    3.353340
    230          1           0       11.901013    5.003880    2.525975
    231          1           0        9.843395    5.254558    5.094384
    232          1           0        0.572301   -7.529654    8.845024
    233          6           0        0.522168   -6.493017    8.485737
    234          1           0        0.129852   -5.876264    9.299875
    235          6           0        1.934996   -6.017311    8.091986
    236          1           0        2.602939   -6.276652    8.920439
    237          1           0        2.302982   -6.579573    7.223627
    238          6           0        2.035513   -4.533901    7.816223
    239          6           0        1.973709   -3.624481    8.877463
    240          1           0        1.799633   -3.990203    9.888063
    241          6           0        2.181490   -2.265100    8.657600
    242          1           0        2.175454   -1.573809    9.495514
    243          6           0        2.458457   -1.793963    7.373019
    244          1           0        2.705856   -0.746792    7.212399
    245          6           0        2.486931   -2.689041    6.305508
    246          1           0        2.726921   -2.321221    5.310852
    247          6           0        2.266279   -4.047619    6.528284
    248          1           0        2.319497   -4.742798    5.691196
    249          6           0       -0.481656   -6.445312    7.365962
    250          8           0       -1.510223   -5.757536    7.421756
    251          7           0       -0.268612   -7.263412    6.307797
    252          1           0        0.659113   -7.648083    6.184103
    253          6           0       -1.119097   -7.184086    5.131036
    254          1           0       -1.156658   -6.148107    4.765282
    255          6           0       -0.565756   -8.087742    4.012463
    256          1           0       -0.371589   -9.090555    4.415488
    257          1           0       -1.353022   -8.193378    3.260876
    258          6           0        0.666543   -7.514596    3.352319
    259          6           0        1.944251   -8.033185    3.556396
    260          1           0        2.082629   -8.895875    4.205752
    261          6           0        3.061387   -7.489254    2.918418
    262          1           0        4.051135   -7.907853    3.078614
    263          6           0        2.885432   -6.417968    2.048707
    264          8           0        3.896609   -5.814408    1.372709
    265          1           0        4.746923   -6.284456    1.375319
    266          6           0        1.611590   -5.884964    1.832053
    267          1           0        1.495738   -5.060666    1.135869
    268          6           0        0.520251   -6.424013    2.486969
    269          1           0       -0.460383   -5.982686    2.334103
    270          6           0       -2.562236   -7.539538    5.438226
    271          8           0       -3.467431   -7.082300    4.748788
    272          7           0       -2.805495   -8.411273    6.451658
    273          1           0       -2.032332   -8.722708    7.022260
    274          6           0       -4.170291   -8.729714    6.795948
    275          1           0       -4.714775   -8.556090    5.859294
    276          6           0       -4.382214  -10.206114    7.189122
    277          1           0       -3.421056  -10.663233    7.446531
    278          1           0       -5.011765  -10.263675    8.082592
    279          6           0       -5.032078  -11.001271    6.041069
    280          1           0       -4.515731  -10.737675    5.109786
    281          1           0       -4.888848  -12.076596    6.184589
    282          6           0       -6.534294  -10.687045    5.930258
    283          1           0       -7.090166  -11.415123    6.531536
    284          1           0       -6.735774   -9.690252    6.344175
    285          7           0       -7.004435  -10.730462    4.535723
    286          1           0       -6.309559  -10.819129    3.804261
    287          6           0       -8.228770  -10.359020    4.146835
    288          7           0       -9.284001  -10.459885    4.961098
    289          1           0       -9.164217  -10.899524    5.861048
    290          1           0       -9.989067   -9.704630    4.901949
    291          7           0       -8.414018   -9.879184    2.904977
    292          1           0       -7.727707   -9.224259    2.538523
    293          1           0       -9.361166   -9.607425    2.672517
[...]
 4\C,0,-13.367293,0.383292,-1.703088\H,0,-14.082989,1.19534,-1.891401\H
 ,0,-12.645315,0.754004,-0.969072\C,0,-12.646848,0.097778,-3.027716\H,0
 ,-11.876334,-0.669645,-2.887662\H,0,-13.365262,-0.30907,-3.751067\N,0,
 -11.999941,1.268827,-3.643527\H,0,-11.172116,1.511634,-3.101179\H,0,-1
 1.339195,1.666732,-5.541536\H,0,-12.62024,2.07362,-3.562639\C,0,-10.95
 3648,-1.634275,-0.453422\O,0,-10.905698,-0.499308,0.010471\N,0,-9.9060
 24,-2.268405,-1.018044\H,0,-10.043522,-3.208835,-1.385054\C,-1,-8.6287
 46,-1.627773,-1.247629\H,0,-8.789041,-0.546821,-1.182971\C,0,-7.513099
 ,-2.013846,-0.25137\H,0,-7.295067,-3.082399,-0.389196\C,0,-6.252691,-1
 .200387,-0.572942\H,0,-6.461687,-0.124612,-0.53223\H,0,-5.458552,-1.41
 7867,0.14712\H,0,-5.864822,-1.419832,-1.574196\C,0,-7.966548,-1.795163
 ,1.191929\H,0,-8.83716,-2.416164,1.431685\H,0,-7.159836,-2.046621,1.89
 0031\H,0,-8.247501,-0.749496,1.359799\C,0,-8.23821,-2.025687,-2.659154
 \O,0,-8.173093,-3.228362,-2.953092\N,0,-8.044724,-1.038054,-3.535959\H
 ,0,-7.953854,-0.085796,-3.177125\C,-1,-7.6778,-1.307103,-4.912012\H,0,
 -7.610039,-2.390106,-5.029297\C,0,-8.720168,-0.76463,-5.899533\H,0,-8.
 663428,0.32774,-5.940247\H,0,-8.458485,-1.150395,-6.891459\C,0,-10.151
 488,-1.14492,-5.513275\H,0,-10.345248,-0.819891,-4.487844\H,0,-10.8485
 47,-0.573308,-6.138285\C,0,-10.49885,-2.630191,-5.629219\H,0,-9.783307
 ,-3.251782,-5.085111\H,0,-11.485549,-2.818958,-5.190915\N,0,-10.503658
 ,-3.011492,-7.038648\H,0,-10.779944,-2.273593,-7.670557\C,0,-9.79528,-
 3.999659,-7.608647\N,0,-9.448887,-5.098237,-6.954841\H,0,-9.472113,-5.
 188777,-5.936061\H,0,-8.681106,-5.607773,-7.394253\N,0,-9.513882,-3.92
 5245,-8.930152\H,0,-9.434798,-2.975796,-9.270369\H,0,-8.632044,-4.4557
 9,-9.11842\C,0,-6.285587,-0.714229,-5.140404\O,0,-5.890493,0.212143,-4
 .420472\N,0,-5.548758,-1.260301,-6.107999\H,0,-5.911304,-2.07875,-6.63
 0339\C,-1,-4.159773,-0.854073,-6.263504\H,0,-4.069685,0.201717,-6.0045
 71\C,0,-3.261693,-1.697488,-5.345758\H,0,-3.308965,-2.753238,-5.635495
 \H,0,-2.221201,-1.358543,-5.396694\H,0,-3.606545,-1.606876,-4.312542\C
 ,0,-3.741333,-1.08689,-7.708242\O,0,-3.981883,-2.141374,-8.288418\N,0,
 -3.039276,-0.08569,-8.284737\H,0,-2.936609,0.798244,-7.7897\C,-1,-2.60
 831,-0.2307,-9.660165\H,0,-2.228499,-1.247664,-9.792811\C,0,-3.72879,-
 0.002373,-10.673003\H,0,-3.327529,-0.125148,-11.682715\H,0,-4.517539,-
 0.738838,-10.507165\S,0,-4.404532,1.694985,-10.494339\H,0,-5.005932,1.
 744869,-11.69431\H,0,-1.788229,0.472109,-9.837726\H,0,8.41335,1.255247
 ,-7.982663\C,-1,7.633928,1.310164,-8.751395\H,0,8.123194,1.383916,-9.7
 27841\C,0,6.722272,0.08565,-8.682269\H,0,5.932635,0.163989,-9.44066\H,
 0,7.295879,-0.821507,-8.908047\C,0,6.09562,-0.057848,-7.299577\H,0,6.8
 83849,-0.246513,-6.561545\H,0,5.575509,0.864584,-7.013001\S,0,4.885365
 ,-1.425464,-7.256207\C,0,4.749301,-1.61583,-5.458316\H,0,4.852715,-0.6
 40769,-4.983572\H,0,3.756099,-1.979753,-5.19799\H,0,5.503447,-2.302583
 ,-5.066312\H,0,7.065181,2.233841,-8.589797\H,0,2.463766,3.423177,-7.60
 6172\C,-1,1.448072,3.080722,-7.815778\H,0,1.247943,3.268034,-8.879313\
 C,0,1.321765,1.574856,-7.526599\H,0,0.308802,1.212517,-7.748042\H,0,1.
 99185,1.040793,-8.212044\C,0,1.68769,1.239506,-6.101947\C,0,0.768243,0
 .684813,-5.211267\H,0,-0.248354,0.481252,-5.545161\C,0,1.138033,0.4191
 19,-3.892292\H,0,0.418,-0.012828,-3.201975\C,0,2.422246,0.720642,-3.45
 4215\H,0,2.717571,0.540241,-2.430293\C,0,3.338396,1.286551,-4.334861\H
 ,0,4.332191,1.546195,-3.982228\C,0,2.973814,1.536818,-5.647552\H,0,3.6
 84887,2.014026,-6.315038\C,0,0.530265,3.967982,-7.002409\O,0,0.921984,
 4.908416,-6.326343\N,0,-0.783344,3.665688,-7.130681\H,0,-1.06673,2.826
 388,-7.613819\C,-1,-1.792438,4.294299,-6.324292\H,0,-1.292475,4.876652
 ,-5.546245\C,0,-2.65785,5.244112,-7.169759\H,0,-1.992129,6.050128,-7.4
 94084\H,0,-3.005756,4.70439,-8.060934\C,0,-3.859016,5.817039,-6.417529
 \H,0,-4.585143,5.023811,-6.208741\H,0,-3.540644,6.216679,-5.447292\C,0
 ,-4.575625,6.916974,-7.201792\H,0,-4.683348,6.6218,-8.255403\H,0,-5.58
 5227,7.038421,-6.788743\N,0,-3.84975,8.173927,-7.098874\H,0,-2.817473,
 8.153327,-6.81107\C,0,-4.383862,9.372446,-7.233176\N,0,-5.664128,9.525
 256,-7.699637\H,0,-6.231363,8.694375,-7.765914\H,0,-6.16459,10.3354,-7
 .366564\N,0,-3.679116,10.458777,-6.939497\H,0,-2.678571,10.394889,-6.5
 59803\H,0,-4.024968,11.357936,-7.233721\C,0,-2.628628,3.191302,-5.6935
 34\O,0,-2.931864,2.17888,-6.342635\N,0,-3.016006,3.42857,-4.434117\H,0
 ,-2.727759,4.306714,-3.995447\C,-1,-4.025409,2.635504,-3.769358\H,0,-4
 .300597,1.8268,-4.447287\C,0,-3.526733,1.992126,-2.456683\H,0,-4.39722
 9,1.489397,-2.01447\C,0,-2.461688,0.944998,-2.778166\H,0,-1.578406,1.4
 16759,-3.223535\H,0,-2.14493,0.434054,-1.862291\H,0,-2.842169,0.196045
 ,-3.476771\C,0,-2.987196,3.015601,-1.463415\H,0,-3.729448,3.784804,-1.
 247775\H,0,-2.727305,2.534658,-0.514926\H,0,-2.087988,3.510204,-1.8490
 81\C,0,-5.260118,3.524786,-3.572806\O,0,-5.170073,4.729499,-3.322951\N
 ,0,-6.445115,2.900821,-3.725834\H,0,-6.428652,1.88775,-3.853403\C,-1,-
 7.684868,3.498652,-3.295342\H,0,-7.542754,4.569939,-3.149836\C,0,-8.88
 2873,3.200764,-4.211685\H,0,-9.033591,2.11675,-4.193198\H,0,-9.748664,
 3.64977,-3.70805\C,0,-8.941634,3.632574,-5.682473\H,0,-8.805576,4.7086
 54,-5.805812\H,0,-8.206074,3.087533,-6.281633\C,0,-10.367513,3.254819,
 -6.042899\O,0,-10.525672,1.910629,-6.043288\O,0,-11.287343,4.028223,-6
 .1504\C,0,-8.172457,2.800017,-2.025081\O,0,-8.075852,1.570411,-1.92459
 2\N,0,-8.848937,3.565059,-1.164571\H,0,-9.011067,4.552017,-1.366412\C,
 -1,-9.500022,2.989398,-0.008153\H,0,-10.164337,2.175469,-0.338433\C,0,
 -8.493169,2.35972,0.972928\H,0,-9.039352,1.925271,1.816812\H,0,-8.0318
 19,1.515174,0.455934\C,0,-7.400966,3.295369,1.505846\H,0,-7.792642,4.2
 99855,1.696677\H,0,-7.037802,2.91569,2.466134\S,0,-5.940789,3.44632,0.
 403843\C,0,-6.012054,5.181103,-0.108182\H,0,-5.827789,5.854573,0.73256
 3\H,0,-5.225164,5.32394,-0.849557\H,0,-6.970934,5.423035,-0.571392\C,0
 ,-10.406583,4.073577,0.577165\O,0,-10.876924,4.950209,-0.141593\N,0,-1
 0.679404,3.965999,1.89656\H,0,-10.318521,3.199567,2.465281\C,-1,-11.72
 7148,4.758077,2.49563\H,0,-12.035203,5.476316,1.730218\C,0,-12.947371,
 3.892444,2.881361\H,0,-12.616655,3.212222,3.676131\C,0,-14.074683,4.76
 9471,3.430446\H,0,-14.406901,5.492343,2.674841\H,0,-14.938029,4.155949
 ,3.708134\H,0,-13.761139,5.325248,4.319898\C,0,-13.421658,3.058789,1.6
 88638\H,0,-12.657029,2.346429,1.364084\H,0,-14.318336,2.488745,1.95550
 9\H,0,-13.668075,3.701443,0.834939\C,0,-11.207264,5.504708,3.723413\O,
 0,-10.918055,4.92081,4.772231\N,0,-11.163956,6.844395,3.59924\H,0,-11.
 15782,7.210321,2.658315\C,-1,-10.658329,7.691775,4.660798\H,0,-11.0971
 47,7.333464,5.595387\C,0,-9.124635,7.70265,4.79134\H,0,-8.765566,6.672
 371,4.680863\H,0,-8.691633,8.285794,3.973276\C,0,-8.674527,8.257195,6.
 10497\C,0,-7.990928,9.416727,6.335274\H,0,-7.631096,10.155452,5.631718
 \N,0,-7.767415,9.57415,7.68652\H,0,-7.200498,10.296637,8.097096\C,0,-8
 .291124,8.492917,8.357505\C,0,-8.298594,8.184791,9.720458\H,0,-7.83634
 6,8.841658,10.451708\C,0,-8.910668,7.002762,10.101834\H,0,-8.929477,6.
 729877,11.153001\C,0,-9.500544,6.143489,9.155071\H,0,-9.963197,5.22074
 3,9.492647\C,0,-9.490197,6.450938,7.805659\H,0,-9.935316,5.781685,7.07
 3091\C,0,-8.87917,7.644785,7.393102\H,0,-11.033018,8.705962,4.493753\H
 ,0,-10.494117,7.841129,-0.896239\C,-1,-9.588163,8.445304,-0.992501\H,0
 ,-9.85006,9.393261,-1.477081\C,0,-8.98159,8.735694,0.381841\H,0,-8.029
 142,9.265795,0.294322\H,0,-9.661597,9.361016,0.967393\S,0,-8.685355,7.
 150039,1.243154\H,0,-7.705843,7.584375,2.050723\C,0,-8.623861,7.66224,
 -1.887788\O,0,-8.85944,6.521086,-2.279771\N,0,-7.505538,8.342471,-2.22
 1417\H,0,-7.267136,9.207803,-1.751258\C,-1,-6.394276,7.754364,-2.93180
 8\H,0,-6.540164,6.672888,-2.972488\C,0,-6.278769,8.310077,-4.35415\H,0
 ,-6.179949,9.400835,-4.328357\H,0,-5.386929,7.901203,-4.834822\H,0,-7.
 167324,8.042285,-4.935523\C,0,-5.113082,8.078861,-2.166909\O,0,-5.0581
 93,9.106282,-1.489354\N,0,-4.112122,7.211553,-2.368079\H,0,-4.301072,6
 .327558,-2.840142\C,-1,-2.784404,7.394386,-1.815978\H,0,-2.678456,8.45
 6856,-1.579962\C,0,-2.574513,6.541358,-0.558\H,0,-3.356312,6.812137,0.
 163916\H,0,-2.744924,5.50046,-0.841954\C,0,-1.194924,6.664158,0.106498
 \H,0,-0.421771,6.641807,-0.673233\C,0,-1.048494,7.97747,0.875008\H,0,-
 1.71086,7.984432,1.750185\H,0,-0.029191,8.12123,1.242491\H,0,-1.298182
 ,8.841678,0.251473\C,0,-0.968575,5.457865,1.018505\H,0,-1.039152,4.525
 548,0.446919\H,0,0.01413,5.490623,1.498185\H,0,-1.727208,5.424427,1.81
 2138\C,0,-1.773448,7.001419,-2.889017\O,0,-1.856479,5.900672,-3.454075
 \N,0,-0.81089,7.896817,-3.132683\H,0,-0.842976,8.791775,-2.642043\C,-1
 ,0.251862,7.661085,-4.098297\H,0,-0.099186,6.870018,-4.763301\C,0,0.44
 7727,8.905638,-4.959041\H,0,0.662041,9.792674,-4.355275\H,0,1.292999,8
 .738604,-5.637114\C,0,-0.817212,9.140259,-5.799425\O,0,-1.352011,8.108
 817,-6.299116\O,0,-1.228639,10.317695,-5.925732\C,0,1.5064,7.179869,-3
 .363648\O,0,1.919617,7.777686,-2.366592\N,0,2.073697,6.063461,-3.85650
 8\H,0,1.6916,5.615365,-4.6885\C,-1,3.116134,5.349006,-3.142658\H,0,3.5
 50809,6.045515,-2.417887\C,0,2.541983,4.116716,-2.387111\H,0,2.193136,
 3.413905,-3.15382\C,0,3.627413,3.439188,-1.544324\H,0,4.126547,4.17382
 7,-0.902374\H,0,3.180948,2.673516,-0.900757\H,0,4.395193,2.944053,-2.1
 42617\C,0,1.343681,4.486804,-1.509707\H,0,0.528178,4.923835,-2.095462\
 H,0,0.956751,3.581894,-1.02607\H,0,1.62269,5.190034,-0.717836\C,0,4.18
 1316,4.878365,-4.132543\O,0,3.880954,4.461018,-5.24574\N,0,5.461639,4.
 895631,-3.672779\H,0,5.66733,5.263274,-2.742516\C,-1,6.514221,4.209312
 ,-4.398278\H,0,6.040052,3.794745,-5.294173\C,0,7.666428,5.145469,-4.82
 1167\H,0,8.066381,5.598067,-3.903254\C,0,8.786814,4.344549,-5.492231\H
 ,0,8.417825,3.830453,-6.389974\H,0,9.608287,4.999235,-5.795793\H,0,9.2
 12153,3.588346,-4.824687\C,0,7.124802,6.264072,-5.719685\H,0,6.77061,5
 .825507,-6.663225\H,0,6.246068,6.70196,-5.234947\C,0,8.137679,7.371742
 ,-6.006045\H,0,8.992804,7.010632,-6.587585\H,0,7.671611,8.182997,-6.57
 495\H,0,8.523661,7.797302,-5.072667\C,0,7.05262,3.099315,-3.508863\O,0
 ,7.457826,3.365982,-2.383276\N,0,7.080914,1.835678,-4.007773\H,0,6.987
 97,1.71343,-5.007685\C,-1,7.815738,0.827246,-3.276102\H,0,7.972938,1.2
 32157,-2.275159\C,0,7.127435,-0.521487,-3.129778\H,0,6.978958,-1.00193
 4,-4.101316\H,0,7.791485,-1.178008,-2.554089\C,0,5.81351,-0.48014,-2.3
 86437\O,0,5.344197,0.498764,-1.846756\O,0,5.227948,-1.672287,-2.416613
 \H,0,4.30941,-1.608981,-2.035391\C,0,9.171242,0.573846,-3.940824\O,0,9
 .271379,0.481622,-5.167532\N,0,10.181088,0.407828,-3.069348\H,0,9.9815
 76,0.478949,-2.065442\C,-1,11.508327,-0.04808,-3.445922\H,0,11.555606,
 -0.045524,-4.539642\C,0,12.594539,0.877148,-2.855279\H,0,12.470138,0.8
 65934,-1.764467\C,0,13.996847,0.35124,-3.1658\H,0,14.175025,0.316273,-
 4.2491\H,0,14.745395,1.011002,-2.718121\H,0,14.158622,-0.651846,-2.756
 498\C,0,12.412477,2.309625,-3.354984\H,0,11.423443,2.701042,-3.101586\
 H,0,13.151565,2.967787,-2.8882\H,0,12.537469,2.362256,-4.444419\C,0,11
 .646923,-1.454406,-2.878128\O,0,11.456344,-1.680561,-1.685772\N,0,11.9
 9076,-2.426012,-3.747366\H,0,12.08734,-2.198851,-4.725924\C,-1,12.2378
 63,-3.78329,-3.316317\H,0,12.226457,-3.775819,-2.224896\C,0,11.223537,
 -4.786491,-3.871202\H,0,11.155696,-4.67025,-4.961295\H,0,11.59589,-5.8
 0018,-3.676867\C,0,9.838841,-4.632756,-3.251284\H,0,9.880596,-4.836889
 ,-2.175865\H,0,9.465843,-3.611086,-3.387141\S,0,8.696677,-5.815066,-4.
 03354\C,0,7.207193,-5.522773,-3.049572\H,0,6.844561,-4.496011,-3.15522
 9\H,0,6.433869,-6.200978,-3.421156\H,0,7.397366,-5.738408,-1.994581\H,
 0,13.245276,-4.075408,-3.636391\H,0,11.45828,-11.177742,-2.01693\C,-1,
 11.498784,-10.122941,-1.720866\H,0,12.147377,-9.597904,-2.433649\C,0,1
 0.097503,-9.497071,-1.705506\H,0,9.470857,-10.076151,-1.010605\C,0,10.
 15302,-8.055341,-1.188682\H,0,10.793038,-7.4386,-1.833182\H,0,9.161003
 ,-7.591839,-1.165461\H,0,10.557952,-8.016472,-0.170919\C,0,9.456368,-9
 .58094,-3.100295\H,0,9.941994,-8.847135,-3.757716\H,0,9.664166,-10.571
 704,-3.528268\C,0,7.946768,-9.350491,-3.110445\H,0,7.685261,-8.382957,
 -2.671077\H,0,7.55403,-9.364326,-4.133678\H,0,7.430018,-10.125139,-2.5
 326\H,0,11.97205,-10.064031,-0.733975\H,0,10.92806,-4.474045,1.433356\
 C,-1,10.400974,-3.711,0.853797\H,0,10.962572,-3.514823,-0.066276\C,0,8
 .989859,-4.218031,0.494887\H,0,9.094159,-5.16251,-0.059012\H,0,8.44334
 6,-4.454921,1.415267\C,0,8.171774,-3.229273,-0.353001\H,0,8.842126,-2.
 666827,-1.013883\H,0,7.459714,-3.760509,-0.989719\S,0,7.219575,-1.9822
 72,0.574483\C,0,5.724621,-2.936482,0.947376\H,0,5.977012,-3.879834,1.4
 40204\H,0,5.119521,-2.342274,1.640478\H,0,5.146243,-3.133323,0.0399\C,
 0,10.318759,-2.459876,1.711609\O,0,10.063561,-2.551785,2.910909\N,0,10
 .484669,-1.30236,1.048091\H,0,10.731253,-1.325727,0.062951\C,-1,10.265
 392,0.008831,1.62589\H,0,9.980598,-0.125816,2.671618\C,0,11.505788,0.8
 89133,1.484114\H,0,11.641069,1.112053,0.422092\H,0,11.314465,1.844825,
 1.985599\C,0,12.780016,0.257254,2.02627\H,0,12.66123,-0.087073,3.05933
 7\H,0,13.056145,-0.601282,1.402168\C,0,13.885998,1.290256,1.938794\O,0
 ,14.089514,1.90414,0.870527\N,0,14.579359,1.473642,3.059371\H,0,15.200
 789,2.268648,3.099929\H,0,14.26516,1.024179,3.947025\C,0,9.154431,0.69
 0717,0.838562\O,0,9.185491,0.702856,-0.40313\N,0,8.214777,1.304322,1.5
 60479\H,0,8.186647,1.153281,2.570731\C,-1,7.108568,1.987427,0.928927\H
 ,0,7.221418,1.856011,-0.147628\C,0,5.763171,1.405188,1.364714\H,0,5.59
 5967,1.541369,2.436114\H,0,4.94939,1.899755,0.823651\H,0,5.722108,0.34
 0679,1.124433\C,0,7.162859,3.466495,1.283506\O,0,7.013406,3.859205,2.4
 41429\N,0,7.374735,4.292278,0.254622\H,0,7.390684,3.923873,-0.691387\C
 ,-1,7.57714,5.713669,0.419714\H,0,7.936236,5.880642,1.438233\C,0,8.621
 08,6.201707,-0.6051\H,0,8.259494,5.902627,-1.596146\H,0,8.611993,7.297
 423,-0.593056\C,0,10.036576,5.714169,-0.376077\C,0,10.415863,4.373005,
 -0.523062\H,0,9.686134,3.621665,-0.81178\C,0,11.730172,3.967519,-0.317
 471\H,0,12.010153,2.925505,-0.41928\C,0,12.719272,4.893404,0.031772\O,
 0,14.00348,4.547533,0.249059\H,0,14.07005,3.588273,0.480545\C,0,12.359
 698,6.238334,0.152878\H,0,13.12162,6.961269,0.427917\C,0,11.039444,6.6
 28457,-0.039165\H,0,10.780932,7.678864,0.079658\C,0,6.25235,6.436686,0
 .185713\O,0,5.733935,6.448691,-0.938251\N,0,5.740559,7.048967,1.261583
 \H,0,6.106336,6.863139,2.190165\C,-1,4.499701,7.784627,1.241434\H,0,4.
 550408,8.542514,0.4515\C,0,3.28223,6.867406,0.940362\H,0,2.392493,7.50
 5169,0.888973\H,0,3.433554,6.464975,-0.064038\C,0,3.07337,5.763947,1.9
 33151\C,0,3.68402,4.535489,1.951966\H,0,4.432904,4.138272,1.283274\N,0
 ,3.234542,3.782471,3.007163\H,0,3.502673,2.82786,3.250413\C,0,2.30921,
 4.516817,3.701096\C,0,1.556345,4.167622,4.826895\H,0,1.662437,3.182401
 ,5.27249\C,0,0.69086,5.124112,5.331644\H,0,0.090008,4.890423,6.206755\
 C,0,0.578644,6.397618,4.735392\H,0,-0.096882,7.130172,5.168356\C,0,1.3
 2105,6.736505,3.616765\H,0,1.238775,7.728472,3.177281\C,0,2.193586,5.7
 80014,3.071598\C,0,4.30386,8.450667,2.599349\O,0,4.824259,7.977277,3.6
 07224\N,0,3.439999,9.482625,2.578624\H,0,3.295431,9.999218,1.712173\C,
 -1,3.022004,10.15164,3.789788\H,0,2.964832,9.385423,4.574366\C,0,4.061
 227,11.210275,4.222785\H,0,3.820872,11.609582,5.216016\H,0,5.015291,10
 .671661,4.308178\O,0,4.171907,12.229747,3.271114\H,0,3.843753,13.06963
 1,3.667264\C,0,1.612661,10.7137,3.575388\O,0,0.89204,10.369247,2.63250
 6\N,0,1.193501,11.583264,4.506799\H,0,1.830036,11.952877,5.218808\C,-1
 ,-0.023097,12.340664,4.304872\H,0,-0.885456,11.660289,4.348735\C,0,-0.
 18487,13.457652,5.341234\H,0,-1.221099,13.818379,5.280666\H,0,-0.04215
 4,13.036512,6.342609\C,0,0.787636,14.629734,5.160247\H,0,0.619691,15.1
 28516,4.199109\H,0,0.609533,15.363359,5.957742\C,0,2.259938,14.15014,5
 .2309\O,0,2.525085,13.368154,6.184642\O,0,3.01538,14.512785,4.302968\H
 ,0,-0.015834,12.767066,3.290388\H,0,0.501127,12.589641,-0.138171\C,-1,
 0.310509,11.795269,-0.864931\H,0,0.554621,12.162061,-1.867293\C,0,1.16
 1112,10.54232,-0.530619\H,0,1.043441,10.304845,0.53047\H,0,0.796593,9.
 700647,-1.126905\C,0,2.642803,10.713879,-0.797008\O,0,3.428442,11.1045
 02,0.056297\N,0,3.038306,10.426419,-2.0776\H,0,4.044823,10.388359,-2.1
 80185\H,0,2.55004,9.645148,-2.509014\C,0,-1.136381,11.330438,-0.87564\
 O,0,-1.531661,10.48515,-1.682715\N,0,-1.937979,11.86292,0.075295\H,0,-
 1.482141,12.430665,0.776184\C,-1,-3.249901,11.332335,0.417425\H,0,-3.4
 38151,10.476448,-0.234762\C,0,-3.273527,10.953577,1.902113\H,0,-2.4386
 82,10.270987,2.106107\H,0,-3.072832,11.860362,2.4924\C,0,-4.587462,10.
 331941,2.396254\H,0,-5.416983,10.973055,2.05755\C,0,-4.810805,8.924933
 ,1.833749\H,0,-4.008562,8.25185,2.159142\H,0,-5.755381,8.509612,2.2123
 47\H,0,-4.844742,8.913613,0.740509\C,0,-4.604801,10.298254,3.927741\H,
 0,-4.531263,11.30592,4.352943\H,0,-5.52221,9.829408,4.305585\H,0,-3.75
 7096,9.715094,4.306979\H,0,-4.024345,12.081446,0.203562\O,0,1.340934,-
 2.81468,3.124523\H,0,2.027087,-3.488232,3.050388\H,0,1.880692,-1.99379
 ,3.297984\O,0,-1.157759,-3.827628,3.838326\H,0,-1.556517,-3.538777,3.0
 08773\H,0,-0.253492,-3.43875,3.789911\O,0,-1.201102,-3.035037,8.170667
 \H,0,-0.917361,-3.821308,7.684519\H,0,-0.456748,-2.421323,8.084032\O,0
 ,-7.20908,-3.968597,9.982334\H,0,-7.101196,-3.967461,9.01663\H,0,-7.03
 6464,-3.056816,10.241207\O,0,-7.308715,-5.724474,-1.823538\H,0,-7.6153
 01,-4.809162,-1.931803\H,0,-6.438175,-5.730476,-2.26326\O,0,-8.320715,
 -3.576374,5.315392\H,0,-7.755309,-3.611354,6.10409\H,0,-7.755894,-3.10
 8726,4.675643\O,0,-8.458201,-5.522942,-4.435577\H,0,-8.125254,-4.63719
 8,-4.220935\H,0,-8.3496,-5.970834,-3.5762\O,0,-10.029345,2.356905,4.13
 2301\H,0,-10.646455,1.701011,4.473077\H,0,-10.265547,3.192042,4.584665
 \C,0,1.961368,-1.64789,-0.894597\O,0,2.717026,-1.965443,-1.816835\C,0,
 2.110547,-0.418978,-0.143278\C,0,1.172159,0.019019,0.727839\C,0,-0.120
 601,-0.742808,0.965809\C,0,-0.408441,-1.753274,-0.149765\C,0,0.837588,
 -2.560031,-0.486498\C,0,1.438094,1.231585,1.563941\C,0,0.203354,2.0600
 4,1.910838\C,0,-0.946592,1.17324,2.384725\C,0,-1.310938,0.19735,1.2444
 83\C,0,-2.172996,1.970504,2.799941\C,0,-3.368746,1.085207,3.20242\C,0,
 -3.780096,0.248597,1.98957\C,0,-2.606682,-0.600946,1.481792\C,0,-2.051
 559,2.981156,3.950495\C,0,-3.517512,3.189128,4.419112\C,0,-4.363433,2.
 19028,3.605902\C,0,-3.09308,0.171848,4.408213\O,0,-5.49166,1.768471,4.
 359855\H,0,3.031692,0.140479,-0.295345\H,0,0.054832,-1.319809,1.888195
 \H,0,-0.76496,-1.225248,-1.045941\H,0,-1.211006,-2.435347,0.151797\H,0
 ,1.175742,-3.073172,0.424636\H,0,0.675709,-3.30634,-1.267627\H,0,2.198
 676,1.857297,1.084764\H,0,1.912837,0.880636,2.495912\H,0,-0.130567,2.6
 3122,1.034126\H,0,0.473374,2.793241,2.676389\H,0,-0.591551,0.589963,3.
 249237\H,0,-1.47263,0.814989,0.345602\H,0,-2.500233,2.537405,1.910733\
 H,0,-4.11359,0.920665,1.185525\H,0,-4.6277,-0.411558,2.22851\H,0,-2.40
 4138,-1.412624,2.197418\H,0,-2.909689,-1.086968,0.546803\H,0,-1.568947
 ,3.910609,3.638919\H,0,-1.43088,2.571524,4.755892\H,0,-3.861954,4.2146
 98,4.259253\H,0,-3.640594,2.972249,5.485198\H,0,-4.702642,2.679719,2.6
 82223\H,0,-2.805108,0.740425,5.296958\H,0,-4.005343,-0.383001,4.655334
 \H,0,-2.2972,-0.553322,4.212528\H,0,-5.948831,1.096013,3.839105\\Versi
 on=ES64L-G16RevC.01\State=1-A\HF=-23231.1730893\RMSD=2.129e-10\Dipole=
 -31.1297443,-29.3474957,-12.938451\Quadrupole=-213.7529514,111.0232905
 ,102.7296609,-249.863177,-310.7812893,-284.1478036\PG=C01 [X(C304H508N
 56O73S7)]\\@
 The archive entry for this job was punched.


 A HARD FALL SHOULD MEAN A HIGH BOUNCE 
 IF ONE IS MADE OF THE RIGHT MATERIAL.

                -- THE CHEMIST ANALYST, MARCH 1950
 Job cpu time:       3 days 19 hours 28 minutes 11.6 seconds.
 Elapsed time:       0 days  1 hours 27 minutes 53.8 seconds.
 File lengths (MBytes):  RWF=  31275 Int=      0 D2E=      0 Chk=   3348 Scr=      1
 Normal termination of Gaussian 16 at Sun May  3 12:50:01 2026.
