 Entering Gaussian System, Link 0=g16
 Input=cutoff7_19nt_ligand.com
 Output=cutoff7_19nt_ligand.log
 Initial command:
 /usr/local/packages/license/gaussian/g16-c01/g16/l1.exe "/work/arkanil/gauss_scratch/Gau-1459561.inp" -scrdir="/work/arkanil/gauss_scratch/"
 Entering Link 1 = /usr/local/packages/license/gaussian/g16-c01/g16/l1.exe PID=   1459569.
  
 Copyright (c) 1988-2019, Gaussian, Inc.  All Rights Reserved.
  
 This is part of the Gaussian(R) 16 program.  It is based on
 the Gaussian(R) 09 system (copyright 2009, Gaussian, Inc.),
 the Gaussian(R) 03 system (copyright 2003, Gaussian, Inc.),
 the Gaussian(R) 98 system (copyright 1998, Gaussian, Inc.),
 the Gaussian(R) 94 system (copyright 1995, Gaussian, Inc.),
 the Gaussian 92(TM) system (copyright 1992, Gaussian, Inc.),
 the Gaussian 90(TM) system (copyright 1990, Gaussian, Inc.),
 the Gaussian 88(TM) system (copyright 1988, Gaussian, Inc.),
 the Gaussian 86(TM) system (copyright 1986, Carnegie Mellon
 University), and the Gaussian 82(TM) system (copyright 1983,
 Carnegie Mellon University). Gaussian is a federally registered
 trademark of Gaussian, Inc.
  
 This software contains proprietary and confidential information,
 including trade secrets, belonging to Gaussian, Inc.
  
 This software is provided under written license and may be
 used, copied, transmitted, or stored only in accord with that
 written license.
  
 The following legend is applicable only to US Government
 contracts under FAR:
  
                    RESTRICTED RIGHTS LEGEND
  
 Use, reproduction and disclosure by the US Government is
 subject to restrictions as set forth in subparagraphs (a)
 and (c) of the Commercial Computer Software - Restricted
 Rights clause in FAR 52.227-19.
  
 Gaussian, Inc.
 340 Quinnipiac St., Bldg. 40, Wallingford CT 06492
  
  
 ---------------------------------------------------------------
 Warning -- This program may not be used in any manner that
 competes with the business of Gaussian, Inc. or will provide
 assistance to any competitor of Gaussian, Inc.  The licensee
 of this program is prohibited from giving any competitor of
 Gaussian, Inc. access to this program.  By using this program,
 the user acknowledges that Gaussian, Inc. is engaged in the
 business of creating and licensing software in the field of
 computational chemistry and represents and warrants to the
 licensee that it is not a competitor of Gaussian, Inc. and that
 it will not use this program in any manner prohibited above.
 ---------------------------------------------------------------
  

 Cite this work as:
 Gaussian 16, Revision C.01,
 M. J. Frisch, G. W. Trucks, H. B. Schlegel, G. E. Scuseria, 
 M. A. Robb, J. R. Cheeseman, G. Scalmani, V. Barone, 
 G. A. Petersson, H. Nakatsuji, X. Li, M. Caricato, A. V. Marenich, 
 J. Bloino, B. G. Janesko, R. Gomperts, B. Mennucci, H. P. Hratchian, 
 J. V. Ortiz, A. F. Izmaylov, J. L. Sonnenberg, D. Williams-Young, 
 F. Ding, F. Lipparini, F. Egidi, J. Goings, B. Peng, A. Petrone, 
 T. Henderson, D. Ranasinghe, V. G. Zakrzewski, J. Gao, N. Rega, 
 G. Zheng, W. Liang, M. Hada, M. Ehara, K. Toyota, R. Fukuda, 
 J. Hasegawa, M. Ishida, T. Nakajima, Y. Honda, O. Kitao, H. Nakai, 
 T. Vreven, K. Throssell, J. A. Montgomery, Jr., J. E. Peralta, 
 F. Ogliaro, M. J. Bearpark, J. J. Heyd, E. N. Brothers, K. N. Kudin, 
 V. N. Staroverov, T. A. Keith, R. Kobayashi, J. Normand, 
 K. Raghavachari, A. P. Rendell, J. C. Burant, S. S. Iyengar, 
 J. Tomasi, M. Cossi, J. M. Millam, M. Klene, C. Adamo, R. Cammi, 
 J. W. Ochterski, R. L. Martin, K. Morokuma, O. Farkas, 
 J. B. Foresman, and D. J. Fox, Gaussian, Inc., Wallingford CT, 2019.
 
 ******************************************
 Gaussian 16:  ES64L-G16RevC.01  3-Jul-2019
                 4-May-2026 
 ******************************************
 %chk=ksi_reactant_trial.chk
 %nprocshared=64
 Will use up to   64 processors via shared memory.
 %mem=200GB
 --------------------------
 # wb97xd/6-31g(d) prop=efg
 --------------------------
 1/38=1,172=1/1;
 2/12=2,17=6,18=5,40=1/2;
 3/5=1,6=6,7=1,11=2,25=1,30=1,74=-58/1,2,3;
 4//1;
 5/5=2,38=5/2;
 6/7=2,8=2,9=2,10=2,14=1,28=1/1,2;
 99/5=1,9=1/99;
 -------------------------------
 None_sub_reg_combined_truncated
 -------------------------------
 Symbolic Z-matrix:
 Charge =  0 Multiplicity = 1
 C                    -1.8072    1.62571  -1.27797 
 O                    -2.43589   1.85999  -2.31027 
 C                    -1.80256   0.35311  -0.61445 
 C                    -0.98623   0.04812   0.41796 
 C                     0.05252   1.00946   0.92543 
 C                     0.30878   2.12811  -0.08848 
 C                    -1.00111   2.70316  -0.60521 
 C                    -1.16159  -1.22018   1.16246 
 C                     0.13615  -1.86076   1.64219 
 C                     1.01627  -0.82669   2.33615 
 C                     1.35409   0.28161   1.32635 
 C                     2.30607  -1.45009   2.84861 
 C                     3.25554  -0.42872   3.49341 
 C                     3.65124   0.58855   2.42798 
 C                     2.40023   1.26829   1.86482 
 C                     2.21181  -2.5532    3.90184 
 C                     3.6459   -2.63892   4.45265 
 C                     4.3873   -1.37476   3.94923 
 C                     2.66295   0.288     4.71291 
 O                     5.28381  -0.83857   4.89948 
 H                    -2.52821  -0.37276  -0.95688 
 H                    -0.37203   1.44703   1.83911 
 H                     0.88157   1.72949  -0.93047 
 H                     0.89504   2.92851   0.36463 
 H                    -1.6016    3.07278   0.23029 
 H                    -0.83916   3.53138  -1.29564 
 H                    -1.74682  -1.9323    0.57991 
 H                    -1.77052  -0.96498   2.04258 
 H                     0.67608  -2.29199   0.79319 
 H                    -0.10106  -2.67168   2.3287 
 H                     0.44936  -0.39795   3.16447 
 H                     1.77019  -0.19726   0.43095 
 H                     2.83728  -1.86752   1.98275 
 H                     4.1931    0.08195   1.62554 
 H                     4.31315   1.34857   2.84812 
 H                     1.94835   1.87665   2.64824 
 H                     2.71693   1.93563   1.06168 
 H                     1.88497  -3.50279   3.4844 
 H                     1.50191  -2.27073   4.67813 
 H                     4.14608  -3.53818   4.09722 
 H                     3.66118  -2.66558   5.54379 
 H                     5.01484  -1.62245   3.08846 
 H                     2.55976  -0.38578   5.56068 
 H                     3.30671   1.1206    4.99482 
 H                     1.67979   0.68851   4.49422 
 H                     4.76376  -0.53166   5.65221 
 
                          Input orientation:                          
 ---------------------------------------------------------------------
 Center     Atomic      Atomic             Coordinates (Angstroms)
 Number     Number       Type             X           Y           Z
 ---------------------------------------------------------------------
      1          6           0       -1.807201    1.625714   -1.277970
      2          8           0       -2.435886    1.859988   -2.310267
      3          6           0       -1.802556    0.353114   -0.614449
      4          6           0       -0.986227    0.048123    0.417960
      5          6           0        0.052522    1.009463    0.925433
      6          6           0        0.308783    2.128115   -0.088479
      7          6           0       -1.001110    2.703161   -0.605214
      8          6           0       -1.161588   -1.220178    1.162459
      9          6           0        0.136146   -1.860764    1.642191
     10          6           0        1.016271   -0.826685    2.336145
     11          6           0        1.354091    0.281612    1.326346
     12          6           0        2.306074   -1.450093    2.848615
     13          6           0        3.255539   -0.428720    3.493414
     14          6           0        3.651242    0.588546    2.427983
     15          6           0        2.400231    1.268293    1.864818
     16          6           0        2.211811   -2.553197    3.901845
     17          6           0        3.645903   -2.638921    4.452648
     18          6           0        4.387296   -1.374760    3.949228
     19          6           0        2.662946    0.288002    4.712914
     20          8           0        5.283811   -0.838570    4.899481
     21          1           0       -2.528215   -0.372756   -0.956875
     22          1           0       -0.372028    1.447026    1.839112
     23          1           0        0.881570    1.729490   -0.930473
     24          1           0        0.895043    2.928507    0.364631
     25          1           0       -1.601599    3.072777    0.230293
     26          1           0       -0.839158    3.531380   -1.295644
     27          1           0       -1.746816   -1.932298    0.579907
     28          1           0       -1.770516   -0.964985    2.042581
     29          1           0        0.676082   -2.291994    0.793190
     30          1           0       -0.101055   -2.671678    2.328703
     31          1           0        0.449359   -0.397952    3.164470
     32          1           0        1.770193   -0.197256    0.430950
     33          1           0        2.837276   -1.867517    1.982752
     34          1           0        4.193098    0.081953    1.625543
     35          1           0        4.313151    1.348567    2.848116
     36          1           0        1.948349    1.876653    2.648243
     37          1           0        2.716927    1.935631    1.061676
     38          1           0        1.884970   -3.502789    3.484401
     39          1           0        1.501913   -2.270731    4.678125
     40          1           0        4.146083   -3.538185    4.097216
     41          1           0        3.661178   -2.665584    5.543788
     42          1           0        5.014844   -1.622450    3.088460
     43          1           0        2.559760   -0.385776    5.560679
     44          1           0        3.306707    1.120603    4.994816
     45          1           0        1.679792    0.688515    4.494223
     46          1           0        4.763761   -0.531659    5.652211
 ---------------------------------------------------------------------
                    Distance matrix (angstroms):
                    1          2          3          4          5
     1  C    0.000000
     2  O    1.231165   0.000000
     3  C    1.435198   2.355328   0.000000
     4  C    2.457432   3.581562   1.351030   0.000000
     5  C    2.948443   4.169570   2.498668   1.503563   0.000000
     6  C    2.478847   3.541390   2.808029   2.501979   1.531362
     7  C    1.504418   2.382589   2.482966   2.845405   2.514285
     8  C    3.804157   4.813635   2.458352   1.481087   2.549812
     9  C    4.945651   6.006768   3.708402   2.530279   2.959550
    10  C    5.200777   6.381594   4.247790   2.907700   2.508059
    11  C    4.310782   5.484538   3.706241   2.521264   1.544209
    12  C    6.588499   7.749638   5.667911   4.357979   3.850525
    13  C    7.253836   8.444715   6.562784   5.261024   4.349967
    14  C    6.678653   7.817973   6.249459   5.083146   3.922451
    15  C    5.263777   6.416344   4.964649   3.879473   2.541885
    16  C    7.774717   8.925672   6.705125   5.397385   5.119971
    17  C    8.986848  10.147185   8.019567   6.704889   6.218066
    18  C    8.642814   9.808195   7.882066   6.585530   5.798114
    19  C    7.593575   8.820108   6.951673   5.640978   4.656161
    20  O    9.721936  10.902128   9.057601   7.757811   6.824564
    21  H    2.148685   2.612535   1.082000   2.108326   3.480490
    22  H    3.436255   4.652676   3.043521   2.086586   1.098414
    23  H    2.713119   3.595327   3.032955   2.852005   2.156420
    24  H    3.420165   4.403624   3.855942   3.440732   2.169579
    25  H    2.100266   2.936211   2.854915   3.092318   2.734337
    26  H    2.137517   2.524392   3.390212   3.884733   3.476829
    27  H    4.014325   4.817609   2.579283   2.127625   3.465683
    28  H    4.211784   5.231679   2.966180   2.069031   2.910314
    29  H    5.079847   6.046052   3.888663   2.894861   3.362430
    30  H    5.864009   6.892567   4.550453   3.439736   3.942531
    31  H    5.377970   6.587540   4.462674   3.131007   2.674245
    32  H    4.363643   5.425645   3.763018   2.767351   2.156636
    33  H    6.663792   7.754388   5.762352   4.553836   4.141231
    34  H    6.842307   7.911728   6.406166   5.318347   4.300558
    35  H    7.386481   8.509992   7.098039   5.973292   4.686648
    36  H    5.438958   6.618808   5.199579   4.114538   2.704488
    37  H    5.102717   6.158507   5.073410   4.205996   2.824076
    38  H    7.912891   9.000408   6.728032   5.500528   5.501509
    39  H    7.849050   9.022567   6.768709   5.451324   5.190675
    40  H    9.539395  10.654502   8.528089   7.262171   6.891919
    41  H    9.739342  10.924338   8.768627   7.432139   6.917917
    42  H    8.726773   9.838039   8.005706   6.777554   6.019161
    43  H    8.359639   9.589146   7.596576   6.261777   5.451463
    44  H    8.108947   9.321389   7.626104   6.366090   5.211713
    45  H    6.808500   8.038174   6.191751   4.912604   3.935389
    46  H    9.790771  10.997997   9.119779   7.797172   6.849326
                    6          7          8          9         10
     6  C    0.000000
     7  C    1.521023   0.000000
     8  C    3.864958   4.306160   0.000000
     9  C    4.351571   5.212829   1.524666   0.000000
    10  C    3.887182   5.018090   2.505084   1.524962   0.000000
    11  C    2.550289   3.891246   2.934430   2.484537   1.536926
    12  C    5.041752   6.333713   3.862728   2.516485   1.521465
    13  C    5.296294   6.687786   5.056754   3.899792   2.551856
    14  C    4.458126   5.942748   5.294938   4.355742   2.992389
    15  C    2.988113   4.441737   4.401403   3.868673   2.554687
    16  C    6.438857   7.633199   4.545437   3.145454   2.619461
    17  C    7.381249   8.701410   5.995844   4.563177   3.831286
    18  C    6.723651   8.149067   6.211287   4.861162   3.777067
    19  C    5.655216   6.894983   5.432071   4.520094   3.098887
    20  O    7.644074   9.074456   7.460169   6.176833   4.978226
    21  H    3.880338   3.452098   2.660333   4.008507   4.859363
    22  H    2.154760   2.819282   2.862733   3.352385   2.710014
    23  H    1.093592   2.144368   4.153962   4.479305   4.150057
    24  H    1.090705   2.141676   4.698708   5.014499   4.242999
    25  H    2.154892   1.093286   4.414975   5.417844   5.147199
    26  H    2.178112   1.090353   5.359435   6.217500   5.968689
    27  H    4.599911   4.842320   1.090400   2.163125   3.455632
    28  H    4.293269   4.588910   1.100241   2.144316   2.805616
    29  H    4.522125   5.451613   2.159209   1.094666   2.154894
    30  H    5.389689   6.189254   2.142827   1.088644   2.156959
    31  H    4.120977   5.092277   2.698009   2.134304   1.091478
    32  H    2.795153   4.143209   3.190112   2.627636   2.143443
    33  H    5.162203   6.505526   4.133139   2.722522   2.127035
    34  H    4.713020   6.231116   5.530159   4.498142   3.379765
    35  H    5.026554   6.480878   6.277951   5.403835   3.982871
    36  H    3.200165   4.468490   4.633533   4.273699   2.876494
    37  H    2.675643   4.146254   5.001217   4.627098   3.485239
    38  H    6.852511   7.972968   4.459063   3.024627   3.038858
    39  H    6.594992   7.675832   4.534072   3.354145   2.793920
    40  H    8.021961   9.357395   6.492867   4.992042   4.499925
    41  H    8.120378   9.400562   6.674153   5.319402   4.545994
    42  H    6.804902   8.279241   6.482254   5.094132   4.145818
    43  H    6.580238   7.761415   5.821426   4.837772   3.601997
    44  H    5.986862   7.240311   6.334972   5.493732   4.013298
    45  H    4.995325   6.103302   4.776736   4.125015   2.719080
    46  H    7.738006   9.102371   7.466036   6.265907   5.012685
                   11         12         13         14         15
    11  C    0.000000
    12  C    2.494469   0.000000
    13  C    2.969218   1.536376   0.000000
    14  C    2.566070   2.478399   1.525305   0.000000
    15  C    1.535545   2.892463   2.502744   1.531090   0.000000
    16  C    3.924923   1.528076   2.401996   3.756964   4.334600
    17  C    4.853420   2.404449   2.440800   3.809967   4.849215
    18  C    4.338595   2.355527   1.543902   2.590470   3.908826
    19  C    3.630700   2.573703   1.533636   2.507582   3.023514
    20  O    5.428149   3.667006   2.501777   3.287893   4.686478
    21  H    4.551219   6.246019   7.297945   7.111052   5.911394
    22  H    2.144902   4.072422   4.406174   4.155774   2.778133
    23  H    2.722657   5.140084   5.464830   4.500229   3.214450
    24  H    2.853362   5.228129   5.160639   4.162868   2.696751
    25  H    4.210468   6.525479   6.819107   6.212373   4.684280
    26  H    4.716584   7.202947   7.442043   6.533710   5.060013
    27  H    3.882550   4.669633   5.981038   6.237713   5.393772
    28  H    3.439501   4.183731   5.258680   5.653092   4.734369
    29  H    2.714296   2.755075   4.173319   4.452150   4.098380
    30  H    3.441525   2.748972   4.201682   4.971786   4.689882
    31  H    2.158483   2.157349   2.825561   3.430401   2.875999
    32  H    1.097356   2.775225   3.411526   2.853765   2.144938
    33  H    2.692482   1.098242   2.127717   2.625456   3.168314
    34  H    2.861703   2.721016   2.151452   1.092774   2.163106
    35  H    3.494311   3.443960   2.166496   1.091910   2.152343
    36  H    2.155159   3.351919   2.781691   2.146527   1.089979
    37  H    2.159433   3.850335   3.434182   2.134098   1.091180
    38  H    4.388704   2.189774   3.365774   4.579821   5.064756
    39  H    4.215534   2.160377   2.805664   4.225899   4.609377
    40  H    5.483045   3.050371   3.290352   4.478964   5.579769
    41  H    5.638744   3.252335   3.061395   4.505297   5.531744
    42  H    4.486826   2.724824   2.164286   2.680325   4.085326
    43  H    4.452934   2.924452   2.181636   3.457516   4.052256
    44  H    4.239609   3.495129   2.158062   2.643940   3.261962
    45  H    3.210467   2.770181   2.175502   2.857614   2.787282
    46  H    5.567797   3.839778   2.635476   3.590014   4.813568
                   16         17         18         19         20
    16  C    0.000000
    17  C    1.538620   0.000000
    18  C    2.474610   1.549580   0.000000
    19  C    2.988941   3.098519   2.514235   0.000000
    20  O    3.656830   2.474605   1.412169   2.858829   0.000000
    21  H    7.129469   8.515760   8.538041   7.715650   9.774540
    22  H    5.189689   6.298357   5.921674   4.337411   6.824831
    23  H    6.592590   7.463414   6.762985   6.090896   7.743579
    24  H    6.655437   7.434741   6.600248   5.385658   7.349627
    25  H    7.724893   8.831085   8.335342   6.784925   9.192868
    26  H    8.564133   9.551505   8.882270   7.673787   9.745090
    27  H    5.204950   6.676739   7.020719   6.438748   8.323741
    28  H    4.673137   6.160201   6.459246   5.325057   7.611924
    29  H    3.477128   4.725656   4.957318   5.095905   6.340759
    30  H    2.799672   4.307193   4.945037   4.699348   6.242273
    31  H    2.880111   4.110868   4.132475   2.787145   5.155224
    32  H    4.218127   5.064985   4.540267   4.400875   5.720539
    33  H    2.131732   2.710965   2.551941   3.482878   3.943549
    34  H    4.006378   3.961705   2.749407   3.451910   3.571510
    35  H    4.555188   4.349691   2.938445   2.706557   3.151801
    36  H    4.611345   5.150532   4.267636   2.701357   4.854464
    37  H    5.335848   5.769594   4.699657   4.006137   5.386448
    38  H    1.087570   2.187385   3.317560   4.060121   4.544517
    39  H    1.089199   2.187029   3.107972   2.810040   4.050042
    40  H    2.179399   1.088663   2.181855   4.149516   3.037429
    41  H    2.193005   1.091572   2.176257   3.226529   2.527064
    42  H    3.063475   2.183627   1.093659   3.438038   1.991635
    43  H    2.751457   2.735708   2.629591   1.087809   2.839482
    44  H    3.986250   3.813532   2.913377   1.089551   2.785029
    45  H    3.338061   3.865120   3.447419   1.083894   3.935120
    46  H    3.696328   2.670039   1.937187   2.442856   0.965012
                   21         22         23         24         25
    21  H    0.000000
    22  H    3.972190   0.000000
    23  H    4.005842   3.053178   0.000000
    24  H    4.935931   2.444248   1.764971   0.000000
    25  H    3.760277   2.596770   3.052529   2.504413   0.000000
    26  H    4.267313   3.793342   2.518147   2.475363   1.766386
    27  H    2.324748   3.859465   4.753772   5.536532   5.019372
    28  H    3.149854   2.795525   4.809657   5.007994   4.429045
    29  H    4.124769   4.021537   4.380134   5.242637   5.855378
    30  H    4.687341   4.156543   5.563997   6.017630   6.297120
    31  H    5.084493   2.415615   4.634801   4.370706   4.986159
    32  H    4.520306   3.045603   2.521007   3.246642   4.701315
    33  H    6.297952   4.615891   5.024949   5.421479   6.868859
    34  H    7.214686   4.769634   4.495977   4.535409   6.668603
    35  H    8.015310   4.793608   5.118455   4.510806   6.694039
    36  H    6.172223   2.494678   3.737230   2.725937   4.458623
    37  H    6.075748   3.222543   2.716558   2.188821   4.542463
    38  H    6.999874   5.683456   6.919152   7.216266   8.123019
    39  H    7.183138   5.039183   6.916861   6.782817   7.613677
    40  H    8.950420   7.096808   7.980169   8.143682   9.575686
    41  H    9.264138   6.848717   8.304153   8.109811   9.426497
    42  H    8.650098   6.324629   6.668678   6.715893   8.601837
    43  H    8.268384   5.079823   7.030343   6.383939   7.595493
    44  H    8.467529   4.857788   6.431258   5.524785   7.113587
    45  H    6.967646   3.440192   5.581050   4.763080   5.885009
    46  H    9.842671   6.695613   7.969688   7.409334   9.105326
                   26         27         28         29         30
    26  H    0.000000
    27  H    5.847505   0.000000
    28  H    5.677012   1.753759   0.000000
    29  H    6.369527   2.458720   3.050864   0.000000
    30  H    7.222093   2.512667   2.404531   1.762357   0.000000
    31  H    6.082150   3.722548   2.551079   3.043315   2.484209
    32  H    4.867502   3.924527   3.965272   2.390863   3.636729
    33  H    7.308360   4.794378   4.695731   2.503197   3.065966
    34  H    6.764280   6.358706   6.069159   4.324100   5.149434
    35  H    6.962881   7.254794   6.558385   5.541180   5.993111
    36  H    5.105150   5.695644   4.719289   4.736824   4.998948
    37  H    4.555120   5.926042   5.432576   4.702121   5.547403
    38  H    8.930243   4.908400   4.677806   3.189051   2.443497
    39  H    8.650493   5.240626   4.399984   3.971796   2.872290
    40  H   10.193837   7.048162   6.771191   4.950806   4.681523
    41  H   10.268068   7.377277   6.682349   5.623037   4.948859
    42  H    8.947160   7.218648   6.896900   4.953928   5.277361
    43  H    8.596856   6.763609   5.609259   5.469082   4.769796
    44  H    7.910116   7.372226   6.232460   6.018277   5.753468
    45  H    6.924562   5.825133   4.544143   4.856801   4.376276
    46  H    9.806818   8.371240   7.477564   6.589232   6.268319
                   31         32         33         34         35
    31  H    0.000000
    32  H    3.042534   0.000000
    33  H    3.042733   2.517245   0.000000
    34  H    4.076050   2.715783   2.401309   0.000000
    35  H    4.251976   3.833914   3.642837   1.764485   0.000000
    36  H    2.772597   3.041255   3.905365   3.050535   2.431278
    37  H    3.874173   2.417298   3.914945   2.435805   2.466565
    38  H    3.435599   4.501475   2.415772   4.651148   5.462287
    39  H    2.627988   4.733896   3.034933   4.700623   4.934705
    40  H    4.939316   5.499833   2.995842   4.383694   5.046633
    41  H    4.595551   5.984110   3.741217   4.815033   4.879050
    42  H    4.727455   4.429593   2.454476   2.391732   3.062202
    43  H    3.193080   5.193561   3.882542   4.286240   3.666105
    44  H    3.717608   4.992645   4.268695   3.635448   2.381852
    45  H    2.112491   4.159682   3.765708   3.861858   3.174888
    46  H    4.982047   6.027838   4.354399   4.112934   3.406061
                   36         37         38         39         40
    36  H    0.000000
    37  H    1.763912   0.000000
    38  H    5.444407   6.011502   0.000000
    39  H    4.639022   5.678771   1.757747   0.000000
    40  H    6.020800   6.420253   2.342953   2.989236   0.000000
    41  H    5.652423   6.492466   2.845505   2.359599   1.757593
    42  H    4.673426   4.695552   3.672677   3.909986   2.332890
    43  H    3.738274   5.065043   3.805527   2.334737   3.820448
    44  H    2.814809   4.059766   5.067390   3.854701   4.818147
    45  H    2.211660   3.796489   4.316117   2.970286   4.909704
    46  H    4.769731   5.599112   4.670593   3.822678   3.440745
                   41         42         43         44         45
    41  H    0.000000
    42  H    2.991517   0.000000
    43  H    2.531982   3.697116   0.000000
    44  H    3.842166   3.751835   1.774066   0.000000
    45  H    4.034533   4.294101   1.750935   1.756173   0.000000
    46  H    2.404387   2.797443   2.210719   2.298945   3.512922
                   46
    46  H    0.000000
 Stoichiometry    C18H26O2
 Framework group  C1[X(C18H26O2)]
 Deg. of freedom   132
 Full point group                 C1      NOp   1
 Largest Abelian subgroup         C1      NOp   1
 Largest concise Abelian subgroup C1      NOp   1
                         Standard orientation:                         
 ---------------------------------------------------------------------
 Center     Atomic      Atomic             Coordinates (Angstroms)
 Number     Number       Type             X           Y           Z
 ---------------------------------------------------------------------
      1          6           0        4.686366   -0.146291   -0.095526
      2          8           0        5.864690   -0.103607   -0.449781
      3          6           0        3.817009    0.995268   -0.066316
      4          6           0        2.487274    0.920202    0.160514
      5          6           0        1.780580   -0.395024    0.337899
      6          6           0        2.648697   -1.556667   -0.154065
      7          6           0        4.069387   -1.435019    0.375420
      8          6           0        1.688687    2.153104    0.349806
      9          6           0        0.277976    2.091728   -0.225288
     10          6           0       -0.417792    0.804990    0.205665
     11          6           0        0.388821   -0.388079   -0.331085
     12          6           0       -1.838584    0.734878   -0.334049
     13          6           0       -2.553688   -0.578680    0.017579
     14          6           0       -1.781146   -1.725579   -0.626126
     15          6           0       -0.334423   -1.726849   -0.124899
     16          6           0       -2.836825    1.804936    0.105847
     17          6           0       -4.196964    1.200651   -0.284296
     18          6           0       -3.940509   -0.294867   -0.598709
     19          6           0       -2.701515   -0.822402    1.524492
     20          8           0       -4.984136   -1.142467   -0.166693
     21          1           0        4.284304    1.961798   -0.201143
     22          1           0        1.622729   -0.501369    1.419697
     23          1           0        2.672656   -1.553131   -1.247389
     24          1           0        2.229257   -2.510835    0.167292
     25          1           0        4.058536   -1.400100    1.468095
     26          1           0        4.691721   -2.277247    0.071740
     27          1           0        2.221829    3.021908   -0.037379
     28          1           0        1.615470    2.294084    1.438519
     29          1           0        0.317645    2.139359   -1.318198
     30          1           0       -0.284888    2.956242    0.122482
     31          1           0       -0.426563    0.771597    1.296596
     32          1           0        0.526402   -0.240612   -1.409749
     33          1           0       -1.777303    0.773814   -1.429889
     34          1           0       -1.798807   -1.610686   -1.712699
     35          1           0       -2.244172   -2.684729   -0.385488
     36          1           0       -0.330659   -1.975811    0.936260
     37          1           0        0.201511   -2.514569   -0.656825
     38          1           0       -2.667380    2.761138   -0.383821
     39          1           0       -2.764668    1.965811    1.180680
     40          1           0       -4.611404    1.705257   -1.155387
     41          1           0       -4.926919    1.288106    0.522579
     42          1           0       -3.889957   -0.450337   -1.680080
     43          1           0       -3.413451   -0.132582    1.972404
     44          1           0       -3.037466   -1.844371    1.697227
     45          1           0       -1.755953   -0.693054    2.038309
     46          1           0       -5.017012   -1.098896    0.796774
 ---------------------------------------------------------------------
 Rotational constants (GHZ):           0.9295472           0.1763645           0.1563489
 Standard basis: 6-31G(d) (6D, 7F)
 There are   352 symmetry adapted cartesian basis functions of A   symmetry.
 There are   352 symmetry adapted basis functions of A   symmetry.
   352 basis functions,   664 primitive gaussians,   352 cartesian basis functions
    75 alpha electrons       75 beta electrons
       nuclear repulsion energy      1671.1530640970 Hartrees.
 NAtoms=   46 NActive=   46 NUniq=   46 SFac= 1.00D+00 NAtFMM=   60 NAOKFM=F Big=F
 Integral buffers will be    131072 words long.
 Raffenetti 2 integral format.
 Two-electron integral symmetry is turned on.
 Nuclear repulsion after empirical dispersion term =     1671.1038402949 Hartrees.
 One-electron integrals computed using PRISM.
 NBasis=   352 RedAO= T EigKep=  1.26D-03  NBF=   352
 NBsUse=   352 1.00D-06 EigRej= -1.00D+00 NBFU=   352
 ExpMin= 1.61D-01 ExpMax= 5.48D+03 ExpMxC= 8.25D+02 IAcc=3 IRadAn=         5 AccDes= 0.00D+00
 Harris functional with IExCor= 4639 and IRadAn=       5 diagonalized for initial guess.
 HarFok:  IExCor= 4639 AccDes= 0.00D+00 IRadAn=         5 IDoV= 1 UseB2=F ITyADJ=14
 ICtDFT=  3500011 ScaDFX=  1.000000  1.000000  1.000000  1.000000
 FoFCou: FMM=F IPFlag=           0 FMFlag=      100000 FMFlg1=           0
         NFxFlg=           0 DoJE=T BraDBF=F KetDBF=T FulRan=T
         wScrn=  0.000000 ICntrl=       500 IOpCl=  0 I1Cent=   200000004 NGrid=           0
         NMat0=    1 NMatS0=      1 NMatT0=    0 NMatD0=    1 NMtDS0=    0 NMtDT0=    0
 Petite list used in FoFCou.
 Requested convergence on RMS density matrix=1.00D-08 within 128 cycles.
 Requested convergence on MAX density matrix=1.00D-06.
 Requested convergence on             energy=1.00D-06.
 No special actions if energy rises.
 Integral accuracy reduced to 1.0D-05 until final iterations.
 Initial convergence to 1.0D-05 achieved.  Increase integral accuracy.
 SCF Done:  E(RwB97XD) =  -851.792323724     A.U. after   15 cycles
            NFock= 15  Conv=0.62D-08     -V/T= 2.0088

 **********************************************************************

            Population analysis using the SCF Density.

 **********************************************************************

 Orbital symmetries:
       Occupied  (A) (A) (A) (A) (A) (A) (A) (A) (A) (A) (A) (A)
                 (A) (A) (A) (A) (A) (A) (A) (A) (A) (A) (A) (A)
                 (A) (A) (A) (A) (A) (A) (A) (A) (A) (A) (A) (A)
                 (A) (A) (A) (A) (A) (A) (A) (A) (A) (A) (A) (A)
                 (A) (A) (A) (A) (A) (A) (A) (A) (A) (A) (A) (A)
                 (A) (A) (A) (A) (A) (A) (A) (A) (A) (A) (A) (A)
                 (A) (A) (A)
       Virtual   (A) (A) (A) (A) (A) (A) (A) (A) (A) (A) (A) (A)
                 (A) (A) (A) (A) (A) (A) (A) (A) (A) (A) (A) (A)
                 (A) (A) (A) (A) (A) (A) (A) (A) (A) (A) (A) (A)
                 (A) (A) (A) (A) (A) (A) (A) (A) (A) (A) (A) (A)
                 (A) (A) (A) (A) (A) (A) (A) (A) (A) (A) (A) (A)
                 (A) (A) (A) (A) (A) (A) (A) (A) (A) (A) (A) (A)
                 (A) (A) (A) (A) (A) (A) (A) (A) (A) (A) (A) (A)
                 (A) (A) (A) (A) (A) (A) (A) (A) (A) (A) (A) (A)
                 (A) (A) (A) (A) (A) (A) (A) (A) (A) (A) (A) (A)
                 (A) (A) (A) (A) (A) (A) (A) (A) (A) (A) (A) (A)
                 (A) (A) (A) (A) (A) (A) (A) (A) (A) (A) (A) (A)
                 (A) (A) (A) (A) (A) (A) (A) (A) (A) (A) (A) (A)
                 (A) (A) (A) (A) (A) (A) (A) (A) (A) (A) (A) (A)
                 (A) (A) (A) (A) (A) (A) (A) (A) (A) (A) (A) (A)
                 (A) (A) (A) (A) (A) (A) (A) (A) (A) (A) (A) (A)
                 (A) (A) (A) (A) (A) (A) (A) (A) (A) (A) (A) (A)
                 (A) (A) (A) (A) (A) (A) (A) (A) (A) (A) (A) (A)
                 (A) (A) (A) (A) (A) (A) (A) (A) (A) (A) (A) (A)
                 (A) (A) (A) (A) (A) (A) (A) (A) (A) (A) (A) (A)
                 (A) (A) (A) (A) (A) (A) (A) (A) (A) (A) (A) (A)
                 (A) (A) (A) (A) (A) (A) (A) (A) (A) (A) (A) (A)
                 (A) (A) (A) (A) (A) (A) (A) (A) (A) (A) (A) (A)
                 (A) (A) (A) (A) (A) (A) (A) (A) (A) (A) (A) (A)
                 (A)
 The electronic state is 1-A.
 Alpha  occ. eigenvalues --  -19.26433 -19.23778 -10.36722 -10.34004 -10.32847
 Alpha  occ. eigenvalues --  -10.31484 -10.30768 -10.30670 -10.30319 -10.30222
 Alpha  occ. eigenvalues --  -10.30134 -10.30070 -10.29836 -10.29596 -10.29546
 Alpha  occ. eigenvalues --  -10.29366 -10.29159 -10.29151 -10.29140 -10.29008
 Alpha  occ. eigenvalues --   -1.12124  -1.11250  -0.98480  -0.95935  -0.91070
 Alpha  occ. eigenvalues --   -0.90336  -0.87425  -0.84567  -0.82749  -0.81778
 Alpha  occ. eigenvalues --   -0.78187  -0.77797  -0.73632  -0.72011  -0.69722
 Alpha  occ. eigenvalues --   -0.67893  -0.66596  -0.65725  -0.63468  -0.61072
 Alpha  occ. eigenvalues --   -0.59499  -0.57848  -0.56527  -0.55761  -0.55500
 Alpha  occ. eigenvalues --   -0.54313  -0.53513  -0.52863  -0.51035  -0.51007
 Alpha  occ. eigenvalues --   -0.50383  -0.49686  -0.49497  -0.48669  -0.48389
 Alpha  occ. eigenvalues --   -0.47810  -0.47158  -0.47062  -0.45157  -0.44717
 Alpha  occ. eigenvalues --   -0.43891  -0.43415  -0.43090  -0.42410  -0.42111
 Alpha  occ. eigenvalues --   -0.41553  -0.41110  -0.40427  -0.39842  -0.39221
 Alpha  occ. eigenvalues --   -0.37217  -0.36097  -0.33442  -0.32724  -0.30973
 Alpha virt. eigenvalues --    0.02509   0.13172   0.14563   0.14866   0.16871
 Alpha virt. eigenvalues --    0.17146   0.18206   0.18867   0.19326   0.20476
 Alpha virt. eigenvalues --    0.20864   0.21145   0.22084   0.22508   0.23397
 Alpha virt. eigenvalues --    0.23674   0.23764   0.24772   0.25035   0.25228
 Alpha virt. eigenvalues --    0.25552   0.26191   0.26362   0.26685   0.27032
 Alpha virt. eigenvalues --    0.27476   0.28262   0.28846   0.29490   0.30173
 Alpha virt. eigenvalues --    0.30956   0.31347   0.31716   0.32454   0.33224
 Alpha virt. eigenvalues --    0.33838   0.34559   0.35280   0.35933   0.36450
 Alpha virt. eigenvalues --    0.37220   0.37772   0.38966   0.39531   0.41076
 Alpha virt. eigenvalues --    0.41885   0.42561   0.45047   0.45251   0.49740
 Alpha virt. eigenvalues --    0.52316   0.58134   0.58679   0.59254   0.60127
 Alpha virt. eigenvalues --    0.61637   0.62044   0.62239   0.63208   0.65394
 Alpha virt. eigenvalues --    0.65686   0.66120   0.66557   0.68561   0.69191
 Alpha virt. eigenvalues --    0.70424   0.71445   0.72513   0.73175   0.73556
 Alpha virt. eigenvalues --    0.73979   0.74292   0.75535   0.76134   0.76523
 Alpha virt. eigenvalues --    0.77303   0.78411   0.78855   0.80375   0.81048
 Alpha virt. eigenvalues --    0.83099   0.83647   0.84570   0.84876   0.86082
 Alpha virt. eigenvalues --    0.87167   0.87403   0.88938   0.89793   0.90194
 Alpha virt. eigenvalues --    0.91386   0.92118   0.93401   0.94217   0.94789
 Alpha virt. eigenvalues --    0.95201   0.95429   0.96262   0.96574   0.96971
 Alpha virt. eigenvalues --    0.97366   0.97481   0.98111   0.98854   0.99133
 Alpha virt. eigenvalues --    0.99267   1.00143   1.00722   1.01375   1.02834
 Alpha virt. eigenvalues --    1.03296   1.03638   1.04220   1.04636   1.05229
 Alpha virt. eigenvalues --    1.05627   1.06082   1.06359   1.07609   1.08074
 Alpha virt. eigenvalues --    1.09303   1.09925   1.11241   1.12814   1.14317
 Alpha virt. eigenvalues --    1.14867   1.16213   1.16302   1.19347   1.20447
 Alpha virt. eigenvalues --    1.21776   1.24035   1.26609   1.27685   1.30132
 Alpha virt. eigenvalues --    1.30703   1.31908   1.33676   1.35864   1.38776
 Alpha virt. eigenvalues --    1.40224   1.41117   1.43827   1.44301   1.48602
 Alpha virt. eigenvalues --    1.52057   1.53722   1.55230   1.57395   1.59383
 Alpha virt. eigenvalues --    1.60978   1.62139   1.64545   1.66226   1.68473
 Alpha virt. eigenvalues --    1.69730   1.71515   1.73442   1.74151   1.76778
 Alpha virt. eigenvalues --    1.78399   1.78537   1.81339   1.81813   1.83338
 Alpha virt. eigenvalues --    1.85237   1.86227   1.87228   1.87728   1.88866
 Alpha virt. eigenvalues --    1.89417   1.92072   1.93378   1.94345   1.95011
 Alpha virt. eigenvalues --    1.95677   1.96304   1.96834   1.99347   1.99650
 Alpha virt. eigenvalues --    2.00724   2.01912   2.02319   2.02447   2.03915
 Alpha virt. eigenvalues --    2.05926   2.06160   2.06549   2.07500   2.08775
 Alpha virt. eigenvalues --    2.09337   2.09903   2.10963   2.11561   2.12580
 Alpha virt. eigenvalues --    2.13639   2.14720   2.15881   2.16151   2.18868
 Alpha virt. eigenvalues --    2.19800   2.20544   2.22382   2.24151   2.25477
 Alpha virt. eigenvalues --    2.26487   2.27783   2.30483   2.30865   2.32667
 Alpha virt. eigenvalues --    2.35273   2.35729   2.36968   2.38787   2.40644
 Alpha virt. eigenvalues --    2.40772   2.42460   2.43947   2.44513   2.46650
 Alpha virt. eigenvalues --    2.49108   2.49317   2.51444   2.51708   2.53665
 Alpha virt. eigenvalues --    2.55697   2.57480   2.59157   2.61124   2.63271
 Alpha virt. eigenvalues --    2.64490   2.65216   2.66190   2.66357   2.68039
 Alpha virt. eigenvalues --    2.69905   2.71658   2.72271   2.75889   2.77828
 Alpha virt. eigenvalues --    2.79861   2.80104   2.81467   2.83409   2.85026
 Alpha virt. eigenvalues --    2.86969   2.91057   2.94364   2.97229   2.99756
 Alpha virt. eigenvalues --    3.01291   3.02736   3.08341   3.08772   3.10420
 Alpha virt. eigenvalues --    3.21881   3.27014   4.00383   4.10122   4.25760
 Alpha virt. eigenvalues --    4.27136   4.31316   4.35117   4.36699   4.38483
 Alpha virt. eigenvalues --    4.42579   4.43022   4.48734   4.54777   4.56151
 Alpha virt. eigenvalues --    4.65949   4.68378   4.75047   4.77501   4.81311
 Alpha virt. eigenvalues --    4.86566   4.91964
          Condensed to atoms (all electrons):
               1          2          3          4          5          6
     1  C    4.427937   0.550696   0.347618   0.003159  -0.022437  -0.026065
     2  O    0.550696   8.079843  -0.063489   0.004952   0.000404   0.001401
     3  C    0.347618  -0.063489   5.325420   0.528695  -0.042591  -0.000246
     4  C    0.003159   0.004952   0.528695   4.845915   0.378215  -0.042442
     5  C   -0.022437   0.000404  -0.042591   0.378215   5.094649   0.347022
     6  C   -0.026065   0.001401  -0.000246  -0.042442   0.347022   5.141748
     7  C    0.343862  -0.079256  -0.142020   0.000878  -0.035777   0.297661
     8  C    0.003827  -0.000093  -0.036402   0.361772  -0.069227   0.005441
     9  C   -0.000133   0.000001   0.002325  -0.033850  -0.011923  -0.000300
    10  C   -0.000016   0.000000   0.000528  -0.014716  -0.040676   0.004280
    11  C   -0.000132   0.000002   0.002925  -0.031747   0.365732  -0.048917
    12  C   -0.000000   0.000000   0.000002   0.000261   0.004079  -0.000142
    13  C   -0.000000   0.000000   0.000000   0.000005   0.000027  -0.000003
    14  C    0.000000   0.000000   0.000001  -0.000090   0.003681   0.000192
    15  C   -0.000004  -0.000000  -0.000109   0.004406  -0.043934  -0.004388
    16  C   -0.000000  -0.000000   0.000000  -0.000002  -0.000115   0.000001
    17  C    0.000000  -0.000000  -0.000000   0.000000   0.000002  -0.000000
    18  C    0.000000   0.000000  -0.000000  -0.000000   0.000005   0.000000
    19  C   -0.000000   0.000000   0.000000   0.000001   0.000042  -0.000000
    20  O   -0.000000   0.000000   0.000000   0.000000  -0.000000   0.000000
    21  H   -0.029469   0.000811   0.358674  -0.044695   0.004865  -0.000338
    22  H    0.000829  -0.000000  -0.003179  -0.044594   0.366272  -0.033142
    23  H   -0.002642   0.000216   0.003662  -0.004699  -0.042797   0.387441
    24  H    0.003602  -0.000077  -0.000340   0.004577  -0.029109   0.378202
    25  H   -0.030112   0.000520   0.003607  -0.003136  -0.002926  -0.039185
    26  H   -0.026894   0.004032   0.006406  -0.000205   0.004106  -0.029464
    27  H    0.000237  -0.000001  -0.002782  -0.039382   0.004293  -0.000147
    28  H   -0.000114   0.000002  -0.007372  -0.041252   0.000330   0.000128
    29  H   -0.000001  -0.000000  -0.000117  -0.003116   0.000409   0.000012
    30  H    0.000001  -0.000000  -0.000081   0.004248   0.000000   0.000011
    31  H    0.000003  -0.000000  -0.000216  -0.004271  -0.001635   0.000170
    32  H    0.000037  -0.000000   0.000074  -0.003482  -0.040856  -0.004464
    33  H    0.000000   0.000000  -0.000002  -0.000075   0.000192   0.000000
    34  H    0.000000   0.000000  -0.000000   0.000003   0.000049  -0.000025
    35  H    0.000000  -0.000000  -0.000000   0.000001  -0.000101   0.000002
    36  H    0.000001  -0.000000  -0.000006   0.000160  -0.003229  -0.001547
    37  H   -0.000011  -0.000000   0.000014  -0.000113  -0.006939   0.002973
    38  H    0.000000  -0.000000   0.000000  -0.000001   0.000000  -0.000000
    39  H    0.000000   0.000000  -0.000000  -0.000001   0.000001   0.000000
    40  H    0.000000  -0.000000   0.000000   0.000000  -0.000000   0.000000
    41  H    0.000000  -0.000000   0.000000  -0.000000  -0.000000   0.000000
    42  H    0.000000  -0.000000  -0.000000   0.000000  -0.000000  -0.000000
    43  H   -0.000000   0.000000   0.000000   0.000000  -0.000002  -0.000000
    44  H    0.000000  -0.000000  -0.000000  -0.000000  -0.000004   0.000000
    45  H    0.000000  -0.000000  -0.000000   0.000001   0.000049   0.000002
    46  H   -0.000000   0.000000  -0.000000   0.000000  -0.000000   0.000000
               7          8          9         10         11         12
     1  C    0.343862   0.003827  -0.000133  -0.000016  -0.000132  -0.000000
     2  O   -0.079256  -0.000093   0.000001   0.000000   0.000002   0.000000
     3  C   -0.142020  -0.036402   0.002325   0.000528   0.002925   0.000002
     4  C    0.000878   0.361772  -0.033850  -0.014716  -0.031747   0.000261
     5  C   -0.035777  -0.069227  -0.011923  -0.040676   0.365732   0.004079
     6  C    0.297661   0.005441  -0.000300   0.004280  -0.048917  -0.000142
     7  C    5.354912  -0.000238   0.000041  -0.000100   0.004657   0.000002
     8  C   -0.000238   5.156677   0.336741  -0.044289  -0.015745   0.004100
     9  C    0.000041   0.336741   5.100737   0.370315  -0.044561  -0.044539
    10  C   -0.000100  -0.044289   0.370315   5.025450   0.372356   0.366817
    11  C    0.004657  -0.015745  -0.044561   0.372356   5.046719  -0.038988
    12  C    0.000002   0.004100  -0.044539   0.366817  -0.038988   5.109879
    13  C    0.000000  -0.000142   0.004414  -0.028484  -0.012288   0.358725
    14  C   -0.000002  -0.000009  -0.000101  -0.011431  -0.038131  -0.052018
    15  C    0.000231   0.000331   0.004576  -0.041980   0.364334  -0.017912
    16  C   -0.000000   0.000082  -0.004265  -0.034989   0.004420   0.355405
    17  C    0.000000  -0.000000   0.000151   0.004478  -0.000210  -0.054620
    18  C   -0.000000   0.000002  -0.000134   0.004089   0.000130  -0.066637
    19  C    0.000000  -0.000001   0.000221  -0.007057  -0.002151  -0.059300
    20  O    0.000000  -0.000000   0.000000  -0.000063  -0.000003   0.002827
    21  H    0.006644  -0.008622   0.000205  -0.000001  -0.000098  -0.000000
    22  H   -0.004924   0.000626  -0.000589  -0.006308  -0.042625   0.000046
    23  H   -0.044231  -0.000029  -0.000036   0.000152  -0.002941  -0.000001
    24  H   -0.031741  -0.000121  -0.000007  -0.000057  -0.008025  -0.000002
    25  H    0.365467  -0.000083  -0.000002   0.000002   0.000094   0.000000
    26  H    0.366523   0.000009   0.000000   0.000002  -0.000067  -0.000000
    27  H    0.000010   0.379542  -0.032026   0.004310  -0.000181  -0.000118
    28  H   -0.000079   0.378605  -0.041344  -0.005065  -0.000748  -0.000012
    29  H   -0.000004  -0.035810   0.381166  -0.039062  -0.007810  -0.004555
    30  H   -0.000000  -0.032119   0.379725  -0.033431   0.005056  -0.007222
    31  H   -0.000010   0.000534  -0.047618   0.380463  -0.049602  -0.042086
    32  H   -0.000130  -0.000054  -0.006243  -0.045932   0.377711  -0.004111
    33  H   -0.000000   0.000100  -0.005981  -0.043470  -0.005835   0.383495
    34  H   -0.000000   0.000000  -0.000028  -0.000407  -0.004013  -0.006334
    35  H   -0.000000  -0.000000   0.000011  -0.000071   0.004194   0.006185
    36  H   -0.000062  -0.000013  -0.000003  -0.003882  -0.044678  -0.000464
    37  H    0.000069  -0.000010  -0.000130   0.004416  -0.031082   0.000109
    38  H    0.000000  -0.000012   0.001322  -0.001772  -0.000085  -0.026708
    39  H   -0.000000  -0.000030  -0.000587  -0.004168   0.000082  -0.039614
    40  H   -0.000000  -0.000000  -0.000007  -0.000058   0.000004   0.000643
    41  H   -0.000000  -0.000000   0.000001  -0.000147   0.000003   0.003770
    42  H   -0.000000  -0.000000   0.000005  -0.000254  -0.000003  -0.003664
    43  H    0.000000  -0.000000  -0.000021  -0.000014   0.000017  -0.003550
    44  H    0.000000  -0.000000   0.000000   0.000013   0.000101   0.005382
    45  H   -0.000000   0.000012  -0.000072   0.002264  -0.000311  -0.006293
    46  H    0.000000  -0.000000   0.000000  -0.000010   0.000001   0.000170
              13         14         15         16         17         18
     1  C   -0.000000   0.000000  -0.000004  -0.000000   0.000000   0.000000
     2  O    0.000000   0.000000  -0.000000  -0.000000  -0.000000   0.000000
     3  C    0.000000   0.000001  -0.000109   0.000000  -0.000000  -0.000000
     4  C    0.000005  -0.000090   0.004406  -0.000002   0.000000  -0.000000
     5  C    0.000027   0.003681  -0.043934  -0.000115   0.000002   0.000005
     6  C   -0.000003   0.000192  -0.004388   0.000001  -0.000000   0.000000
     7  C    0.000000  -0.000002   0.000231  -0.000000   0.000000  -0.000000
     8  C   -0.000142  -0.000009   0.000331   0.000082  -0.000000   0.000002
     9  C    0.004414  -0.000101   0.004576  -0.004265   0.000151  -0.000134
    10  C   -0.028484  -0.011431  -0.041980  -0.034989   0.004478   0.004089
    11  C   -0.012288  -0.038131   0.364334   0.004420  -0.000210   0.000130
    12  C    0.358725  -0.052018  -0.017912   0.355405  -0.054620  -0.066637
    13  C    5.090913   0.378969  -0.041115  -0.054973  -0.089131   0.361501
    14  C    0.378969   5.096950   0.352911   0.005866   0.006885  -0.039531
    15  C   -0.041115   0.352911   5.109149   0.000233  -0.000223   0.004317
    16  C   -0.054973   0.005866   0.000233   5.131728   0.318727  -0.061152
    17  C   -0.089131   0.006885  -0.000223   0.318727   5.241256   0.342483
    18  C    0.361501  -0.039531   0.004317  -0.061152   0.342483   4.815157
    19  C    0.329885  -0.064513  -0.004542  -0.002731  -0.008491  -0.045358
    20  O   -0.047580   0.001294   0.000021   0.003234  -0.049234   0.268873
    21  H   -0.000000  -0.000000   0.000002  -0.000000  -0.000000  -0.000000
    22  H   -0.000030   0.000037  -0.006480  -0.000001   0.000000  -0.000000
    23  H   -0.000001  -0.000050  -0.001688   0.000000   0.000000  -0.000000
    24  H   -0.000002   0.000050   0.003433  -0.000000   0.000000   0.000000
    25  H   -0.000000  -0.000000  -0.000028   0.000000   0.000000  -0.000000
    26  H   -0.000000  -0.000000  -0.000001   0.000000  -0.000000  -0.000000
    27  H    0.000001  -0.000000   0.000009  -0.000001  -0.000000  -0.000000
    28  H    0.000004   0.000000  -0.000005  -0.000011  -0.000000  -0.000000
    29  H    0.000032  -0.000012   0.000107  -0.000495  -0.000023  -0.000003
    30  H    0.000019  -0.000005  -0.000142   0.003898  -0.000005  -0.000009
    31  H   -0.008015   0.000342  -0.002792  -0.004193  -0.000016   0.000045
    32  H   -0.001145  -0.000676  -0.044429  -0.000041   0.000003  -0.000055
    33  H   -0.052394  -0.005981  -0.001064  -0.045082  -0.002304  -0.003107
    34  H   -0.037587   0.379921  -0.037491   0.000055   0.000073  -0.006067
    35  H   -0.033170   0.376895  -0.035483  -0.000243   0.000067  -0.003847
    36  H   -0.008933  -0.036874   0.381363  -0.000020  -0.000001  -0.000032
    37  H    0.004972  -0.034573   0.381185   0.000009   0.000004  -0.000082
    38  H    0.005071  -0.000149  -0.000003   0.377600  -0.027454   0.002717
    39  H   -0.006565   0.000024  -0.000023   0.385163  -0.033111   0.001527
    40  H    0.004160  -0.000152   0.000003  -0.029873   0.376313  -0.024453
    41  H    0.000372  -0.000111   0.000003  -0.028414   0.371941  -0.033153
    42  H   -0.049737  -0.007657   0.000090   0.003865  -0.049093   0.394902
    43  H   -0.036322   0.005029   0.000099   0.001839   0.002853  -0.004216
    44  H   -0.029519  -0.005466  -0.000705  -0.000205   0.000418  -0.004912
    45  H   -0.030710  -0.003343   0.001179  -0.000279  -0.000047   0.004840
    46  H   -0.015846  -0.000112  -0.000005   0.000009  -0.003944  -0.028779
              19         20         21         22         23         24
     1  C   -0.000000  -0.000000  -0.029469   0.000829  -0.002642   0.003602
     2  O    0.000000   0.000000   0.000811  -0.000000   0.000216  -0.000077
     3  C    0.000000   0.000000   0.358674  -0.003179   0.003662  -0.000340
     4  C    0.000001   0.000000  -0.044695  -0.044594  -0.004699   0.004577
     5  C    0.000042  -0.000000   0.004865   0.366272  -0.042797  -0.029109
     6  C   -0.000000   0.000000  -0.000338  -0.033142   0.387441   0.378202
     7  C    0.000000   0.000000   0.006644  -0.004924  -0.044231  -0.031741
     8  C   -0.000001  -0.000000  -0.008622   0.000626  -0.000029  -0.000121
     9  C    0.000221   0.000000   0.000205  -0.000589  -0.000036  -0.000007
    10  C   -0.007057  -0.000063  -0.000001  -0.006308   0.000152  -0.000057
    11  C   -0.002151  -0.000003  -0.000098  -0.042625  -0.002941  -0.008025
    12  C   -0.059300   0.002827  -0.000000   0.000046  -0.000001  -0.000002
    13  C    0.329885  -0.047580  -0.000000  -0.000030  -0.000001  -0.000002
    14  C   -0.064513   0.001294  -0.000000   0.000037  -0.000050   0.000050
    15  C   -0.004542   0.000021   0.000002  -0.006480  -0.001688   0.003433
    16  C   -0.002731   0.003234  -0.000000  -0.000001   0.000000  -0.000000
    17  C   -0.008491  -0.049234  -0.000000   0.000000   0.000000   0.000000
    18  C   -0.045358   0.268873  -0.000000  -0.000000  -0.000000   0.000000
    19  C    5.262905  -0.001133   0.000000  -0.000066  -0.000000  -0.000001
    20  O   -0.001133   8.263842   0.000000  -0.000000  -0.000000   0.000000
    21  H    0.000000   0.000000   0.536849  -0.000207  -0.000091   0.000014
    22  H   -0.000066  -0.000000  -0.000207   0.589798   0.005311  -0.003457
    23  H   -0.000000  -0.000000  -0.000091   0.005311   0.553855  -0.030194
    24  H   -0.000001   0.000000   0.000014  -0.003457  -0.030194   0.548626
    25  H   -0.000000  -0.000000  -0.000189   0.004854   0.005190  -0.004173
    26  H    0.000000   0.000000  -0.000117  -0.000154  -0.002368  -0.003389
    27  H    0.000000   0.000000   0.005495  -0.000098   0.000001   0.000002
    28  H   -0.000004  -0.000000   0.000363   0.001837   0.000001   0.000009
    29  H   -0.000004   0.000000   0.000001   0.000094  -0.000006   0.000002
    30  H   -0.000005   0.000000  -0.000008  -0.000015   0.000000   0.000000
    31  H    0.001198  -0.000001  -0.000002   0.005912   0.000007   0.000000
    32  H    0.000047   0.000000  -0.000018   0.005898   0.004945   0.000079
    33  H    0.006592   0.000058  -0.000000   0.000001  -0.000002  -0.000000
    34  H    0.006129  -0.000103  -0.000000   0.000004   0.000002   0.000009
    35  H   -0.007062   0.002644   0.000000  -0.000002   0.000000   0.000003
    36  H    0.003725  -0.000002  -0.000000   0.005294   0.000158   0.001032
    37  H    0.000007   0.000001   0.000000   0.000028   0.001000   0.000835
    38  H    0.000073  -0.000043  -0.000000   0.000000   0.000000  -0.000000
    39  H    0.002661   0.000006   0.000000  -0.000002  -0.000000  -0.000000
    40  H    0.000150   0.002502   0.000000  -0.000000  -0.000000  -0.000000
    41  H    0.000181  -0.000252   0.000000  -0.000000   0.000000   0.000000
    42  H    0.006261  -0.039919   0.000000  -0.000000  -0.000000   0.000000
    43  H    0.376399  -0.001102  -0.000000   0.000001   0.000000   0.000000
    44  H    0.374319   0.003260   0.000000   0.000001   0.000000  -0.000000
    45  H    0.376559   0.000387  -0.000000   0.000060  -0.000000  -0.000001
    46  H    0.013117   0.242845   0.000000   0.000000   0.000000   0.000000
              25         26         27         28         29         30
     1  C   -0.030112  -0.026894   0.000237  -0.000114  -0.000001   0.000001
     2  O    0.000520   0.004032  -0.000001   0.000002  -0.000000  -0.000000
     3  C    0.003607   0.006406  -0.002782  -0.007372  -0.000117  -0.000081
     4  C   -0.003136  -0.000205  -0.039382  -0.041252  -0.003116   0.004248
     5  C   -0.002926   0.004106   0.004293   0.000330   0.000409   0.000000
     6  C   -0.039185  -0.029464  -0.000147   0.000128   0.000012   0.000011
     7  C    0.365467   0.366523   0.000010  -0.000079  -0.000004  -0.000000
     8  C   -0.000083   0.000009   0.379542   0.378605  -0.035810  -0.032119
     9  C   -0.000002   0.000000  -0.032026  -0.041344   0.381166   0.379725
    10  C    0.000002   0.000002   0.004310  -0.005065  -0.039062  -0.033431
    11  C    0.000094  -0.000067  -0.000181  -0.000748  -0.007810   0.005056
    12  C    0.000000  -0.000000  -0.000118  -0.000012  -0.004555  -0.007222
    13  C   -0.000000  -0.000000   0.000001   0.000004   0.000032   0.000019
    14  C   -0.000000  -0.000000  -0.000000   0.000000  -0.000012  -0.000005
    15  C   -0.000028  -0.000001   0.000009  -0.000005   0.000107  -0.000142
    16  C    0.000000   0.000000  -0.000001  -0.000011  -0.000495   0.003898
    17  C    0.000000  -0.000000  -0.000000  -0.000000  -0.000023  -0.000005
    18  C   -0.000000  -0.000000  -0.000000  -0.000000  -0.000003  -0.000009
    19  C   -0.000000   0.000000   0.000000  -0.000004  -0.000004  -0.000005
    20  O   -0.000000   0.000000   0.000000  -0.000000   0.000000   0.000000
    21  H   -0.000189  -0.000117   0.005495   0.000363   0.000001  -0.000008
    22  H    0.004854  -0.000154  -0.000098   0.001837   0.000094  -0.000015
    23  H    0.005190  -0.002368   0.000001   0.000001  -0.000006   0.000000
    24  H   -0.004173  -0.003389   0.000002   0.000009   0.000002   0.000000
    25  H    0.544129  -0.022349   0.000001   0.000009  -0.000000  -0.000000
    26  H   -0.022349   0.513324   0.000000  -0.000001  -0.000000   0.000000
    27  H    0.000001   0.000000   0.530611  -0.025492  -0.003297  -0.001691
    28  H    0.000009  -0.000001  -0.025492   0.557245   0.005081  -0.005438
    29  H   -0.000000  -0.000000  -0.003297   0.005081   0.562275  -0.030526
    30  H   -0.000000   0.000000  -0.001691  -0.005438  -0.030526   0.553293
    31  H   -0.000001   0.000000   0.000033   0.004662   0.005574  -0.002929
    32  H    0.000010  -0.000002  -0.000044   0.000120   0.005727   0.000083
    33  H   -0.000000   0.000000   0.000003   0.000003   0.004603  -0.000043
    34  H   -0.000000   0.000000  -0.000000  -0.000000  -0.000010   0.000001
    35  H    0.000000   0.000000   0.000000  -0.000000   0.000000  -0.000000
    36  H    0.000004   0.000000  -0.000000  -0.000002  -0.000001   0.000004
    37  H    0.000008   0.000001  -0.000000   0.000000  -0.000004   0.000002
    38  H    0.000000  -0.000000   0.000001   0.000005   0.000293   0.000872
    39  H   -0.000000   0.000000   0.000001  -0.000001   0.000062   0.000510
    40  H    0.000000   0.000000   0.000000  -0.000000  -0.000000   0.000003
    41  H   -0.000000   0.000000   0.000000   0.000000   0.000000   0.000002
    42  H   -0.000000   0.000000   0.000000  -0.000000  -0.000001  -0.000000
    43  H    0.000000   0.000000  -0.000000   0.000000   0.000000   0.000000
    44  H    0.000000  -0.000000   0.000000   0.000000   0.000000  -0.000000
    45  H    0.000000   0.000000  -0.000000  -0.000006  -0.000000   0.000002
    46  H    0.000000   0.000000   0.000000   0.000000  -0.000000  -0.000000
              31         32         33         34         35         36
     1  C    0.000003   0.000037   0.000000   0.000000   0.000000   0.000001
     2  O   -0.000000  -0.000000   0.000000   0.000000  -0.000000  -0.000000
     3  C   -0.000216   0.000074  -0.000002  -0.000000  -0.000000  -0.000006
     4  C   -0.004271  -0.003482  -0.000075   0.000003   0.000001   0.000160
     5  C   -0.001635  -0.040856   0.000192   0.000049  -0.000101  -0.003229
     6  C    0.000170  -0.004464   0.000000  -0.000025   0.000002  -0.001547
     7  C   -0.000010  -0.000130  -0.000000  -0.000000  -0.000000  -0.000062
     8  C    0.000534  -0.000054   0.000100   0.000000  -0.000000  -0.000013
     9  C   -0.047618  -0.006243  -0.005981  -0.000028   0.000011  -0.000003
    10  C    0.380463  -0.045932  -0.043470  -0.000407  -0.000071  -0.003882
    11  C   -0.049602   0.377711  -0.005835  -0.004013   0.004194  -0.044678
    12  C   -0.042086  -0.004111   0.383495  -0.006334   0.006185  -0.000464
    13  C   -0.008015  -0.001145  -0.052394  -0.037587  -0.033170  -0.008933
    14  C    0.000342  -0.000676  -0.005981   0.379921   0.376895  -0.036874
    15  C   -0.002792  -0.044429  -0.001064  -0.037491  -0.035483   0.381363
    16  C   -0.004193  -0.000041  -0.045082   0.000055  -0.000243  -0.000020
    17  C   -0.000016   0.000003  -0.002304   0.000073   0.000067  -0.000001
    18  C    0.000045  -0.000055  -0.003107  -0.006067  -0.003847  -0.000032
    19  C    0.001198   0.000047   0.006592   0.006129  -0.007062   0.003725
    20  O   -0.000001   0.000000   0.000058  -0.000103   0.002644  -0.000002
    21  H   -0.000002  -0.000018  -0.000000  -0.000000   0.000000  -0.000000
    22  H    0.005912   0.005898   0.000001   0.000004  -0.000002   0.005294
    23  H    0.000007   0.004945  -0.000002   0.000002   0.000000   0.000158
    24  H    0.000000   0.000079  -0.000000   0.000009   0.000003   0.001032
    25  H   -0.000001   0.000010  -0.000000  -0.000000   0.000000   0.000004
    26  H    0.000000  -0.000002   0.000000   0.000000   0.000000   0.000000
    27  H    0.000033  -0.000044   0.000003  -0.000000   0.000000  -0.000000
    28  H    0.004662   0.000120   0.000003  -0.000000  -0.000000  -0.000002
    29  H    0.005574   0.005727   0.004603  -0.000010   0.000000  -0.000001
    30  H   -0.002929   0.000083  -0.000043   0.000001  -0.000000   0.000004
    31  H    0.608833   0.005901   0.005913   0.000036  -0.000006   0.001753
    32  H    0.005901   0.599470   0.004498   0.003252  -0.000067   0.005542
    33  H    0.005913   0.004498   0.613964   0.005146   0.000037   0.000089
    34  H    0.000036   0.003252   0.005146   0.571642  -0.028951   0.005076
    35  H   -0.000006  -0.000067   0.000037  -0.028951   0.555792  -0.004091
    36  H    0.001753   0.005542   0.000089   0.005076  -0.004091   0.578938
    37  H   -0.000070  -0.004871  -0.000086  -0.004258  -0.002213  -0.030744
    38  H   -0.000130  -0.000000  -0.005917  -0.000002   0.000003   0.000000
    39  H    0.004121   0.000003   0.005365  -0.000007   0.000005  -0.000007
    40  H    0.000001  -0.000000   0.000767  -0.000015  -0.000001   0.000000
    41  H   -0.000004  -0.000000  -0.000034  -0.000001  -0.000001  -0.000000
    42  H   -0.000007  -0.000005   0.003851   0.005420  -0.000053   0.000001
    43  H    0.000090   0.000002  -0.000085  -0.000143  -0.000027   0.000006
    44  H   -0.000020   0.000002  -0.000115   0.000074   0.005516   0.000604
    45  H    0.004368  -0.000015   0.000026  -0.000102  -0.000072   0.001084
    46  H   -0.000002  -0.000000   0.000003   0.000008  -0.000036  -0.000003
              37         38         39         40         41         42
     1  C   -0.000011   0.000000   0.000000   0.000000   0.000000   0.000000
     2  O   -0.000000  -0.000000   0.000000  -0.000000  -0.000000  -0.000000
     3  C    0.000014   0.000000  -0.000000   0.000000   0.000000  -0.000000
     4  C   -0.000113  -0.000001  -0.000001   0.000000  -0.000000   0.000000
     5  C   -0.006939   0.000000   0.000001  -0.000000  -0.000000  -0.000000
     6  C    0.002973  -0.000000   0.000000   0.000000   0.000000  -0.000000
     7  C    0.000069   0.000000  -0.000000  -0.000000  -0.000000  -0.000000
     8  C   -0.000010  -0.000012  -0.000030  -0.000000  -0.000000  -0.000000
     9  C   -0.000130   0.001322  -0.000587  -0.000007   0.000001   0.000005
    10  C    0.004416  -0.001772  -0.004168  -0.000058  -0.000147  -0.000254
    11  C   -0.031082  -0.000085   0.000082   0.000004   0.000003  -0.000003
    12  C    0.000109  -0.026708  -0.039614   0.000643   0.003770  -0.003664
    13  C    0.004972   0.005071  -0.006565   0.004160   0.000372  -0.049737
    14  C   -0.034573  -0.000149   0.000024  -0.000152  -0.000111  -0.007657
    15  C    0.381185  -0.000003  -0.000023   0.000003   0.000003   0.000090
    16  C    0.000009   0.377600   0.385163  -0.029873  -0.028414   0.003865
    17  C    0.000004  -0.027454  -0.033111   0.376313   0.371941  -0.049093
    18  C   -0.000082   0.002717   0.001527  -0.024453  -0.033153   0.394902
    19  C    0.000007   0.000073   0.002661   0.000150   0.000181   0.006261
    20  O    0.000001  -0.000043   0.000006   0.002502  -0.000252  -0.039919
    21  H    0.000000  -0.000000   0.000000   0.000000   0.000000   0.000000
    22  H    0.000028   0.000000  -0.000002  -0.000000  -0.000000  -0.000000
    23  H    0.001000   0.000000  -0.000000  -0.000000   0.000000  -0.000000
    24  H    0.000835  -0.000000  -0.000000  -0.000000   0.000000   0.000000
    25  H    0.000008   0.000000  -0.000000   0.000000  -0.000000  -0.000000
    26  H    0.000001  -0.000000   0.000000   0.000000   0.000000   0.000000
    27  H   -0.000000   0.000001   0.000001   0.000000   0.000000   0.000000
    28  H    0.000000   0.000005  -0.000001  -0.000000   0.000000  -0.000000
    29  H   -0.000004   0.000293   0.000062  -0.000000   0.000000  -0.000001
    30  H    0.000002   0.000872   0.000510   0.000003   0.000002  -0.000000
    31  H   -0.000070  -0.000130   0.004121   0.000001  -0.000004  -0.000007
    32  H   -0.004871  -0.000000   0.000003  -0.000000  -0.000000  -0.000005
    33  H   -0.000086  -0.005917   0.005365   0.000767  -0.000034   0.003851
    34  H   -0.004258  -0.000002  -0.000007  -0.000015  -0.000001   0.005420
    35  H   -0.002213   0.000003   0.000005  -0.000001  -0.000001  -0.000053
    36  H   -0.030744   0.000000  -0.000007   0.000000  -0.000000   0.000001
    37  H    0.552885  -0.000000  -0.000000  -0.000000  -0.000000  -0.000006
    38  H   -0.000000   0.548824  -0.032505  -0.007051   0.002310  -0.000127
    39  H   -0.000000  -0.032505   0.567765   0.003828  -0.008923  -0.000158
    40  H   -0.000000  -0.007051   0.003828   0.533805  -0.026419  -0.006408
    41  H   -0.000000   0.002310  -0.008923  -0.026419   0.553619   0.003990
    42  H   -0.000006  -0.000127  -0.000158  -0.006408   0.003990   0.576112
    43  H   -0.000001   0.000015   0.000086  -0.000057   0.000875   0.000098
    44  H   -0.000045   0.000001   0.000043  -0.000005  -0.000042  -0.000151
    45  H    0.000034  -0.000021   0.000319   0.000001  -0.000008  -0.000102
    46  H    0.000000   0.000000  -0.000098  -0.000223   0.004852   0.007154
              43         44         45         46
     1  C   -0.000000   0.000000   0.000000  -0.000000
     2  O    0.000000  -0.000000  -0.000000   0.000000
     3  C    0.000000  -0.000000  -0.000000  -0.000000
     4  C    0.000000  -0.000000   0.000001   0.000000
     5  C   -0.000002  -0.000004   0.000049  -0.000000
     6  C   -0.000000   0.000000   0.000002   0.000000
     7  C    0.000000   0.000000  -0.000000   0.000000
     8  C   -0.000000  -0.000000   0.000012  -0.000000
     9  C   -0.000021   0.000000  -0.000072   0.000000
    10  C   -0.000014   0.000013   0.002264  -0.000010
    11  C    0.000017   0.000101  -0.000311   0.000001
    12  C   -0.003550   0.005382  -0.006293   0.000170
    13  C   -0.036322  -0.029519  -0.030710  -0.015846
    14  C    0.005029  -0.005466  -0.003343  -0.000112
    15  C    0.000099  -0.000705   0.001179  -0.000005
    16  C    0.001839  -0.000205  -0.000279   0.000009
    17  C    0.002853   0.000418  -0.000047  -0.003944
    18  C   -0.004216  -0.004912   0.004840  -0.028779
    19  C    0.376399   0.374319   0.376559   0.013117
    20  O   -0.001102   0.003260   0.000387   0.242845
    21  H   -0.000000   0.000000  -0.000000   0.000000
    22  H    0.000001   0.000001   0.000060   0.000000
    23  H    0.000000   0.000000  -0.000000   0.000000
    24  H    0.000000  -0.000000  -0.000001   0.000000
    25  H    0.000000   0.000000   0.000000   0.000000
    26  H    0.000000  -0.000000   0.000000   0.000000
    27  H   -0.000000   0.000000  -0.000000   0.000000
    28  H    0.000000   0.000000  -0.000006   0.000000
    29  H    0.000000   0.000000  -0.000000  -0.000000
    30  H    0.000000  -0.000000   0.000002  -0.000000
    31  H    0.000090  -0.000020   0.004368  -0.000002
    32  H    0.000002   0.000002  -0.000015  -0.000000
    33  H   -0.000085  -0.000115   0.000026   0.000003
    34  H   -0.000143   0.000074  -0.000102   0.000008
    35  H   -0.000027   0.005516  -0.000072  -0.000036
    36  H    0.000006   0.000604   0.001084  -0.000003
    37  H   -0.000001  -0.000045   0.000034   0.000000
    38  H    0.000015   0.000001  -0.000021   0.000000
    39  H    0.000086   0.000043   0.000319  -0.000098
    40  H   -0.000057  -0.000005   0.000001  -0.000223
    41  H    0.000875  -0.000042  -0.000008   0.004852
    42  H    0.000098  -0.000151  -0.000102   0.007154
    43  H    0.550784  -0.029142  -0.025926   0.003235
    44  H   -0.029142   0.527993  -0.025724   0.000680
    45  H   -0.025926  -0.025724   0.527297  -0.000099
    46  H    0.003235   0.000680  -0.000099   0.371793
 Mulliken charges:
               1
     1  C    0.456221
     2  O   -0.499962
     3  C   -0.280998
     4  C    0.174619
     5  C   -0.180150
     6  C   -0.335871
     7  C   -0.402384
     8  C   -0.385351
     9  C   -0.307457
    10  C   -0.132025
    11  C   -0.117563
    12  C   -0.123007
    13  C    0.044623
    14  C   -0.308062
    15  C   -0.323435
    16  C   -0.325050
    17  C   -0.347745
    18  C    0.120939
    19  C   -0.558051
    20  O   -0.652361
    21  H    0.169934
    22  H    0.158969
    23  H    0.169833
    24  H    0.170219
    25  H    0.178292
    26  H    0.190608
    27  H    0.180710
    28  H    0.178542
    29  H    0.159419
    30  H    0.165940
    31  H    0.133668
    32  H    0.143236
    33  H    0.136871
    34  H    0.148645
    35  H    0.164141
    36  H    0.149757
    37  H    0.166687
    38  H    0.162873
    39  H    0.154227
    40  H    0.172542
    41  H    0.155592
    42  H    0.155597
    43  H    0.159179
    44  H    0.177647
    45  H    0.174648
    46  H    0.405292
 Sum of Mulliken charges =  -0.00000
 Mulliken charges with hydrogens summed into heavy atoms:
               1
     1  C    0.456221
     2  O   -0.499962
     3  C   -0.111064
     4  C    0.174619
     5  C   -0.021180
     6  C    0.004182
     7  C   -0.033483
     8  C   -0.026099
     9  C    0.017901
    10  C    0.001642
    11  C    0.025674
    12  C    0.013864
    13  C    0.044623
    14  C    0.004724
    15  C   -0.006992
    16  C   -0.007950
    17  C   -0.019611
    18  C    0.276537
    19  C   -0.046576
    20  O   -0.247069
 Electronic spatial extent (au):  <R**2>=           6838.8850
 Charge=             -0.0000 electrons
 Dipole moment (field-independent basis, Debye):
    X=             -3.6072    Y=              0.9609    Z=              2.0904  Tot=              4.2784
 Quadrupole moment (field-independent basis, Debye-Ang):
   XX=           -167.3951   YY=           -117.5195   ZZ=           -117.2370
   XY=             -5.2278   XZ=             -0.2978   YZ=             -1.9474
 Traceless Quadrupole moment (field-independent basis, Debye-Ang):
   XX=            -33.3446   YY=             16.5310   ZZ=             16.8135
   XY=             -5.2278   XZ=             -0.2978   YZ=             -1.9474
 Octapole moment (field-independent basis, Debye-Ang**2):
  XXX=           -200.2214  YYY=             -0.2715  ZZZ=             -2.6219  XYY=             18.2699
  XXY=             24.5729  XXZ=             65.5789  XZZ=            -12.2212  YZZ=             -3.2684
  YYZ=              1.1170  XYZ=              9.7215
 Hexadecapole moment (field-independent basis, Debye-Ang**3):
 XXXX=          -9188.9733 YYYY=          -1402.1186 ZZZZ=           -407.6676 XXXY=           -118.8018
 XXXZ=             -9.3450 YYYX=             18.2386 YYYZ=             -8.0221 ZZZX=              3.3715
 ZZZY=              2.1590 XXYY=          -1405.5081 XXZZ=          -1199.5451 YYZZ=           -304.4638
 XXYZ=            -57.6276 YYXZ=            -16.4925 ZZXY=              4.0248
 N-N= 1.671103840295D+03 E-N=-5.319340967325D+03  KE= 8.443768283682D+02

 **********************************************************************

            Electrostatic Properties Using The SCF Density.

 **********************************************************************

       Atomic Center    1 is at   4.686366 -0.146291 -0.095526
       Atomic Center    2 is at   5.864690 -0.103607 -0.449781
       Atomic Center    3 is at   3.817009  0.995268 -0.066316
       Atomic Center    4 is at   2.487274  0.920202  0.160514
       Atomic Center    5 is at   1.780580 -0.395024  0.337899
       Atomic Center    6 is at   2.648697 -1.556667 -0.154065
       Atomic Center    7 is at   4.069387 -1.435019  0.375420
       Atomic Center    8 is at   1.688687  2.153104  0.349806
       Atomic Center    9 is at   0.277976  2.091728 -0.225288
       Atomic Center   10 is at  -0.417792  0.804990  0.205665
       Atomic Center   11 is at   0.388821 -0.388079 -0.331085
       Atomic Center   12 is at  -1.838584  0.734878 -0.334049
       Atomic Center   13 is at  -2.553688 -0.578680  0.017579
       Atomic Center   14 is at  -1.781146 -1.725579 -0.626126
       Atomic Center   15 is at  -0.334423 -1.726849 -0.124899
       Atomic Center   16 is at  -2.836825  1.804936  0.105847
       Atomic Center   17 is at  -4.196964  1.200651 -0.284296
       Atomic Center   18 is at  -3.940509 -0.294867 -0.598709
       Atomic Center   19 is at  -2.701515 -0.822402  1.524492
       Atomic Center   20 is at  -4.984136 -1.142467 -0.166693
       Atomic Center   21 is at   4.284304  1.961798 -0.201143
       Atomic Center   22 is at   1.622729 -0.501369  1.419697
       Atomic Center   23 is at   2.672656 -1.553131 -1.247389
       Atomic Center   24 is at   2.229257 -2.510835  0.167292
       Atomic Center   25 is at   4.058536 -1.400100  1.468095
       Atomic Center   26 is at   4.691721 -2.277247  0.071740
       Atomic Center   27 is at   2.221829  3.021908 -0.037379
       Atomic Center   28 is at   1.615470  2.294084  1.438519
       Atomic Center   29 is at   0.317645  2.139359 -1.318198
       Atomic Center   30 is at  -0.284888  2.956242  0.122482
       Atomic Center   31 is at  -0.426563  0.771597  1.296596
       Atomic Center   32 is at   0.526402 -0.240612 -1.409749
       Atomic Center   33 is at  -1.777303  0.773814 -1.429889
       Atomic Center   34 is at  -1.798807 -1.610686 -1.712699
       Atomic Center   35 is at  -2.244172 -2.684729 -0.385488
       Atomic Center   36 is at  -0.330659 -1.975811  0.936260
       Atomic Center   37 is at   0.201511 -2.514569 -0.656825
       Atomic Center   38 is at  -2.667380  2.761138 -0.383821
       Atomic Center   39 is at  -2.764668  1.965811  1.180680
       Atomic Center   40 is at  -4.611404  1.705257 -1.155387
       Atomic Center   41 is at  -4.926919  1.288106  0.522579
       Atomic Center   42 is at  -3.889957 -0.450337 -1.680080
       Atomic Center   43 is at  -3.413451 -0.132582  1.972404
       Atomic Center   44 is at  -3.037466 -1.844371  1.697227
       Atomic Center   45 is at  -1.755953 -0.693054  2.038309
       Atomic Center   46 is at  -5.017012 -1.098896  0.796774
 -----------------------------------------------------------------

              Electrostatic Properties (Atomic Units)

 -----------------------------------------------------------------
    Center     Electric         -------- Electric Field --------
               Potential          X             Y             Z
 -----------------------------------------------------------------
    1 Atom    -14.674197      0.000661     -0.004181     -0.000550
    2 Atom    -22.350472      0.102855      0.003144     -0.031294
    3 Atom    -14.749758     -0.008800      0.000660      0.001505
    4 Atom    -14.712760      0.012216     -0.000407     -0.002098
    5 Atom    -14.720334     -0.002113     -0.003985     -0.003248
    6 Atom    -14.733165     -0.000566     -0.000726      0.000552
    7 Atom    -14.744586      0.002381     -0.000697     -0.003003
    8 Atom    -14.728233     -0.001810      0.002853     -0.001043
    9 Atom    -14.734180     -0.002176     -0.002218      0.000388
   10 Atom    -14.732152     -0.000875      0.000139     -0.004211
   11 Atom    -14.727525     -0.002119      0.000313      0.002013
   12 Atom    -14.738096     -0.000302     -0.001558      0.004531
   13 Atom    -14.733605     -0.000932      0.000911     -0.005630
   14 Atom    -14.743626     -0.002240      0.002234      0.001847
   15 Atom    -14.738674     -0.000656      0.000363     -0.001586
   16 Atom    -14.741027      0.001369     -0.000606     -0.001099
   17 Atom    -14.745324     -0.000532     -0.002411     -0.000720
   18 Atom    -14.694470      0.018354      0.011939     -0.005401
   19 Atom    -14.739554      0.001822     -0.000260     -0.003524
   20 Atom    -22.316295     -0.067108     -0.061164     -0.071883
   21 Atom     -1.108364      0.017227      0.032443     -0.005873
   22 Atom     -1.103305     -0.006168     -0.007266      0.033914
   23 Atom     -1.117561     -0.000537     -0.002082     -0.033185
   24 Atom     -1.118311     -0.013414     -0.028280      0.007419
   25 Atom     -1.107694      0.000528     -0.003201      0.034935
   26 Atom     -1.120925      0.021627     -0.021737     -0.009150
   27 Atom     -1.110258      0.017067      0.026311     -0.010713
   28 Atom     -1.101977     -0.002914      0.008496      0.030559
   29 Atom     -1.116633     -0.000096      0.003250     -0.032123
   30 Atom     -1.117782     -0.018312      0.028176      0.008700
   31 Atom     -1.115594     -0.002664     -0.000819      0.036237
   32 Atom     -1.118053      0.004458      0.004089     -0.032994
   33 Atom     -1.121152      0.002527      0.001259     -0.033205
   34 Atom     -1.124367     -0.001947      0.001002     -0.033452
   35 Atom     -1.127019     -0.016230     -0.028772      0.003688
   36 Atom     -1.120032      0.002648     -0.012224      0.033292
   37 Atom     -1.122516      0.016868     -0.024481     -0.012509
   38 Atom     -1.123853      0.005749      0.030818     -0.013601
   39 Atom     -1.122100      0.002115      0.007323      0.033822
   40 Atom     -1.124943     -0.015971      0.015186     -0.024614
   41 Atom     -1.120484     -0.024057      0.004109      0.021111
   42 Atom     -1.126561      0.001989     -0.004761     -0.031835
   43 Atom     -1.105815     -0.020016      0.022268      0.019366
   44 Atom     -1.108955     -0.009762     -0.030968      0.007174
   45 Atom     -1.108712      0.028627      0.002896      0.019874
   46 Atom     -1.000374     -0.005121     -0.001104      0.044760
 -----------------------------------------------------------------
 -----------------------------------------------------
    Center         ---- Electric Field Gradient ----
                     XX            YY            ZZ
 -----------------------------------------------------
    1 Atom     -493.391230   -493.290609   -493.959309
    2 Atom    -1217.070422  -1214.564849  -1217.490579
    3 Atom     -493.145852   -493.207386   -493.444172
    4 Atom     -493.195711   -493.280874   -493.833353
    5 Atom     -492.761527   -492.801784   -492.788588
    6 Atom     -492.644648   -492.605458   -492.599926
    7 Atom     -492.733413   -492.741173   -492.753551
    8 Atom     -492.597314   -492.633479   -492.619708
    9 Atom     -492.694781   -492.644330   -492.658583
   10 Atom     -492.790617   -492.807385   -492.807028
   11 Atom     -492.849530   -492.810130   -492.823133
   12 Atom     -492.931351   -492.944207   -492.938548
   13 Atom     -492.928851   -492.925736   -492.998910
   14 Atom     -492.728570   -492.692840   -492.710998
   15 Atom     -492.657110   -492.658930   -492.635468
   16 Atom     -492.681466   -492.632484   -492.626457
   17 Atom     -492.741483   -492.732900   -492.711073
   18 Atom     -492.917964   -492.859880   -492.703659
   19 Atom     -492.598260   -492.600008   -492.614109
   20 Atom    -1214.083177  -1213.516499  -1215.444517
   21 Atom       -1.700913     -1.985649     -1.606929
   22 Atom       -1.632876     -1.629508     -2.031586
   23 Atom       -1.626071     -1.621260     -2.056988
   24 Atom       -1.699978     -1.969003     -1.667281
   25 Atom       -1.607944     -1.608795     -2.046741
   26 Atom       -1.753282     -1.876290     -1.644655
   27 Atom       -1.734902     -1.905383     -1.676211
   28 Atom       -1.611026     -1.617166     -2.020387
   29 Atom       -1.627100     -1.626137     -2.056391
   30 Atom       -1.754977     -1.916964     -1.677774
   31 Atom       -1.647964     -1.647080     -2.083162
   32 Atom       -1.644844     -1.646965     -2.043949
   33 Atom       -1.650836     -1.643757     -2.060260
   34 Atom       -1.632081     -1.636121     -2.064334
   35 Atom       -1.706178     -1.968279     -1.650080
   36 Atom       -1.636845     -1.658100     -2.057741
   37 Atom       -1.743380     -1.863749     -1.734617
   38 Atom       -1.645065     -1.983942     -1.725630
   39 Atom       -1.636211     -1.642648     -2.071674
   40 Atom       -1.693785     -1.726642     -1.918451
   41 Atom       -1.818644     -1.627916     -1.868548
   42 Atom       -1.673407     -1.676119     -2.084636
   43 Atom       -1.816660     -1.799078     -1.696935
   44 Atom       -1.651661     -2.002018     -1.619067
   45 Atom       -1.970241     -1.618541     -1.720131
   46 Atom       -1.451509     -1.443040     -2.122911
 -----------------------------------------------------
 -----------------------------------------------------
    Center         ---- Electric Field Gradient ----
                     XY            XZ            YZ
 -----------------------------------------------------
    1 Atom       -0.047599     -0.174040     -0.141772
    2 Atom       -0.215191     -0.094329     -0.557167
    3 Atom       -0.008458     -0.053732     -0.020761
    4 Atom       -0.001991     -0.092707     -0.002326
    5 Atom       -0.018712     -0.010272     -0.003769
    6 Atom        0.022639     -0.005549     -0.025457
    7 Atom       -0.009017     -0.040440      0.001982
    8 Atom        0.022677     -0.021102     -0.009393
    9 Atom       -0.007281     -0.019826      0.020536
   10 Atom       -0.002247      0.006680     -0.000857
   11 Atom       -0.006931     -0.018697     -0.009809
   12 Atom        0.013976     -0.007656      0.004299
   13 Atom       -0.000168      0.013171      0.015915
   14 Atom        0.004710     -0.011396     -0.019709
   15 Atom       -0.021701     -0.005701      0.015091
   16 Atom       -0.003411     -0.004862     -0.015314
   17 Atom       -0.013826     -0.004520     -0.028920
   18 Atom       -0.174558      0.119351      0.110864
   19 Atom        0.007772      0.012853      0.006778
   20 Atom       -1.197632      0.674163      0.372336
   21 Atom       -0.172812      0.026903      0.052021
   22 Atom       -0.005678      0.061951      0.042357
   23 Atom        0.001753      0.007687      0.000694
   24 Atom       -0.148382      0.050039      0.113802
   25 Atom       -0.001429      0.006131     -0.012492
   26 Atom        0.194030      0.068716     -0.096574
   27 Atom       -0.170168      0.077396      0.126452
   28 Atom        0.006637      0.029639     -0.054535
   29 Atom       -0.002950      0.014465      0.018003
   30 Atom        0.183016      0.073028     -0.114612
   31 Atom       -0.001917      0.004518      0.015294
   32 Atom       -0.007134      0.051441      0.056301
   33 Atom       -0.001345      0.023312      0.014098
   34 Atom        0.003459     -0.006948      0.046926
   35 Atom       -0.163239      0.042052      0.085072
   36 Atom       -0.001544     -0.003149      0.098894
   37 Atom        0.156273      0.105414     -0.155007
   38 Atom       -0.063304      0.031037      0.180088
   39 Atom       -0.004743     -0.028130     -0.064584
   40 Atom        0.078430     -0.137470      0.166727
   41 Atom        0.022548      0.220594     -0.023980
   42 Atom       -0.002878      0.026010     -0.055545
   43 Atom        0.190153      0.121330     -0.118367
   44 Atom       -0.130641      0.024016      0.067482
   45 Atom       -0.048917     -0.191426     -0.025987
   46 Atom       -0.027380      0.028494     -0.030954
 -----------------------------------------------------
 -----------------------------------------------------
    Center         ---- Electric Field Gradient ----
                   ----       Eigenvalues       ----
 -----------------------------------------------------
    1 Atom     -494.038235   -493.342777   -493.260135
    2 Atom    -1217.625060  -1217.052920  -1214.447870
    3 Atom     -493.455490   -493.205777   -493.136144
    4 Atom     -493.846570   -493.280889   -493.182478
    5 Atom     -492.811559   -492.788059   -492.752281
    6 Atom     -492.655675   -492.622580   -492.571778
    7 Atom     -492.785523   -492.742503   -492.700112
    8 Atom     -492.644431   -492.631490   -492.574579
    9 Atom     -492.703579   -492.668951   -492.625163
   10 Atom     -492.809405   -492.807680   -492.787945
   11 Atom     -492.861462   -492.816730   -492.804601
   12 Atom     -492.956587   -492.936231   -492.921287
   13 Atom     -493.004435   -492.927788   -492.921274
   14 Atom     -492.734868   -492.719393   -492.678146
   15 Atom     -492.680925   -492.649691   -492.620891
   16 Atom     -492.682381   -492.644201   -492.613825
   17 Atom     -492.762330   -492.732410   -492.690715
   18 Atom     -493.128264   -492.712621   -492.640618
   19 Atom     -492.621533   -492.606366   -492.584478
   20 Atom    -1216.027863  -1214.453202  -1212.563128
   21 Atom       -2.074510     -1.619602     -1.599379
   22 Atom       -2.045380     -1.625401     -1.623188
   23 Atom       -2.057126     -1.626526     -1.620668
   24 Atom       -2.072872     -1.634238     -1.629152
   25 Atom       -2.047181     -1.609778     -1.606520
   26 Atom       -2.052749     -1.612354     -1.609124
   27 Atom       -2.066748     -1.629849     -1.619899
   28 Atom       -2.029818     -1.612103     -1.606657
   29 Atom       -2.057636     -1.628416     -1.623575
   30 Atom       -2.081814     -1.636215     -1.631685
   31 Atom       -2.083746     -1.649117     -1.645343
   32 Atom       -2.058303     -1.639135     -1.638320
   33 Atom       -2.062062     -1.649560     -1.643231
   34 Atom       -2.069537     -1.634229     -1.628770
   35 Atom       -2.068104     -1.629366     -1.627066
   36 Atom       -2.080891     -1.638305     -1.633490
   37 Atom       -2.074432     -1.636205     -1.631109
   38 Atom       -2.087628     -1.634832     -1.632176
   39 Atom       -2.083006     -1.634626     -1.632901
   40 Atom       -2.079782     -1.630637     -1.628459
   41 Atom       -2.068057     -1.625630     -1.621422
   42 Atom       -2.093589     -1.676767     -1.663806
   43 Atom       -2.074347     -1.621506     -1.616822
   44 Atom       -2.057075     -1.609429     -1.606242
   45 Atom       -2.080482     -1.616571     -1.611861
   46 Atom       -2.125419     -1.474977     -1.417064
 -----------------------------------------------------
 -----------------------------------------------------
    Center         ---- Electric Field Gradient ----
                       ( tensor representation )
                   3XX-RR        3YY-RR        3ZZ-RR
 -----------------------------------------------------
    1 Atom        0.155819      0.256441     -0.412260
    2 Atom       -0.695139      1.810434     -1.115296
    3 Atom        0.119952      0.058417     -0.178369
    4 Atom        0.240935      0.155772     -0.396707
    5 Atom        0.022439     -0.017818     -0.004621
    6 Atom       -0.027971      0.011220      0.016751
    7 Atom        0.009299      0.001539     -0.010839
    8 Atom        0.019520     -0.016645     -0.002874
    9 Atom       -0.028883      0.021568      0.007315
   10 Atom        0.011059     -0.005708     -0.005351
   11 Atom       -0.021932      0.017467      0.004465
   12 Atom        0.006684     -0.006172     -0.000513
   13 Atom        0.022314      0.025430     -0.047744
   14 Atom       -0.017768      0.017963     -0.000195
   15 Atom       -0.006607     -0.008427      0.015034
   16 Atom       -0.034664      0.014318      0.020345
   17 Atom       -0.012998     -0.004415      0.017412
   18 Atom       -0.090796     -0.032712      0.123509
   19 Atom        0.005866      0.004118     -0.009984
   20 Atom        0.264887      0.831565     -1.096452
   21 Atom        0.063584     -0.221152      0.157568
   22 Atom        0.131781      0.135149     -0.266929
   23 Atom        0.142035      0.146847     -0.288882
   24 Atom        0.078776     -0.190249      0.111473
   25 Atom        0.146549      0.145698     -0.292248
   26 Atom        0.004794     -0.118214      0.113420
   27 Atom        0.037263     -0.133218      0.095955
   28 Atom        0.138501      0.132360     -0.270860
   29 Atom        0.142776      0.143739     -0.286515
   30 Atom        0.028261     -0.133726      0.105464
   31 Atom        0.144772      0.145655     -0.290427
   32 Atom        0.133742      0.131621     -0.265363
   33 Atom        0.134115      0.141194     -0.275309
   34 Atom        0.145431      0.141391     -0.286822
   35 Atom        0.068668     -0.193433      0.124766
   36 Atom        0.147384      0.126129     -0.273512
   37 Atom        0.037202     -0.083167      0.045965
   38 Atom        0.139814     -0.199063      0.059249
   39 Atom        0.147300      0.140863     -0.288163
   40 Atom        0.085841      0.052984     -0.138825
   41 Atom       -0.046941      0.143787     -0.096845
   42 Atom        0.137980      0.135268     -0.273248
   43 Atom       -0.045769     -0.028187      0.073956
   44 Atom        0.105921     -0.244436      0.138515
   45 Atom       -0.200603      0.151097      0.049506
   46 Atom        0.220978      0.229447     -0.450424
 -----------------------------------------------------
 -----------------------------------------------------
    Center         ---- Electric Field Gradient ----
                       ( tensor representation )
                   ----       Eigenvalues       ----
 -----------------------------------------------------
    1 Atom       -0.491186      0.204272      0.286914
    2 Atom       -1.249776     -0.677637      1.927413
    3 Atom       -0.189686      0.060027      0.129659
    4 Atom       -0.409924      0.155757      0.254168
    5 Atom       -0.027593     -0.004093      0.031686
    6 Atom       -0.038997     -0.005902      0.044900
    7 Atom       -0.042810      0.000210      0.042601
    8 Atom       -0.027598     -0.014657      0.042255
    9 Atom       -0.037681     -0.003053      0.040735
   10 Atom       -0.007728     -0.006004      0.013732
   11 Atom       -0.033864      0.010867      0.022997
   12 Atom       -0.018552      0.001804      0.016748
   13 Atom       -0.053269      0.023378      0.029892
   14 Atom       -0.024066     -0.008590      0.032656
   15 Atom       -0.030423      0.000811      0.029611
   16 Atom       -0.035579      0.002601      0.032977
   17 Atom       -0.033845     -0.003925      0.037770
   18 Atom       -0.301096      0.114547      0.186550
   19 Atom       -0.017408     -0.002240      0.019648
   20 Atom       -1.679799     -0.105137      1.784936
   21 Atom       -0.310013      0.144895      0.165118
   22 Atom       -0.280724      0.139255      0.141468
   23 Atom       -0.289020      0.141581      0.147439
   24 Atom       -0.294118      0.144516      0.149602
   25 Atom       -0.292688      0.144715      0.147973
   26 Atom       -0.294674      0.145722      0.148952
   27 Atom       -0.294583      0.142316      0.152267
   28 Atom       -0.280292      0.137423      0.142869
   29 Atom       -0.287761      0.141460      0.146301
   30 Atom       -0.298576      0.147023      0.151553
   31 Atom       -0.291011      0.143619      0.147392
   32 Atom       -0.279717      0.139451      0.140266
   33 Atom       -0.277111      0.135391      0.141720
   34 Atom       -0.292025      0.143283      0.148742
   35 Atom       -0.293258      0.145480      0.147779
   36 Atom       -0.296662      0.145924      0.150738
   37 Atom       -0.293850      0.144377      0.149473
   38 Atom       -0.302749      0.150047      0.152703
   39 Atom       -0.299495      0.148885      0.150610
   40 Atom       -0.300156      0.148989      0.151167
   41 Atom       -0.296354      0.146073      0.150281
   42 Atom       -0.282202      0.134620      0.147582
   43 Atom       -0.303455      0.149386      0.154070
   44 Atom       -0.299493      0.148153      0.151340
   45 Atom       -0.310844      0.153067      0.157777
   46 Atom       -0.452932      0.197510      0.255423
 -----------------------------------------------------
 Unable to Open any file for archive entry.
 1\1\GINC-MIKE012\SP\RwB97XD\6-31G(d)\C18H26O2\ARKANIL\04-May-2026\0\\#
  wb97xd/6-31g(d) prop=efg\\None_sub_reg_combined_truncated\\0,1\C,0,-1
 .8072005943,1.6257144532,-1.2779696928\O,0,-2.4358864096,1.8599875835,
 -2.310266629\C,0,-1.8025562246,0.3531141934,-0.614449361\C,0,-0.986227
 1622,0.0481229715,0.4179603434\C,0,0.0525215234,1.0094627158,0.9254326
 433\C,0,0.3087826495,2.1281149745,-0.0884785586\C,0,-1.0011101482,2.70
 31606607,-0.6052138473\C,0,-1.161588209,-1.2201783265,1.1624591801\C,0
 ,0.1361463001,-1.8607635338,1.6421912842\C,0,1.0162705026,-0.826685423
 8,2.3361450284\C,0,1.3540911932,0.2816122237,1.3263461976\C,0,2.306074
 1913,-1.450093435,2.8486147083\C,0,3.2555386892,-0.4287202151,3.493413
 6112\C,0,3.6512420351,0.5885463536,2.4279832165\C,0,2.4002310151,1.268
 2925515,1.8648184293\C,0,2.2118110461,-2.5531969814,3.9018446421\C,0,3
 .6459026318,-2.6389213776,4.4526483477\C,0,4.3872960343,-1.3747602145,
 3.9492279727\C,0,2.6629457471,0.2880019473,4.7129142943\O,0,5.28381103
 33,-0.8385696129,4.8994809362\H,0,-2.5282147354,-0.3727564471,-0.95687
 50551\H,0,-0.3720275353,1.4470257258,1.8391123031\H,0,0.8815703484,1.7
 294895421,-0.9304733945\H,0,0.8950429595,2.9285074688,0.3646312099\H,0
 ,-1.6015991835,3.0727768606,0.2302932081\H,0,-0.8391581764,3.531380041
 3,-1.2956441909\H,0,-1.7468155442,-1.9322979633,0.5799071667\H,0,-1.77
 05156949,-0.9649845523,2.0425811368\H,0,0.6760822955,-2.2919943853,0.7
 931903927\H,0,-0.1010551262,-2.6716783964,2.3287030131\H,0,0.449359001
 5,-0.3979524059,3.1644701875\H,0,1.7701932591,-0.1972563957,0.43095000
 54\H,0,2.8372759195,-1.8675166287,1.9827515167\H,0,4.1930980478,0.0819
 532906,1.6255433524\H,0,4.3131509998,1.3485673623,2.8481160205\H,0,1.9
 483486599,1.8766533178,2.648243057\H,0,2.7169269877,1.9356307483,1.061
 6762544\H,0,1.8849698682,-3.5027885091,3.4844011937\H,0,1.5019129073,-
 2.2707312396,4.6781251668\H,0,4.146083359,-3.5381846061,4.0972158821\H
 ,0,3.6611783811,-2.6655843015,5.5437875336\H,0,5.0148442143,-1.6224499
 196,3.0884595129\H,0,2.5597603209,-0.38577615,5.5606789287\H,0,3.30670
 66208,1.1206031983,4.9948159156\H,0,1.6797923448,0.6885147954,4.494223
 2228\H,0,4.7637606156,-0.5316594563,5.652210854\\Version=ES64L-G16RevC
 .01\State=1-A\HF=-851.7923237\RMSD=6.213e-09\Dipole=0.3292779,-0.50725
 74,1.5708771\Quadrupole=-8.2597438,11.1643291,-2.9045852,6.6038772,-16
 .9099283,6.9278653\PG=C01 [X(C18H26O2)]\\@
 The archive entry for this job was punched.


 HE WHO LOVES TO READ, AND KNOWS HOW TO REFLECT,
 HAS LAID BY A PERPETUAL FEAST FOR HIS OLD AGE.
 -- UNCLE ESEK, "SCRIBNER'S MONTHLY", SEPT. 1880
 Job cpu time:       0 days  0 hours 17 minutes  1.0 seconds.
 Elapsed time:       0 days  0 hours  0 minutes 16.3 seconds.
 File lengths (MBytes):  RWF=     71 Int=      0 D2E=      0 Chk=   1911 Scr=      1
 Normal termination of Gaussian 16 at Mon May  4 07:59:26 2026.
