 Entering Gaussian System, Link 0=g16
 Input=elect_cutoff6.gjf
 Output=elect_cutoff6.log
 Initial command:
 /usr/local/packages/license/gaussian/g16-c01/g16/l1.exe "/work/arkanil/gauss_scratch/Gau-9460.inp" -scrdir="/work/arkanil/gauss_scratch/"
 Entering Link 1 = /usr/local/packages/license/gaussian/g16-c01/g16/l1.exe PID=      9461.
  
 Copyright (c) 1988-2019, Gaussian, Inc.  All Rights Reserved.
  
 This is part of the Gaussian(R) 16 program.  It is based on
 the Gaussian(R) 09 system (copyright 2009, Gaussian, Inc.),
 the Gaussian(R) 03 system (copyright 2003, Gaussian, Inc.),
 the Gaussian(R) 98 system (copyright 1998, Gaussian, Inc.),
 the Gaussian(R) 94 system (copyright 1995, Gaussian, Inc.),
 the Gaussian 92(TM) system (copyright 1992, Gaussian, Inc.),
 the Gaussian 90(TM) system (copyright 1990, Gaussian, Inc.),
 the Gaussian 88(TM) system (copyright 1988, Gaussian, Inc.),
 the Gaussian 86(TM) system (copyright 1986, Carnegie Mellon
 University), and the Gaussian 82(TM) system (copyright 1983,
 Carnegie Mellon University). Gaussian is a federally registered
 trademark of Gaussian, Inc.
  
 This software contains proprietary and confidential information,
 including trade secrets, belonging to Gaussian, Inc.
  
 This software is provided under written license and may be
 used, copied, transmitted, or stored only in accord with that
 written license.
  
 The following legend is applicable only to US Government
 contracts under FAR:
  
                    RESTRICTED RIGHTS LEGEND
  
 Use, reproduction and disclosure by the US Government is
 subject to restrictions as set forth in subparagraphs (a)
 and (c) of the Commercial Computer Software - Restricted
 Rights clause in FAR 52.227-19.
  
 Gaussian, Inc.
 340 Quinnipiac St., Bldg. 40, Wallingford CT 06492
  
  
 ---------------------------------------------------------------
 Warning -- This program may not be used in any manner that
 competes with the business of Gaussian, Inc. or will provide
 assistance to any competitor of Gaussian, Inc.  The licensee
 of this program is prohibited from giving any competitor of
 Gaussian, Inc. access to this program.  By using this program,
 the user acknowledges that Gaussian, Inc. is engaged in the
 business of creating and licensing software in the field of
 computational chemistry and represents and warrants to the
 licensee that it is not a competitor of Gaussian, Inc. and that
 it will not use this program in any manner prohibited above.
 ---------------------------------------------------------------
  

 Cite this work as:
 Gaussian 16, Revision C.01,
 M. J. Frisch, G. W. Trucks, H. B. Schlegel, G. E. Scuseria, 
 M. A. Robb, J. R. Cheeseman, G. Scalmani, V. Barone, 
 G. A. Petersson, H. Nakatsuji, X. Li, M. Caricato, A. V. Marenich, 
 J. Bloino, B. G. Janesko, R. Gomperts, B. Mennucci, H. P. Hratchian, 
 J. V. Ortiz, A. F. Izmaylov, J. L. Sonnenberg, D. Williams-Young, 
 F. Ding, F. Lipparini, F. Egidi, J. Goings, B. Peng, A. Petrone, 
 T. Henderson, D. Ranasinghe, V. G. Zakrzewski, J. Gao, N. Rega, 
 G. Zheng, W. Liang, M. Hada, M. Ehara, K. Toyota, R. Fukuda, 
 J. Hasegawa, M. Ishida, T. Nakajima, Y. Honda, O. Kitao, H. Nakai, 
 T. Vreven, K. Throssell, J. A. Montgomery, Jr., J. E. Peralta, 
 F. Ogliaro, M. J. Bearpark, J. J. Heyd, E. N. Brothers, K. N. Kudin, 
 V. N. Staroverov, T. A. Keith, R. Kobayashi, J. Normand, 
 K. Raghavachari, A. P. Rendell, J. C. Burant, S. S. Iyengar, 
 J. Tomasi, M. Cossi, J. M. Millam, M. Klene, C. Adamo, R. Cammi, 
 J. W. Ochterski, R. L. Martin, K. Morokuma, O. Farkas, 
 J. B. Foresman, and D. J. Fox, Gaussian, Inc., Wallingford CT, 2019.
 
 ******************************************
 Gaussian 16:  ES64L-G16RevC.01  3-Jul-2019
                 1-May-2026 
 ******************************************
 %chk=ksi_reactant_trial.chk
 %nprocshared=64
 Will use up to   64 processors via shared memory.
 %mem=200GB
 -------------------------------
 # wb97xd/6-31g(d) prop=efg,read
 -------------------------------
 1/38=1,172=1/1;
 2/12=2,17=6,18=5,40=1/2;
 3/5=8,6=8,7=1,11=2,25=1,30=1,74=-58/1,2,3;
 4//1;
 5/5=2,38=5/2;
 6/7=2,8=2,9=2,10=2,14=1,28=1/1,2;
 99/5=1,9=1/99;
 -------------------------------
 None_sub_reg_combined_truncated
 -------------------------------
 Symbolic Z-matrix:
 Charge = -1 Multiplicity = 1
 H                    0     8.39272  -7.59938  -3.88039 
 C                    -1    7.84775  -7.04062  -3.10806 
 H                    0     7.92372  -7.61053  -2.17839 
 C                    0     8.50337  -5.65753  -2.92709 
 H                    0     9.5301   -5.81999  -2.5786 
 H                    0     8.59806  -5.1567   -3.89927 
 C                    0     7.7701   -4.73843  -1.9769 
 C                    0     7.93556  -4.78961  -0.59395 
 H                    0     8.61512  -5.51862  -0.15574 
 C                    0     7.24166  -3.92322   0.25836 
 H                    0     7.36164  -4.01484   1.33568 
 C                    0     6.35723  -2.97975  -0.2751 
 O                    0     5.64867  -2.10338   0.46475 
 H                    0     5.97028  -2.01438   1.38102 
 C                    0     6.17324  -2.92814  -1.6611 
 H                    0     5.49126  -2.18415  -2.05587 
 C                    0     6.86791  -3.7951   -2.48176 
 H                    0     6.71083  -3.73151  -3.55474 
 C                    0     6.36558  -7.04097  -3.45753 
 O                    0     5.55491  -7.70488  -2.82394 
 N                    0     5.99597  -6.29442  -4.52803 
 H                    0     6.6863   -5.76208  -5.03414 
 C                    -1    4.60551  -6.20974  -4.93301 
 H                    0     4.00401  -5.91188  -4.06582 
 C                    0     4.39209  -5.22917  -6.0922 
 H                    0     5.03211  -5.55888  -6.92508 
 C                    0     2.93777  -5.32728  -6.56175 
 H                    0     2.24605  -5.12525  -5.73764 
 H                    0     2.73392  -4.6004   -7.35537 
 H                    0     2.71225  -6.32765  -6.94825 
 C                    0     4.78559  -3.77372  -5.77043 
 H                    0     5.86331  -3.71976  -5.56433 
 H                    0     4.64797  -3.17313  -6.67797 
 C                    0     4.02252  -3.11516  -4.62255 
 H                    0     4.17907  -3.64429  -3.67707 
 H                    0     4.35338  -2.08017  -4.48686 
 H                    0     2.94603  -3.07764  -4.81873 
 H                    0     4.25594  -7.20829  -5.22487 
 H                    0     2.82108  -8.0593   -1.12619 
 C                    -1    2.01302  -7.3842   -0.82506 
 H                    0     2.05452  -7.26772   0.26611 
 C                    0     2.16271  -6.02329  -1.51366 
 H                    0     2.1203   -6.19284  -2.60052 
 C                    0     1.01874  -5.07813  -1.13803 
 H                    0     1.05379  -4.84263  -0.0665 
 H                    0     1.08571  -4.13216  -1.68878 
 H                    0     0.03734  -5.52205  -1.34496 
 C                    0     3.51777  -5.39122  -1.18878 
 H                    0     4.34434  -6.06003  -1.44824 
 H                    0     3.65894  -4.45331  -1.73633 
 H                    0     3.58936  -5.15108  -0.12012 
 H                    0     1.05332  -7.85386  -1.07343 
 H                    0     7.20575  -9.32271   3.39944 
 C                    -1    7.86476  -8.4545    3.28672 
 H                    0     8.32039  -8.50852   2.28959 
 C                    0     7.09027  -7.14089   3.45289 
 H                    0     6.63411  -7.14199   4.45487 
 C                    0     8.04278  -5.94653   3.37046 
 H                    0     8.53084  -5.90794   2.38837 
 H                    0     7.51591  -4.99967   3.5227 
 H                    0     8.83591  -6.00764   4.12442 
 C                    0     5.95056  -7.03688   2.42586 
 H                    0     6.38017  -6.9231    1.42003 
 H                    0     5.40116  -7.98782   2.41628 
 C                    0     4.95825  -5.90259   2.68674 
 H                    0     5.41372  -4.91229   2.58218 
 H                    0     4.12372  -5.95243   1.98042 
 H                    0     4.54394  -5.96391   3.7002 
 H                    0     8.66889  -8.53801   4.02703 
 H                    0     14.27827  -4.47864   3.81678 
 C                    -1    13.78146  -4.83762   4.72417 
 H                    0     13.65983  -3.98146   5.39636 
 C                    0     12.42403  -5.46464   4.3866 
 H                    0     12.57371  -6.33381   3.73583 
 H                    0     11.9601  -5.84204   5.30638 
 C                    0     11.49028  -4.48567   3.71486 
 C                    0     11.27506  -4.51072   2.33737 
 H                    0     11.77272  -5.26396   1.7315 
 C                    0     10.42884  -3.59759   1.71493 
 H                    0     10.2641  -3.63689   0.64178 
 C                    0     9.77753  -2.64108   2.48591 
 O                    0     8.90357  -1.73248   1.94514 
 H                    0     8.64011  -2.02459   1.05709 
 C                    0     9.99592  -2.57554   3.85975 
 H                    0     9.50275  -1.80326   4.44355 
 C                    0     10.84355  -3.49627   4.46049 
 H                    0     11.00142  -3.44741   5.53545 
 H                    0     14.44036  -5.5631    5.21298 
 H                    0     5.0489    6.514     4.29905 
 C                    -1    4.27154   6.0667    3.66483 
 H                    0     4.43279   6.45112   2.65582 
 C                    0     4.41482   4.54597   3.67975 
 H                    0     5.3781    4.2591    3.23902 
 H                    0     4.42419   4.1746    4.70894 
 C                    0     3.29795   3.80305   2.92538 
 O                    0     2.43721   4.48558   2.32311 
 O                    0     3.33997   2.53912   2.97835 
 C                    0     2.93035   6.50972   4.22834 
 O                    0     2.41524   5.94475   5.19297 
 N                    0     2.36371   7.61011   3.67523 
 C                    0     1.13121   8.16058   4.23231 
 H                    0     1.22772   8.28168   5.31517 
 H                    0     0.29318   7.47987   4.04711 
 C                    0     0.95406   9.48253   3.48066 
 H                    0     1.48004   10.28927   4.0059 
 H                    0    -0.098     9.7651    3.38805 
 C                    0     1.61916   9.21121   2.12618 
 H                    0     1.92267   10.12237   1.60246 
 H                    0     0.93177   8.6558    1.47971 
 C                    -1    2.81744   8.32611   2.48305 
 H                    0     3.06177   7.64251   1.66703 
 H                    0     3.71171   8.92646   2.69841 
 H                    0     3.04156  -1.73499   10.68738 
 C                    -1    2.66738  -1.10342   9.8708 
 H                    0     1.90902  -0.44288   10.30169 
 C                    0     3.82159  -0.27398   9.28632 
 H                    0     4.30359   0.24677   10.12185 
 H                    0     4.59373  -0.92577   8.85761 
 C                    0     3.37667   0.73521   8.25265 
 C                    0     2.64734   1.86187   8.65091 
 H                    0     2.39044   1.99041   9.70107 
 C                    0     2.27083   2.82685   7.72024 
 H                    0     1.7302    3.71278   8.04092 
 C                    0     2.62017   2.67993   6.37739 
 H                    0     2.37042   3.46665   5.6697 
 C                    0     3.33272   1.55448   5.9701 
 H                    0     3.61675   1.46517   4.92596 
 C                    0     3.69852   0.58548   6.90376 
 H                    0     4.25785  -0.28919   6.57576 
 C                    0     1.95655  -2.01106   8.88807 
 O                    0     0.72008  -2.02285   8.78077 
 N                    0     2.71688  -2.85686   8.17958 
 H                    0     3.72159  -2.76315   8.20124 
 C                    -1    2.12667  -3.78448   7.2344 
 H                    0     1.45334  -3.231     6.56951 
 C                    0     3.19494  -4.51481   6.426 
 H                    0     3.82415  -5.10962   7.10107 
 H                    0     2.67446  -5.23244   5.77955 
 C                    0     4.06529  -3.61195   5.57823 
 C                    0     5.45421  -3.69756   5.64082 
 H                    0     5.9213   -4.39565   6.3324 
 C                    0     6.26911  -2.93453   4.80423 
 H                    0     7.35096  -3.03367   4.84902 
 C                    0     5.67821  -2.07097   3.88982 
 O                    0     6.39366  -1.34154   2.98322 
 H                    0     7.35135  -1.51723   3.00814 
 C                    0     4.28942  -1.93393   3.84257 
 H                    0     3.85011  -1.22295   3.14952 
 C                    0     3.49302  -2.70476   4.67442 
 H                    0     2.41199  -2.59033   4.60659 
 H                    0     1.5127   -4.50944   7.78164 
 H                    0    -1.47054  -3.44466   9.93916 
 C                    -1   -2.40942  -2.87853   9.9751 
 H                    0    -3.1251   -3.42803   10.58998 
 C                    0    -2.12839  -1.47465   10.55422 
 H                    0    -1.81176  -0.81036   9.74461 
 H                    0    -3.05622  -1.05442   10.95702 
 C                    0    -1.04405  -1.51292   11.63639 
 H                    0    -1.33787  -2.17113   12.45862 
 H                    0    -0.12775  -1.91342   11.18495 
 C                    0    -0.72698  -0.15844   12.25974 
 O                    0    -0.83744   0.04435   13.45991 
 N                    0    -0.26465   0.79415   11.39912 
 H                    0    -0.16871   1.71987   11.79074 
 H                    0    -0.34276   0.72167   10.38127 
 C                    0    -2.9722   -2.76211   8.56723 
 O                    0    -4.17184  -2.8211    8.32341 
 N                    0    -2.03442  -2.5509    7.59442 
 H                    0    -1.06707  -2.42328   7.87963 
 C                    -1   -2.40078  -2.12454   6.25834 
 H                    0    -3.34899  -1.57885   6.29522 
 H                    0    -1.62629  -1.45561   5.87292 
 C                    0    -2.58148  -3.23873   5.24335 
 O                    0    -2.85138  -2.94412   4.06918 
 N                    0    -2.41519  -4.48761   5.68079 
 H                    0    -2.2566   -4.58977   6.67227 
 C                    -1   -2.76433  -5.65633   4.89336 
 H                    0    -3.46907  -5.32985   4.1259 
 C                    0    -1.5246   -6.32298   4.28069 
 H                    0    -0.89369  -6.69552   5.10082 
 H                    0    -1.85039  -7.20756   3.71443 
 C                    0    -0.66889  -5.42269   3.37116 
 H                    0    -0.45312  -4.49622   3.91997 
 C                    0     0.67147  -6.09622   3.05957 
 H                    0     0.52271  -7.02361   2.49107 
 H                    0     1.31155  -5.43799   2.4609 
 H                    0     1.21872  -6.35076   3.97574 
 C                    0    -1.39113  -5.04495   2.07529 
 H                    0    -2.31938  -4.50742   2.28077 
 H                    0    -0.76407  -4.38853   1.46092 
 H                    0    -1.61948  -5.93893   1.47944 
 H                    0    -3.29986  -6.35251   5.54374 
 H                    0    -6.48797  -6.46546   0.25827 
 C                    -1   -5.9636   -5.78007  -0.41402 
 H                    0    -6.66473  -5.01586  -0.76737 
 C                    0    -4.81046  -5.08979   0.35957 
 H                    0    -4.0845   -5.86707   0.63562 
 C                    0    -4.09514  -4.02594  -0.48013 
 H                    0    -4.80209  -3.26091  -0.82456 
 H                    0    -3.32356  -3.53065   0.11979 
 H                    0    -3.61244  -4.44205  -1.36955 
 C                    0    -5.35958  -4.47179   1.64789 
 H                    0    -5.84987  -5.21798   2.28314 
 H                    0    -4.55713  -4.01126   2.23342 
 H                    0    -6.09162  -3.68621   1.42564 
 C                    0    -5.4662   -6.60021  -1.58076 
 O                    0    -5.12246  -7.7919   -1.42509 
 N                    0    -5.39918  -5.97629  -2.76501 
 H                    0    -5.70573  -5.00061  -2.81195 
 C                    -1   -4.69615  -6.50686  -3.92144 
 H                    0    -4.16493  -7.40181  -3.58815 
 C                    0    -5.6282   -6.80423  -5.11951 
 H                    0    -5.77103  -5.92432  -5.76229 
 H                    0    -5.14583  -7.56002  -5.75494 
 C                    0    -7.05119  -7.22387  -4.76741 
 H                    0    -7.53181  -6.4259   -4.19227 
 H                    0    -7.59703  -7.25983  -5.71679 
 C                    0    -7.19892  -8.51074  -3.96289 
 H                    0    -6.80853  -8.41205  -2.9498 
 H                    0    -8.25318  -8.79134  -3.87591 
 N                    0    -6.50537  -9.63467  -4.60857 
 H                    0    -6.76993  -9.80101  -5.57049 
 C                    0    -5.4276   -10.26665  -4.16369 
 N                    0    -4.79442  -9.92197  -3.04998 
 H                    0    -4.9773   -9.0502   -2.49595 
 H                    0    -4.14164  -10.57587  -2.6457 
 N                    0    -4.9736   -11.34433  -4.85675 
 H                    0    -5.44886  -11.63407  -5.69701 
 H                    0    -3.99744  -11.58723  -4.79561 
 C                    0    -3.69292  -5.44134  -4.34003 
 O                    0    -3.84421  -4.26639  -4.02426 
 N                    0    -2.67071  -5.86025  -5.10775 
 H                    0    -2.56177  -6.84492  -5.29256 
 C                    -1   -1.6508   -4.93511  -5.55488 
 H                    0    -2.10976  -3.94679  -5.58913 
 C                    0    -0.42956  -4.92414  -4.63707 
 H                    0     0.09692  -5.88514  -4.65821 
 H                    0     0.27205  -4.14196  -4.94506 
 H                    0    -0.72655  -4.72176  -3.60444 
 H                    0    -1.36498  -5.20098  -6.5778 
 H                    0     8.82246   2.15772  -9.12904 
 C                    -1    7.91321   1.64072  -9.45607 
 H                    0     7.98371   1.48685  -10.53752 
 C                    0     7.74478   0.30749  -8.72392 
 H                    0     6.84967  -0.20798  -9.09322 
 H                    0     8.59745  -0.34519  -8.94746 
 C                    0     7.63146   0.48097  -7.20929 
 H                    0     8.50725   1.01605  -6.82144 
 H                    0     6.74089   1.07222  -6.96327 
 S                    0     7.5208   -1.14218  -6.38952 
 C                    0     7.39235  -0.61186  -4.66123 
 H                    0     6.44149  -0.11212  -4.46621 
 H                    0     7.44509  -1.50409  -4.03312 
 H                    0     8.22921   0.03833  -4.3887 
 H                    0     7.0634    2.30602  -9.26579 
 H                    0     2.34787   1.04215  -9.13206 
 C                    -1    1.5733    0.28423  -8.97441 
 H                    0     1.25064  -0.08683  -9.95332 
 C                    0     2.10308  -0.85658  -8.09288 
 H                    0     1.32234  -1.61683  -7.96955 
 H                    0     2.94564  -1.34668  -8.59737 
 C                    0     2.54127  -0.34466  -6.74142 
 C                    0     1.70207  -0.42653  -5.62765 
 H                    0     0.74271  -0.93301  -5.71884 
 C                    0     2.06936   0.14588  -4.41254 
 H                    0     1.40239   0.09058  -3.55575 
 C                    0     3.27815   0.82466  -4.3009 
 H                    0     3.56348   1.31008  -3.37665 
 C                    0     4.1243    0.90655  -5.40251 
 H                    0     5.05326   1.46389  -5.31665 
 C                    0     3.76583   0.31526  -6.60821 
 H                    0     4.43149   0.38199  -7.46716 
 H                    0     0.72116   0.77616  -8.49441 
 H                    0    -3.12234  -0.41459  -5.38763 
 C                    -1   -3.60576  -1.19173  -4.78638 
 H                    0    -3.35617  -2.16915  -5.20741 
 C                    0    -3.10759  -1.11788  -3.32669 
 H                    0    -3.78338  -1.72857  -2.71378 
 C                    0    -1.7052   -1.70549  -3.19122 
 H                    0    -0.978    -1.14203  -3.79221 
 H                    0    -1.37473  -1.6727   -2.14691 
 H                    0    -1.69488  -2.7493   -3.51466 
 C                    0    -3.15192   0.31733  -2.81027 
 H                    0    -4.1422    0.75258  -2.95385 
 H                    0    -2.92188   0.36225  -1.74221 
 H                    0    -2.42628   0.94725  -3.34264 
 C                    0    -5.10919  -0.98026  -4.86861 
 O                    0    -5.62236   0.1102   -5.10987 
 N                    0    -5.81704  -2.1071   -4.6153 
 H                    0    -5.30151  -2.94183  -4.35596 
 C                    -1   -7.25492  -2.16785  -4.49588 
 H                    0    -7.64171  -1.17793  -4.75108 
 C                    0    -7.83914  -3.27068  -5.40656 
 H                    0    -7.42537  -4.22852  -5.06988 
 H                    0    -8.92396  -3.32143  -5.23814 
 C                    0    -7.54458  -3.14974  -6.89654 
 H                    0    -8.13921  -2.35593  -7.35908 
 H                    0    -6.48385  -2.89771  -7.02837 
 C                    0    -7.80934  -4.50471  -7.63301 
 O                    0    -7.25304  -5.51154  -7.0969 
 O                    0    -8.51315  -4.47156  -8.65097 
 C                    0    -7.59946  -2.55823  -3.07029 
 O                    0    -6.98036  -3.44681  -2.4739 
 N                    0    -8.64942  -1.91843  -2.53411 
 H                    0    -9.2449   -1.33774  -3.10999 
 C                    -1   -9.11792  -2.16641  -1.19671 
 H                    0    -9.29988  -3.24641  -1.08014 
 C                    0    -8.08752  -1.77135  -0.12192 
 H                    0    -8.48301  -2.04726   0.86201 
 H                    0    -7.20768  -2.40154  -0.27761 
 C                    0    -7.66024  -0.29864  -0.09976 
 H                    0    -8.50689   0.37031  -0.28994 
 H                    0    -7.27505  -0.04757   0.89397 
 S                    0    -6.32346   0.10131  -1.28834 
 C                    0    -7.18423   1.12793  -2.50413 
 H                    0    -7.37167   2.13195  -2.11431 
 H                    0    -6.5504    1.17896  -3.39314 
 H                    0    -8.13141   0.66062  -2.78172 
 C                    0    -10.49086  -1.50231  -1.07597 
 O                    0    -11.14657  -1.23086  -2.07905 
 N                    0    -10.93131  -1.31499   0.18363 
 H                    0    -10.34922  -1.52073   0.99771 
 C                    -1   -12.29429  -0.92544   0.45588 
 H                    0    -12.7854  -0.83448  -0.5177 
 C                    0    -13.0328  -1.99316   1.29297 
 H                    0    -12.48947  -2.09545   2.2407 
 C                    0    -14.4657  -1.54878   1.59714 
 H                    0    -15.02565  -1.37158   0.67011 
 H                    0    -14.99193  -2.3251    2.16183 
 H                    0    -14.49056  -0.63067   2.19249 
 C                    0    -13.0166  -3.34032   0.57014 
 H                    0    -11.99465  -3.68743   0.39324 
 H                    0    -13.5305  -4.0998    1.16864 
 H                    0    -13.52382  -3.27085  -0.40002 
 C                    0    -12.3304   0.41828   1.1793 
 O                    0    -11.85635   0.56768   2.30951 
 N                    0    -12.98206   1.40219   0.5323 
 H                    0    -13.1473   1.28583  -0.45627 
 C                    -1   -13.12252   2.72536   1.10457 
 H                    0    -13.41784   2.59888   2.14969 
 C                    0    -11.84411   3.57855   1.03454 
 H                    0    -10.99983   2.94916   1.34085 
 H                    0    -11.66852   3.88167  -0.00124 
 C                    0    -11.92488   4.78075   1.91876 
 C                    0    -12.01346   6.09108   1.5464 
 H                    0    -12.02476   6.52317   0.55454 
 N                    0    -12.0853   6.89651   2.66492 
 H                    0    -12.1045   7.90168   2.65653 
 C                    0    -12.03107   6.10783   3.79168 
 C                    0    -12.05458   6.45088   5.14619 
 H                    0    -12.12535   7.48628   5.46751 
 C                    0    -11.97799   5.41769   6.06514 
 H                    0    -11.98987   5.64885   7.12634 
 C                    0    -11.87894   4.07472   5.65344 
 H                    0    -11.81458   3.29328   6.40458 
 C                    0    -11.85575   3.73875   4.31101 
 H                    0    -11.77351   2.70239   3.99153 
 C                    0    -11.93436   4.76684   3.35948 
 H                    0    -13.94384   3.23229   0.59029 
 H                    0    -12.60719   2.01223  -4.10865 
 C                    -1   -11.63192   1.60345  -4.39129 
 H                    0    -11.51538   1.70563  -5.47478 
 C                    0    -10.50524   2.33815  -3.67554 
 H                    0    -9.52797   1.98779  -4.01989 
 H                    0    -10.56564   3.4143   -3.86034 
 S                    0    -10.66538   2.03734  -1.87948 
 H                    0    -9.86856   3.03063  -1.45275 
 H                    0    -11.62294   0.53679  -4.14518 
 H                    0    -5.76336   3.04495  -5.43995 
 C                    -1   -5.11911   3.86766  -5.1146 
 H                    0    -5.66316   4.80945  -5.25871 
 C                    0    -4.68381   3.66246  -3.66731 
 H                    0    -5.55921   3.70614  -3.003 
 H                    0    -4.28806   2.64754  -3.57683 
 C                    0    -3.62492   4.64208  -3.14634 
 H                    0    -2.74181   4.56329  -3.79847 
 C                    0    -4.11056   6.09306  -3.18341 
 H                    0    -5.0277    6.2074   -2.58948 
 H                    0    -3.3571    6.76617  -2.75973 
 H                    0    -4.3245    6.42801  -4.20465 
 C                    0    -3.20278   4.24864  -1.72959 
 H                    0    -2.86779   3.20592  -1.69852 
 H                    0    -2.38912   4.87889  -1.35416 
 H                    0    -4.04822   4.34417  -1.03524 
 H                    0    -4.24859   3.88655  -5.78145 
 H                    0     0.34957   4.11801  -6.23163 
 C                    -1    1.16972   4.71539  -5.8161 
 H                    0     0.74207   5.64604  -5.42226 
 C                    0     1.91468   3.94774  -4.72656 
 H                    0     2.33499   3.04427  -5.1818 
 C                    0     3.06849   4.78673  -4.17775 
 H                    0     2.67639   5.71366  -3.74246 
 H                    0     3.63439   4.24224  -3.41313 
 H                    0     3.76228   5.0709   -4.98113 
 C                    0     0.97729   3.50912  -3.59866 
 H                    0     0.14617   2.90732  -3.98575 
 H                    0     1.51204   2.89929  -2.86075 
 H                    0     0.5531    4.37433  -3.07165 
 H                    0     1.8419    4.98737  -6.63809 
 H                    0     7.21565   2.74061  -5.05438 
 C                    -1    7.40624   3.52664  -4.31519 
 H                    0     6.53273   4.18402  -4.29179 
 C                    0     7.6526    2.92606  -2.93254 
 H                    0     8.49567   2.22873  -2.94224 
 H                    0     7.87459   3.71406  -2.20235 
 C                    0     6.41056   2.21124  -2.45224 
 O                    0     5.29972   2.6991   -2.55063 
 O                    0     6.64156   1.0044   -1.96088 
 H                    0     5.75843   0.55824  -1.78484 
 H                    0     8.27269   4.10169  -4.65738 
 H                    0     12.74092   2.99479  -2.88816 
 C                    -1    13.42835   2.16784  -2.67475 
 H                    0     13.67454   2.20643  -1.60747 
 C                    0     12.80335   0.82234  -3.0471 
 H                    0     12.59191   0.79705  -4.12295 
 H                    0     13.52     0.0164   -2.84906 
 C                    0     11.51453   0.54372  -2.27387 
 H                    0     11.70944   0.55813  -1.19448 
 H                    0     10.76762   1.31872  -2.48612 
 S                    0     10.84348  -1.08782  -2.73361 
 C                    0     9.4539   -1.19533  -1.57441 
 H                    0     8.67798  -0.45479  -1.78969 
 H                    0     9.01984  -2.19382  -1.68154 
 H                    0     9.81408  -1.06318  -0.54824 
 H                    0     14.34911   2.34294  -3.24006 
 H                    0     11.99503   2.88894   1.83944 
 C                    -1    11.12501   2.95582   1.17828 
 H                    0     11.48978   3.07517   0.14976 
 C                    0     10.24099   1.71182   1.29654 
 H                    0     10.82864   0.82208   1.02796 
 H                    0     9.92459   1.57029   2.33636 
 C                    0     9.00392   1.75132   0.3966 
 H                    0     9.29309   2.02289  -0.6252 
 H                    0     8.54032   0.76382   0.33712 
 S                    0     7.68676   2.90541   0.93173 
 C                    0     6.46426   1.70231   1.54045 
 H                    0     6.87015   1.11848   2.36907 
 H                    0     5.57809   2.23421   1.90016 
 H                    0     6.16263   1.02871   0.73339 
 H                    0     10.56434   3.85813   1.44607 
 H                    0     6.43413   5.89799  -0.3341 
 C                    -1    5.5549    5.73112  -0.96303 
 H                    0     5.88777   5.26342  -1.89584 
 C                    0     4.57046   4.80129  -0.24788 
 H                    0     4.17951   5.26016   0.66326 
 H                    0     3.72767   4.54387  -0.89799 
 H                    0     5.06295   3.86416   0.02082 
 C                    0     4.94034   7.095    -1.22365 
 O                    0     4.822     7.94727  -0.35322 
 N                    0     4.48365   7.299    -2.50135 
 H                    0     4.6755    6.57504  -3.17917 
 C                    -1    4.26807   8.63529  -3.02988 
 H                    0     4.38564   9.30532  -2.1731 
 C                    0     5.32194   8.95947  -4.10522 
 H                    0     5.07632   8.38531  -5.00493 
 H                    0     5.23051   10.01742  -4.37636 
 C                    0     6.71173   8.63661  -3.61608 
 C                    0     7.33198   7.43394  -3.95313 
 H                    0     6.84722   6.75662  -4.6532 
 C                    0     8.55954   7.07061  -3.40621 
 H                    0     9.01938   6.12343  -3.68142 
 C                    0     9.19332   7.92121  -2.50316 
 O                    0     10.39306   7.6253   -1.92908 
 H                    0     10.65392   6.73474  -2.19134 
 C                    0     8.59694   9.13518  -2.16284 
 H                    0     9.09817   9.7868   -1.45503 
 C                    0     7.37087   9.47725  -2.71421 
 H                    0     6.90337   10.41415  -2.42104 
 C                    0     2.84493   8.75987  -3.59338 
 O                    0     2.59491   8.55309  -4.77281 
 N                    0     1.90996   9.12237  -2.67537 
 H                    0     2.17228   9.02354  -1.70206 
 C                    -1    0.48889   9.01793  -2.97255 
 H                    0     0.34341   9.34268  -4.00461 
 C                    0    -0.02458   7.5757   -2.78843 
 H                    0    -1.09576   7.55256  -3.02582 
 H                    0     0.47275   6.95344  -3.54148 
 C                    0     0.2097    7.00097  -1.41972 
 C                    0     1.34611   6.35955  -0.984 
 H                    0     2.2589    6.16228  -1.52837 
 N                    0     1.20622   5.95026   0.31478 
 H                    0     1.85708   5.40669   0.88893 
 C                    0    -0.04095   6.30446   0.75129 
 C                    0    -0.64593   6.05804   1.98789 
 H                    0    -0.1072    5.51285   2.75763 
 C                    0    -1.93515   6.52838   2.16517 
 H                    0    -2.44363   6.34937   3.1083 
 C                    0    -2.6075    7.22461   1.1388 
 H                    0    -3.62013   7.5772    1.31345 
 C                    0    -2.00387   7.45748  -0.08473 
 H                    0    -2.53662   7.99108  -0.86819 
 C                    0    -0.69854   6.98521  -0.30269 
 H                    0    -0.04453   9.70419  -2.30714 
 H                    0    -7.52527   8.5915   -4.99143 
 C                    -1   -7.76126   7.55331  -4.73575 
 H                    0    -6.81422   7.044    -4.53019 
 C                    0    -8.71021   7.48778  -3.53909 
 H                    0    -8.20652   7.88966  -2.64817 
 H                    0    -9.57291   8.14141  -3.72681 
 C                    0    -9.22752   6.07739  -3.22166 
 H                    0    -9.74408   5.70781  -4.12105 
 C                    0    -8.08385   5.11263  -2.90344 
 H                    0    -7.49903   5.46854  -2.04566 
 H                    0    -8.45974   4.11436  -2.65624 
 H                    0    -7.40133   4.99425  -3.7489 
 C                    0    -10.24443   6.11744  -2.07665 
 H                    0    -11.04874   6.83355  -2.2844 
 H                    0    -10.70651   5.1357   -1.91938 
 H                    0    -9.76164   6.41285  -1.1363 
 H                    0    -8.20968   7.08352  -5.61935 
 O                    0     1.22777   0.95054   3.5515 
 H                    0     0.82095   1.546     4.192 
 H                    0     1.99703   1.48373   3.21171 
 O                    0     0.3328   -1.56855   4.46979 
 H                    0    -0.39236  -1.76915   3.86401 
 H                    0     0.7246   -0.73335   4.13471 
 O                    0    -0.32688   0.56087   8.49793 
 H                    0     0.0777   -0.32492   8.47734 
 H                    0     0.33059   1.13919   8.08534 
 O                    0    -5.42943  -4.08444   5.97191 
 H                    0    -5.12168  -3.62467   6.76886 
 H                    0    -5.67179  -3.36964   5.36104 
 O                    0    -5.42296  -1.92586   4.03356 
 H                    0    -5.32591  -1.04545   4.42337 
 H                    0    -4.50371  -2.24936   3.93065 
 O                    0    -9.96085  -1.40649   2.84475 
 H                    0    -9.11078  -1.07538   3.15779 
 H                    0    -10.57448  -0.64535   2.88518 
 C                    0     3.40519  -0.30269  -1.08401 
 O                    0     4.48294  -0.42013  -1.68061 
 C                    0     2.8189    0.98983  -0.81571 
 C                    0     1.6384    1.14441  -0.17119 
 C                    0     0.83495  -0.04653   0.31886 
 C                    0     1.18648  -1.3117   -0.47262 
 C                    0     2.68719  -1.52952  -0.59411 
 C                    0     1.16217   2.52453   0.15719 
 C                    0    -0.35465   2.68178   0.15157 
 C                    0    -1.00329   1.57949   0.985 
 C                    0    -0.68844   0.21575   0.3327 
 C                    0    -2.50731   1.74941   1.12303 
 C                    0    -3.17807   0.62072   1.92937 
 C                    0    -2.94368  -0.70436   1.20024 
 C                    0    -1.44585  -0.96233   0.97783 
 C                    0    -3.05757   3.03557   1.7573 
 C                    0    -4.50034   2.65063   2.18156 
 C                    0    -4.6287    1.14244   1.89377 
 C                    0    -2.67525   0.52785   3.3792 
 O                    0    -5.54641   0.53938   2.79529 
 H                    0     3.39545   1.85655  -1.13179 
 H                    0     1.13668  -0.18413   1.37077 
 H                    0     0.75029  -1.22783  -1.47754 
 H                    0     0.73392  -2.1907   -0.0049 
 H                    0     3.1291   -1.77099   0.38246 
 H                    0     2.93263  -2.36573  -1.25511 
 H                    0     1.63492   3.24638  -0.51681 
 H                    0     1.54316   2.77258   1.15898 
 H                    0    -0.74058   2.64272  -0.87721 
 H                    0    -0.61006   3.66939   0.54688 
 H                    0    -0.54065   1.60058   1.98105 
 H                    0    -1.01916   0.28684  -0.71616 
 H                    0    -2.93284   1.69028   0.10713 
 H                    0    -3.45536  -0.67387   0.22749 
 H                    0    -3.37175  -1.54705   1.75954 
 H                    0    -0.96524  -1.20288   1.93568 
 H                    0    -1.34084  -1.85986   0.35669 
 H                    0    -3.03093   3.88376   1.06912 
 H                    0    -2.45096   3.3239    2.62407 
 H                    0    -5.25927   3.21807   1.63476 
 H                    0    -4.67438   2.82656   3.24833 
 H                    0    -4.99763   1.0077    0.86799 
 H                    0    -2.88219   1.43821   3.94953 
 H                    0    -3.16777  -0.305     3.88823 
 H                    0    -1.59822   0.34316   3.43448 
 H                    0    -5.55389  -0.41414   2.61883 
 
 Stoichiometry    C190H328N19O32S5(1-)
 Framework group  C1[X(C190H328N19O32S5)]
 Deg. of freedom  1716
 Full point group                 C1      NOp   1
 Largest Abelian subgroup         C1      NOp   1
 Largest concise Abelian subgroup C1      NOp   1
                         Standard orientation:                         
 ---------------------------------------------------------------------
 Center     Atomic      Atomic             Coordinates (Angstroms)
 Number     Number       Type             X           Y           Z
 ---------------------------------------------------------------------
      1          1           0        8.392721   -7.599375   -3.880393
      2          6           0        7.847747   -7.040623   -3.108055
      3          1           0        7.923719   -7.610533   -2.178389
      4          6           0        8.503366   -5.657527   -2.927094
      5          1           0        9.530101   -5.819987   -2.578597
      6          1           0        8.598060   -5.156704   -3.899271
      7          6           0        7.770099   -4.738434   -1.976902
      8          6           0        7.935555   -4.789613   -0.593949
      9          1           0        8.615124   -5.518615   -0.155736
     10          6           0        7.241657   -3.923223    0.258359
     11          1           0        7.361638   -4.014838    1.335678
     12          6           0        6.357230   -2.979754   -0.275097
     13          8           0        5.648667   -2.103377    0.464746
     14          1           0        5.970280   -2.014385    1.381021
     15          6           0        6.173235   -2.928135   -1.661096
     16          1           0        5.491256   -2.184151   -2.055869
     17          6           0        6.867911   -3.795102   -2.481763
     18          1           0        6.710826   -3.731506   -3.554738
     19          6           0        6.365577   -7.040974   -3.457526
     20          8           0        5.554908   -7.704877   -2.823935
     21          7           0        5.995967   -6.294422   -4.528032
     22          1           0        6.686302   -5.762081   -5.034140
     23          6           0        4.605507   -6.209738   -4.933011
     24          1           0        4.004009   -5.911884   -4.065817
     25          6           0        4.392089   -5.229166   -6.092195
     26          1           0        5.032111   -5.558881   -6.925080
     27          6           0        2.937766   -5.327281   -6.561752
     28          1           0        2.246054   -5.125246   -5.737635
     29          1           0        2.733923   -4.600396   -7.355373
     30          1           0        2.712245   -6.327652   -6.948254
     31          6           0        4.785590   -3.773724   -5.770428
     32          1           0        5.863310   -3.719764   -5.564330
     33          1           0        4.647967   -3.173128   -6.677968
     34          6           0        4.022520   -3.115163   -4.622554
     35          1           0        4.179068   -3.644294   -3.677066
     36          1           0        4.353377   -2.080173   -4.486864
     37          1           0        2.946032   -3.077643   -4.818732
     38          1           0        4.255939   -7.208290   -5.224869
     39          1           0        2.821075   -8.059299   -1.126186
     40          6           0        2.013018   -7.384201   -0.825060
     41          1           0        2.054524   -7.267717    0.266107
     42          6           0        2.162707   -6.023290   -1.513656
     43          1           0        2.120304   -6.192835   -2.600516
     44          6           0        1.018738   -5.078130   -1.138034
     45          1           0        1.053787   -4.842634   -0.066496
     46          1           0        1.085715   -4.132164   -1.688775
     47          1           0        0.037338   -5.522045   -1.344955
     48          6           0        3.517773   -5.391221   -1.188775
     49          1           0        4.344335   -6.060026   -1.448242
     50          1           0        3.658944   -4.453310   -1.736332
     51          1           0        3.589356   -5.151083   -0.120115
     52          1           0        1.053318   -7.853863   -1.073425
     53          1           0        7.205745   -9.322705    3.399444
     54          6           0        7.864757   -8.454502    3.286722
     55          1           0        8.320390   -8.508520    2.289592
     56          6           0        7.090273   -7.140893    3.452886
     57          1           0        6.634114   -7.141992    4.454873
     58          6           0        8.042775   -5.946528    3.370455
     59          1           0        8.530837   -5.907941    2.388369
     60          1           0        7.515912   -4.999666    3.522699
     61          1           0        8.835914   -6.007641    4.124424
     62          6           0        5.950562   -7.036885    2.425857
     63          1           0        6.380173   -6.923096    1.420025
     64          1           0        5.401163   -7.987815    2.416276
     65          6           0        4.958252   -5.902586    2.686740
     66          1           0        5.413718   -4.912290    2.582177
     67          1           0        4.123717   -5.952433    1.980417
     68          1           0        4.543937   -5.963907    3.700196
     69          1           0        8.668886   -8.538011    4.027028
     70          1           0       14.278273   -4.478641    3.816776
     71          6           0       13.781457   -4.837618    4.724173
     72          1           0       13.659831   -3.981455    5.396357
     73          6           0       12.424035   -5.464635    4.386604
     74          1           0       12.573712   -6.333812    3.735831
     75          1           0       11.960099   -5.842044    5.306380
     76          6           0       11.490280   -4.485674    3.714862
     77          6           0       11.275058   -4.510724    2.337373
     78          1           0       11.772721   -5.263963    1.731501
     79          6           0       10.428841   -3.597591    1.714925
     80          1           0       10.264101   -3.636889    0.641784
     81          6           0        9.777528   -2.641075    2.485911
     82          8           0        8.903574   -1.732479    1.945142
     83          1           0        8.640114   -2.024591    1.057085
     84          6           0        9.995916   -2.575539    3.859754
     85          1           0        9.502750   -1.803257    4.443550
     86          6           0       10.843550   -3.496269    4.460495
     87          1           0       11.001421   -3.447407    5.535452
     88          1           0       14.440355   -5.563101    5.212980
     89          1           0        5.048903    6.513997    4.299045
     90          6           0        4.271543    6.066701    3.664829
     91          1           0        4.432792    6.451124    2.655817
     92          6           0        4.414824    4.545968    3.679752
     93          1           0        5.378101    4.259102    3.239018
     94          1           0        4.424194    4.174597    4.708941
     95          6           0        3.297947    3.803053    2.925378
     96          8           0        2.437210    4.485580    2.323113
     97          8           0        3.339971    2.539122    2.978350
     98          6           0        2.930347    6.509724    4.228341
     99          8           0        2.415243    5.944750    5.192975
    100          7           0        2.363707    7.610105    3.675234
    101          6           0        1.131205    8.160581    4.232305
    102          1           0        1.227722    8.281681    5.315165
    103          1           0        0.293183    7.479870    4.047113
    104          6           0        0.954062    9.482533    3.480662
    105          1           0        1.480043   10.289275    4.005900
    106          1           0       -0.097999    9.765101    3.388047
    107          6           0        1.619161    9.211215    2.126185
    108          1           0        1.922668   10.122373    1.602462
    109          1           0        0.931765    8.655798    1.479711
    110          6           0        2.817435    8.326106    2.483054
    111          1           0        3.061773    7.642508    1.667033
    112          1           0        3.711711    8.926464    2.698410
    113          1           0        3.041565   -1.734993   10.687375
    114          6           0        2.667382   -1.103420    9.870799
    115          1           0        1.909024   -0.442883   10.301694
    116          6           0        3.821588   -0.273977    9.286320
    117          1           0        4.303592    0.246768   10.121851
    118          1           0        4.593732   -0.925774    8.857614
    119          6           0        3.376674    0.735206    8.252646
    120          6           0        2.647342    1.861868    8.650912
    121          1           0        2.390442    1.990411    9.701071
    122          6           0        2.270831    2.826850    7.720243
    123          1           0        1.730199    3.712777    8.040923
    124          6           0        2.620167    2.679930    6.377392
    125          1           0        2.370420    3.466649    5.669701
    126          6           0        3.332719    1.554478    5.970098
    127          1           0        3.616745    1.465173    4.925955
    128          6           0        3.698515    0.585481    6.903758
    129          1           0        4.257852   -0.289194    6.575763
    130          6           0        1.956545   -2.011064    8.888068
    131          8           0        0.720075   -2.022853    8.780771
    132          7           0        2.716884   -2.856862    8.179579
    133          1           0        3.721585   -2.763151    8.201242
    134          6           0        2.126674   -3.784475    7.234397
    135          1           0        1.453336   -3.231003    6.569507
    136          6           0        3.194944   -4.514808    6.425998
    137          1           0        3.824148   -5.109621    7.101069
    138          1           0        2.674456   -5.232436    5.779552
    139          6           0        4.065292   -3.611951    5.578228
    140          6           0        5.454208   -3.697555    5.640817
    141          1           0        5.921300   -4.395645    6.332403
    142          6           0        6.269113   -2.934530    4.804233
    143          1           0        7.350956   -3.033674    4.849018
    144          6           0        5.678207   -2.070968    3.889822
    145          8           0        6.393663   -1.341542    2.983224
    146          1           0        7.351354   -1.517231    3.008137
    147          6           0        4.289422   -1.933932    3.842573
    148          1           0        3.850109   -1.222947    3.149524
    149          6           0        3.493023   -2.704758    4.674423
    150          1           0        2.411993   -2.590331    4.606594
    151          1           0        1.512697   -4.509443    7.781640
    152          1           0       -1.470541   -3.444661    9.939157
    153          6           0       -2.409415   -2.878532    9.975102
    154          1           0       -3.125099   -3.428034   10.589977
    155          6           0       -2.128388   -1.474653   10.554224
    156          1           0       -1.811759   -0.810364    9.744608
    157          1           0       -3.056216   -1.054425   10.957016
    158          6           0       -1.044052   -1.512923   11.636391
    159          1           0       -1.337874   -2.171132   12.458625
    160          1           0       -0.127748   -1.913415   11.184945
    161          6           0       -0.726980   -0.158435   12.259740
    162          8           0       -0.837435    0.044352   13.459914
    163          7           0       -0.264652    0.794148   11.399125
    164          1           0       -0.168712    1.719872   11.790741
    165          1           0       -0.342756    0.721674   10.381267
    166          6           0       -2.972199   -2.762112    8.567226
    167          8           0       -4.171843   -2.821103    8.323414
    168          7           0       -2.034420   -2.550902    7.594422
    169          1           0       -1.067071   -2.423278    7.879630
    170          6           0       -2.400781   -2.124541    6.258340
    171          1           0       -3.348987   -1.578854    6.295218
    172          1           0       -1.626288   -1.455608    5.872919
    173          6           0       -2.581478   -3.238725    5.243353
    174          8           0       -2.851375   -2.944122    4.069181
    175          7           0       -2.415191   -4.487609    5.680794
    176          1           0       -2.256597   -4.589773    6.672274
    177          6           0       -2.764329   -5.656334    4.893363
    178          1           0       -3.469074   -5.329853    4.125903
    179          6           0       -1.524600   -6.322976    4.280688
    180          1           0       -0.893692   -6.695520    5.100816
    181          1           0       -1.850388   -7.207559    3.714427
    182          6           0       -0.668888   -5.422686    3.371155
    183          1           0       -0.453120   -4.496216    3.919967
    184          6           0        0.671466   -6.096216    3.059569
    185          1           0        0.522709   -7.023612    2.491070
    186          1           0        1.311551   -5.437993    2.460900
    187          1           0        1.218721   -6.350760    3.975740
    188          6           0       -1.391130   -5.044954    2.075289
    189          1           0       -2.319377   -4.507421    2.280770
    190          1           0       -0.764068   -4.388529    1.460924
    191          1           0       -1.619479   -5.938930    1.479439
    192          1           0       -3.299862   -6.352510    5.543740
    193          1           0       -6.487972   -6.465460    0.258273
    194          6           0       -5.963597   -5.780066   -0.414023
    195          1           0       -6.664731   -5.015859   -0.767374
    196          6           0       -4.810460   -5.089793    0.359574
    197          1           0       -4.084503   -5.867069    0.635619
    198          6           0       -4.095138   -4.025944   -0.480134
    199          1           0       -4.802086   -3.260914   -0.824558
    200          1           0       -3.323563   -3.530650    0.119790
    201          1           0       -3.612442   -4.442050   -1.369548
    202          6           0       -5.359582   -4.471786    1.647888
    203          1           0       -5.849872   -5.217978    2.283135
    204          1           0       -4.557127   -4.011264    2.233423
    205          1           0       -6.091625   -3.686212    1.425644
    206          6           0       -5.466201   -6.600210   -1.580764
    207          8           0       -5.122462   -7.791898   -1.425089
    208          7           0       -5.399182   -5.976289   -2.765012
    209          1           0       -5.705727   -5.000606   -2.811945
    210          6           0       -4.696145   -6.506861   -3.921440
    211          1           0       -4.164931   -7.401814   -3.588154
    212          6           0       -5.628198   -6.804233   -5.119512
    213          1           0       -5.771031   -5.924321   -5.762285
    214          1           0       -5.145825   -7.560024   -5.754944
    215          6           0       -7.051188   -7.223866   -4.767411
    216          1           0       -7.531811   -6.425900   -4.192270
    217          1           0       -7.597026   -7.259834   -5.716789
    218          6           0       -7.198921   -8.510741   -3.962885
    219          1           0       -6.808526   -8.412046   -2.949796
    220          1           0       -8.253176   -8.791344   -3.875905
    221          7           0       -6.505375   -9.634666   -4.608569
    222          1           0       -6.769925   -9.801012   -5.570487
    223          6           0       -5.427600  -10.266645   -4.163688
    224          7           0       -4.794417   -9.921975   -3.049979
    225          1           0       -4.977298   -9.050196   -2.495954
    226          1           0       -4.141637  -10.575873   -2.645696
    227          7           0       -4.973600  -11.344331   -4.856754
    228          1           0       -5.448858  -11.634072   -5.697007
    229          1           0       -3.997438  -11.587227   -4.795614
    230          6           0       -3.692915   -5.441336   -4.340032
    231          8           0       -3.844213   -4.266391   -4.024257
    232          7           0       -2.670713   -5.860245   -5.107754
    233          1           0       -2.561771   -6.844917   -5.292563
    234          6           0       -1.650797   -4.935112   -5.554876
    235          1           0       -2.109764   -3.946792   -5.589133
    236          6           0       -0.429561   -4.924142   -4.637074
    237          1           0        0.096921   -5.885140   -4.658214
    238          1           0        0.272045   -4.141959   -4.945059
    239          1           0       -0.726551   -4.721761   -3.604437
    240          1           0       -1.364984   -5.200980   -6.577802
    241          1           0        8.822457    2.157716   -9.129037
    242          6           0        7.913206    1.640721   -9.456066
    243          1           0        7.983706    1.486846  -10.537519
    244          6           0        7.744784    0.307493   -8.723921
    245          1           0        6.849667   -0.207981   -9.093222
    246          1           0        8.597449   -0.345188   -8.947462
    247          6           0        7.631458    0.480969   -7.209293
    248          1           0        8.507249    1.016052   -6.821441
    249          1           0        6.740885    1.072223   -6.963265
    250         16           0        7.520802   -1.142177   -6.389519
    251          6           0        7.392352   -0.611858   -4.661232
    252          1           0        6.441487   -0.112123   -4.466210
    253          1           0        7.445085   -1.504088   -4.033117
    254          1           0        8.229205    0.038334   -4.388701
    255          1           0        7.063397    2.306016   -9.265785
    256          1           0        2.347870    1.042154   -9.132056
    257          6           0        1.573304    0.284228   -8.974409
    258          1           0        1.250641   -0.086825   -9.953316
    259          6           0        2.103076   -0.856575   -8.092876
    260          1           0        1.322343   -1.616826   -7.969549
    261          1           0        2.945644   -1.346679   -8.597369
    262          6           0        2.541265   -0.344657   -6.741421
    263          6           0        1.702069   -0.426527   -5.627650
    264          1           0        0.742708   -0.933005   -5.718839
    265          6           0        2.069364    0.145875   -4.412536
    266          1           0        1.402388    0.090577   -3.555747
    267          6           0        3.278145    0.824657   -4.300896
    268          1           0        3.563484    1.310079   -3.376653
    269          6           0        4.124301    0.906552   -5.402506
    270          1           0        5.053258    1.463894   -5.316646
    271          6           0        3.765829    0.315263   -6.608210
    272          1           0        4.431490    0.381992   -7.467157
    273          1           0        0.721164    0.776164   -8.494414
    274          1           0       -3.122343   -0.414588   -5.387632
    275          6           0       -3.605764   -1.191731   -4.786380
    276          1           0       -3.356171   -2.169155   -5.207413
    277          6           0       -3.107587   -1.117879   -3.326694
    278          1           0       -3.783376   -1.728565   -2.713775
    279          6           0       -1.705202   -1.705489   -3.191224
    280          1           0       -0.978004   -1.142027   -3.792211
    281          1           0       -1.374734   -1.672698   -2.146911
    282          1           0       -1.694877   -2.749296   -3.514664
    283          6           0       -3.151918    0.317329   -2.810265
    284          1           0       -4.142204    0.752578   -2.953849
    285          1           0       -2.921882    0.362252   -1.742209
    286          1           0       -2.426281    0.947248   -3.342638
    287          6           0       -5.109191   -0.980261   -4.868610
    288          8           0       -5.622357    0.110199   -5.109872
    289          7           0       -5.817037   -2.107096   -4.615303
    290          1           0       -5.301508   -2.941825   -4.355956
    291          6           0       -7.254921   -2.167853   -4.495881
    292          1           0       -7.641710   -1.177926   -4.751082
    293          6           0       -7.839135   -3.270683   -5.406559
    294          1           0       -7.425369   -4.228522   -5.069884
    295          1           0       -8.923956   -3.321434   -5.238137
    296          6           0       -7.544579   -3.149739   -6.896543
    297          1           0       -8.139212   -2.355925   -7.359083
    298          1           0       -6.483846   -2.897706   -7.028375
    299          6           0       -7.809339   -4.504714   -7.633009
    300          8           0       -7.253037   -5.511543   -7.096897
    301          8           0       -8.513148   -4.471564   -8.650970
    302          6           0       -7.599461   -2.558234   -3.070286
    303          8           0       -6.980363   -3.446810   -2.473895
    304          7           0       -8.649424   -1.918431   -2.534111
    305          1           0       -9.244905   -1.337736   -3.109987
    306          6           0       -9.117923   -2.166412   -1.196711
    307          1           0       -9.299884   -3.246408   -1.080142
    308          6           0       -8.087525   -1.771350   -0.121921
    309          1           0       -8.483011   -2.047259    0.862009
    310          1           0       -7.207683   -2.401537   -0.277614
    311          6           0       -7.660244   -0.298637   -0.099756
    312          1           0       -8.506894    0.370306   -0.289943
    313          1           0       -7.275048   -0.047572    0.893965
    314         16           0       -6.323463    0.101309   -1.288337
    315          6           0       -7.184229    1.127927   -2.504127
    316          1           0       -7.371675    2.131952   -2.114306
    317          1           0       -6.550402    1.178955   -3.393136
    318          1           0       -8.131413    0.660619   -2.781724
    319          6           0      -10.490860   -1.502307   -1.075974
    320          8           0      -11.146574   -1.230861   -2.079050
    321          7           0      -10.931307   -1.314987    0.183632
    322          1           0      -10.349218   -1.520727    0.997713
    323          6           0      -12.294287   -0.925437    0.455876
    324          1           0      -12.785400   -0.834476   -0.517703
    325          6           0      -13.032796   -1.993156    1.292970
    326          1           0      -12.489465   -2.095451    2.240703
    327          6           0      -14.465699   -1.548775    1.597141
    328          1           0      -15.025654   -1.371576    0.670110
    329          1           0      -14.991925   -2.325098    2.161831
    330          1           0      -14.490563   -0.630666    2.192485
    331          6           0      -13.016601   -3.340322    0.570135
    332          1           0      -11.994647   -3.687429    0.393241
    333          1           0      -13.530498   -4.099800    1.168638
    334          1           0      -13.523821   -3.270851   -0.400015
    335          6           0      -12.330400    0.418282    1.179302
    336          8           0      -11.856349    0.567683    2.309508
    337          7           0      -12.982055    1.402188    0.532301
    338          1           0      -13.147301    1.285833   -0.456270
    339          6           0      -13.122525    2.725360    1.104573
    340          1           0      -13.417838    2.598879    2.149686
    341          6           0      -11.844113    3.578553    1.034537
    342          1           0      -10.999829    2.949157    1.340846
    343          1           0      -11.668516    3.881670   -0.001243
    344          6           0      -11.924880    4.780751    1.918759
    345          6           0      -12.013463    6.091078    1.546402
    346          1           0      -12.024758    6.523168    0.554543
    347          7           0      -12.085302    6.896509    2.664918
    348          1           0      -12.104500    7.901684    2.656531
    349          6           0      -12.031075    6.107826    3.791681
    350          6           0      -12.054577    6.450878    5.146194
    351          1           0      -12.125351    7.486284    5.467506
    352          6           0      -11.977991    5.417686    6.065137
    353          1           0      -11.989873    5.648846    7.126335
    354          6           0      -11.878938    4.074716    5.653439
    355          1           0      -11.814582    3.293279    6.404580
    356          6           0      -11.855749    3.738748    4.311008
    357          1           0      -11.773507    2.702394    3.991534
    358          6           0      -11.934357    4.766841    3.359481
    359          1           0      -13.943843    3.232286    0.590292
    360          1           0      -12.607188    2.012231   -4.108650
    361          6           0      -11.631917    1.603451   -4.391294
    362          1           0      -11.515383    1.705634   -5.474777
    363          6           0      -10.505237    2.338149   -3.675542
    364          1           0       -9.527967    1.987790   -4.019887
    365          1           0      -10.565638    3.414296   -3.860338
    366         16           0      -10.665382    2.037340   -1.879475
    367          1           0       -9.868557    3.030634   -1.452745
    368          1           0      -11.622935    0.536789   -4.145184
    369          1           0       -5.763358    3.044948   -5.439946
    370          6           0       -5.119112    3.867660   -5.114601
    371          1           0       -5.663164    4.809450   -5.258706
    372          6           0       -4.683811    3.662460   -3.667312
    373          1           0       -5.559213    3.706137   -3.002999
    374          1           0       -4.288056    2.647542   -3.576833
    375          6           0       -3.624919    4.642078   -3.146342
    376          1           0       -2.741806    4.563288   -3.798465
    377          6           0       -4.110556    6.093062   -3.183407
    378          1           0       -5.027697    6.207396   -2.589478
    379          1           0       -3.357104    6.766173   -2.759732
    380          1           0       -4.324497    6.428011   -4.204653
    381          6           0       -3.202784    4.248644   -1.729588
    382          1           0       -2.867790    3.205915   -1.698520
    383          1           0       -2.389123    4.878886   -1.354157
    384          1           0       -4.048221    4.344169   -1.035244
    385          1           0       -4.248585    3.886553   -5.781451
    386          1           0        0.349574    4.118014   -6.231625
    387          6           0        1.169724    4.715386   -5.816096
    388          1           0        0.742070    5.646043   -5.422258
    389          6           0        1.914680    3.947740   -4.726555
    390          1           0        2.334989    3.044268   -5.181804
    391          6           0        3.068495    4.786733   -4.177749
    392          1           0        2.676392    5.713656   -3.742464
    393          1           0        3.634394    4.242239   -3.413128
    394          1           0        3.762281    5.070900   -4.981130
    395          6           0        0.977291    3.509115   -3.598657
    396          1           0        0.146170    2.907318   -3.985748
    397          1           0        1.512037    2.899291   -2.860746
    398          1           0        0.553096    4.374330   -3.071645
    399          1           0        1.841897    4.987372   -6.638095
    400          1           0        7.215651    2.740610   -5.054385
    401          6           0        7.406236    3.526642   -4.315185
    402          1           0        6.532732    4.184021   -4.291794
    403          6           0        7.652602    2.926057   -2.932543
    404          1           0        8.495666    2.228735   -2.942243
    405          1           0        7.874593    3.714063   -2.202346
    406          6           0        6.410562    2.211244   -2.452244
    407          8           0        5.299721    2.699101   -2.550629
    408          8           0        6.641563    1.004403   -1.960883
    409          1           0        5.758430    0.558237   -1.784837
    410          1           0        8.272685    4.101692   -4.657379
    411          1           0       12.740921    2.994785   -2.888157
    412          6           0       13.428348    2.167841   -2.674753
    413          1           0       13.674541    2.206432   -1.607465
    414          6           0       12.803347    0.822339   -3.047104
    415          1           0       12.591909    0.797046   -4.122953
    416          1           0       13.520001    0.016397   -2.849061
    417          6           0       11.514532    0.543717   -2.273872
    418          1           0       11.709442    0.558125   -1.194478
    419          1           0       10.767623    1.318722   -2.486119
    420         16           0       10.843479   -1.087816   -2.733605
    421          6           0        9.453904   -1.195332   -1.574413
    422          1           0        8.677982   -0.454788   -1.789690
    423          1           0        9.019840   -2.193820   -1.681537
    424          1           0        9.814076   -1.063177   -0.548237
    425          1           0       14.349113    2.342935   -3.240063
    426          1           0       11.995028    2.888942    1.839444
    427          6           0       11.125013    2.955815    1.178276
    428          1           0       11.489785    3.075166    0.149759
    429          6           0       10.240992    1.711815    1.296539
    430          1           0       10.828636    0.822077    1.027961
    431          1           0        9.924586    1.570286    2.336356
    432          6           0        9.003916    1.751317    0.396598
    433          1           0        9.293088    2.022890   -0.625199
    434          1           0        8.540318    0.763821    0.337120
    435         16           0        7.686763    2.905409    0.931725
    436          6           0        6.464255    1.702305    1.540452
    437          1           0        6.870145    1.118477    2.369072
    438          1           0        5.578092    2.234205    1.900164
    439          1           0        6.162634    1.028710    0.733391
    440          1           0       10.564339    3.858128    1.446068
    441          1           0        6.434127    5.897986   -0.334098
    442          6           0        5.554904    5.731120   -0.963033
    443          1           0        5.887770    5.263424   -1.895842
    444          6           0        4.570459    4.801290   -0.247882
    445          1           0        4.179509    5.260158    0.663262
    446          1           0        3.727665    4.543868   -0.897993
    447          1           0        5.062951    3.864156    0.020818
    448          6           0        4.940340    7.095004   -1.223646
    449          8           0        4.821999    7.947271   -0.353218
    450          7           0        4.483651    7.298996   -2.501346
    451          1           0        4.675496    6.575044   -3.179172
    452          6           0        4.268074    8.635292   -3.029882
    453          1           0        4.385638    9.305318   -2.173103
    454          6           0        5.321938    8.959471   -4.105223
    455          1           0        5.076316    8.385309   -5.004928
    456          1           0        5.230508   10.017425   -4.376357
    457          6           0        6.711732    8.636610   -3.616082
    458          6           0        7.331979    7.433942   -3.953129
    459          1           0        6.847215    6.756618   -4.653202
    460          6           0        8.559539    7.070611   -3.406212
    461          1           0        9.019377    6.123435   -3.681423
    462          6           0        9.193320    7.921213   -2.503156
    463          8           0       10.393059    7.625298   -1.929078
    464          1           0       10.653919    6.734739   -2.191336
    465          6           0        8.596938    9.135178   -2.162840
    466          1           0        9.098170    9.786799   -1.455027
    467          6           0        7.370865    9.477248   -2.714211
    468          1           0        6.903368   10.414149   -2.421039
    469          6           0        2.844934    8.759872   -3.593380
    470          8           0        2.594912    8.553094   -4.772811
    471          7           0        1.909962    9.122366   -2.675373
    472          1           0        2.172281    9.023535   -1.702063
    473          6           0        0.488885    9.017928   -2.972549
    474          1           0        0.343413    9.342684   -4.004614
    475          6           0       -0.024581    7.575701   -2.788425
    476          1           0       -1.095762    7.552560   -3.025823
    477          1           0        0.472746    6.953437   -3.541484
    478          6           0        0.209704    7.000972   -1.419724
    479          6           0        1.346109    6.359553   -0.983999
    480          1           0        2.258896    6.162278   -1.528372
    481          7           0        1.206219    5.950255    0.314783
    482          1           0        1.857082    5.406694    0.888932
    483          6           0       -0.040948    6.304456    0.751291
    484          6           0       -0.645930    6.058045    1.987891
    485          1           0       -0.107204    5.512849    2.757633
    486          6           0       -1.935150    6.528383    2.165170
    487          1           0       -2.443626    6.349365    3.108304
    488          6           0       -2.607501    7.224607    1.138797
    489          1           0       -3.620127    7.577202    1.313453
    490          6           0       -2.003870    7.457476   -0.084726
    491          1           0       -2.536623    7.991077   -0.868187
    492          6           0       -0.698538    6.985213   -0.302686
    493          1           0       -0.044525    9.704188   -2.307141
    494          1           0       -7.525271    8.591504   -4.991428
    495          6           0       -7.761262    7.553312   -4.735748
    496          1           0       -6.814218    7.043997   -4.530192
    497          6           0       -8.710214    7.487776   -3.539087
    498          1           0       -8.206520    7.889657   -2.648169
    499          1           0       -9.572910    8.141410   -3.726814
    500          6           0       -9.227517    6.077386   -3.221662
    501          1           0       -9.744081    5.707814   -4.121054
    502          6           0       -8.083847    5.112631   -2.903443
    503          1           0       -7.499033    5.468536   -2.045659
    504          1           0       -8.459739    4.114361   -2.656244
    505          1           0       -7.401332    4.994248   -3.748896
    506          6           0      -10.244426    6.117444   -2.076648
    507          1           0      -11.048744    6.833547   -2.284401
    508          1           0      -10.706510    5.135700   -1.919381
    509          1           0       -9.761636    6.412850   -1.136304
    510          1           0       -8.209680    7.083520   -5.619345
    511          8           0        1.227770    0.950542    3.551498
    512          1           0        0.820949    1.546003    4.191996
    513          1           0        1.997031    1.483732    3.211708
    514          8           0        0.332800   -1.568546    4.469788
    515          1           0       -0.392359   -1.769152    3.864010
    516          1           0        0.724602   -0.733350    4.134715
    517          8           0       -0.326876    0.560867    8.497929
    518          1           0        0.077702   -0.324922    8.477344
    519          1           0        0.330588    1.139194    8.085343
    520          8           0       -5.429429   -4.084435    5.971906
    521          1           0       -5.121683   -3.624674    6.768865
    522          1           0       -5.671792   -3.369643    5.361043
    523          8           0       -5.422961   -1.925858    4.033564
    524          1           0       -5.325912   -1.045446    4.423369
    525          1           0       -4.503713   -2.249360    3.930647
    526          8           0       -9.960853   -1.406494    2.844748
    527          1           0       -9.110778   -1.075378    3.157788
    528          1           0      -10.574483   -0.645354    2.885178
    529          6           0        3.405193   -0.302689   -1.084009
    530          8           0        4.482944   -0.420134   -1.680607
    531          6           0        2.818898    0.989831   -0.815711
    532          6           0        1.638404    1.144415   -0.171189
    533          6           0        0.834946   -0.046528    0.318857
    534          6           0        1.186475   -1.311699   -0.472620
    535          6           0        2.687186   -1.529522   -0.594106
    536          6           0        1.162172    2.524529    0.157194
    537          6           0       -0.354647    2.681777    0.151574
    538          6           0       -1.003292    1.579493    0.985000
    539          6           0       -0.688439    0.215747    0.332696
    540          6           0       -2.507307    1.749408    1.123030
    541          6           0       -3.178074    0.620717    1.929370
    542          6           0       -2.943679   -0.704355    1.200241
    543          6           0       -1.445847   -0.962330    0.977826
    544          6           0       -3.057567    3.035570    1.757301
    545          6           0       -4.500340    2.650632    2.181561
    546          6           0       -4.628700    1.142438    1.893768
    547          6           0       -2.675247    0.527854    3.379202
    548          8           0       -5.546409    0.539383    2.795290
    549          1           0        3.395445    1.856549   -1.131785
    550          1           0        1.136680   -0.184131    1.370767
    551          1           0        0.750293   -1.227826   -1.477536
    552          1           0        0.733924   -2.190696   -0.004897
    553          1           0        3.129098   -1.770988    0.382459
    554          1           0        2.932627   -2.365728   -1.255112
    555          1           0        1.634916    3.246375   -0.516810
    556          1           0        1.543162    2.772583    1.158982
    557          1           0       -0.740583    2.642715   -0.877212
    558          1           0       -0.610058    3.669394    0.546883
    559          1           0       -0.540647    1.600577    1.981052
    560          1           0       -1.019164    0.286836   -0.716156
    561          1           0       -2.932837    1.690282    0.107133
    562          1           0       -3.455359   -0.673872    0.227489
    563          1           0       -3.371750   -1.547049    1.759535
    564          1           0       -0.965241   -1.202882    1.935675
    565          1           0       -1.340841   -1.859863    0.356688
    566          1           0       -3.030929    3.883761    1.069117
    567          1           0       -2.450957    3.323901    2.624068
    568          1           0       -5.259271    3.218072    1.634764
    569          1           0       -4.674377    2.826564    3.248329
    570          1           0       -4.997634    1.007698    0.867992
    571          1           0       -2.882187    1.438208    3.949526
    572          1           0       -3.167771   -0.305002    3.888233
    573          1           0       -1.598215    0.343163    3.434481
    574          1           0       -5.553887   -0.414141    2.618834
 ---------------------------------------------------------------------
 Rotational constants (GHZ):           0.0034006           0.0022236           0.0021580
 Standard basis: SEC-Garbage* (6D, 7F)
 There are  4366 symmetry adapted cartesian basis functions of A   symmetry.
 There are  4366 symmetry adapted basis functions of A   symmetry.
  4366 basis functions,  8320 primitive gaussians,  4366 cartesian basis functions
   969 alpha electrons      969 beta electrons
       nuclear repulsion energy    103490.8911225578 Hartrees.
 NAtoms=  574 NActive=  574 NUniq=  574 SFac= 1.00D+00 NAtFMM=   60 NAOKFM=T Big=T
 Integral buffers will be    131072 words long.
 Raffenetti 2 integral format.
 Two-electron integral symmetry is turned on.
 Nuclear repulsion after empirical dispersion term =   103490.1220020893 Hartrees.
 One-electron integrals computed using PRISM.
 NBasis=  4366 RedAO= T EigKep=  2.86D-04  NBF=  4366
 NBsUse=  4366 1.00D-06 EigRej= -1.00D+00 NBFU=  4366
 ExpMin= 1.17D-01 ExpMax= 2.19D+04 ExpMxC= 3.30D+03 IAcc=3 IRadAn=         5 AccDes= 0.00D+00
 Harris functional with IExCor= 4639 and IRadAn=       5 diagonalized for initial guess.
 HarFok:  IExCor= 4639 AccDes= 0.00D+00 IRadAn=         5 IDoV= 1 UseB2=F ITyADJ=14
 ICtDFT=  3500011 ScaDFX=  1.000000  1.000000  1.000000  1.000000
 FoFCou: FMM=F IPFlag=           0 FMFlag=      100000 FMFlg1=        2001
         NFxFlg=           0 DoJE=T BraDBF=F KetDBF=T FulRan=T
         wScrn=  0.000000 ICntrl=       500 IOpCl=  0 I1Cent=   200000004 NGrid=           0
[...]
 1\1\GINC-MIKE110\SP\RwB97XD\SEC-Garbage*\C190H328N19O32S5(1-)\ARKANIL\
 01-May-2026\0\\# wb97xd/6-31g(d) prop=efg,read\\None_sub_reg_combined_
 truncated\\-1,1\H,0,8.392721,-7.599375,-3.880393\C,-1,7.847747,-7.0406
 23,-3.108055\H,0,7.923719,-7.610533,-2.178389\C,0,8.503366,-5.657527,-
 2.927094\H,0,9.530101,-5.819987,-2.578597\H,0,8.59806,-5.156704,-3.899
 271\C,0,7.770099,-4.738434,-1.976902\C,0,7.935555,-4.789613,-0.593949\
 H,0,8.615124,-5.518615,-0.155736\C,0,7.241657,-3.923223,0.258359\H,0,7
 .361638,-4.014838,1.335678\C,0,6.35723,-2.979754,-0.275097\O,0,5.64866
 7,-2.103377,0.464746\H,0,5.97028,-2.014385,1.381021\C,0,6.173235,-2.92
 8135,-1.661096\H,0,5.491256,-2.184151,-2.055869\C,0,6.867911,-3.795102
 ,-2.481763\H,0,6.710826,-3.731506,-3.554738\C,0,6.365577,-7.040974,-3.
 457526\O,0,5.554908,-7.704877,-2.823935\N,0,5.995967,-6.294422,-4.5280
 32\H,0,6.686302,-5.762081,-5.03414\C,-1,4.605507,-6.209738,-4.933011\H
 ,0,4.004009,-5.911884,-4.065817\C,0,4.392089,-5.229166,-6.092195\H,0,5
 .032111,-5.558881,-6.92508\C,0,2.937766,-5.327281,-6.561752\H,0,2.2460
 54,-5.125246,-5.737635\H,0,2.733923,-4.600396,-7.355373\H,0,2.712245,-
 6.327652,-6.948254\C,0,4.78559,-3.773724,-5.770428\H,0,5.86331,-3.7197
 64,-5.56433\H,0,4.647967,-3.173128,-6.677968\C,0,4.02252,-3.115163,-4.
 622554\H,0,4.179068,-3.644294,-3.677066\H,0,4.353377,-2.080173,-4.4868
 64\H,0,2.946032,-3.077643,-4.818732\H,0,4.255939,-7.20829,-5.224869\H,
 0,2.821075,-8.059299,-1.126186\C,-1,2.013018,-7.384201,-0.82506\H,0,2.
 054524,-7.267717,0.266107\C,0,2.162707,-6.02329,-1.513656\H,0,2.120304
 ,-6.192835,-2.600516\C,0,1.018738,-5.07813,-1.138034\H,0,1.053787,-4.8
 42634,-0.066496\H,0,1.085715,-4.132164,-1.688775\H,0,0.037338,-5.52204
 5,-1.344955\C,0,3.517773,-5.391221,-1.188775\H,0,4.344335,-6.060026,-1
 .448242\H,0,3.658944,-4.45331,-1.736332\H,0,3.589356,-5.151083,-0.1201
 15\H,0,1.053318,-7.853863,-1.073425\H,0,7.205745,-9.322705,3.399444\C,
 -1,7.864757,-8.454502,3.286722\H,0,8.32039,-8.50852,2.289592\C,0,7.090
 273,-7.140893,3.452886\H,0,6.634114,-7.141992,4.454873\C,0,8.042775,-5
 .946528,3.370455\H,0,8.530837,-5.907941,2.388369\H,0,7.515912,-4.99966
 6,3.522699\H,0,8.835914,-6.007641,4.124424\C,0,5.950562,-7.036885,2.42
 5857\H,0,6.380173,-6.923096,1.420025\H,0,5.401163,-7.987815,2.416276\C
 ,0,4.958252,-5.902586,2.68674\H,0,5.413718,-4.91229,2.582177\H,0,4.123
 717,-5.952433,1.980417\H,0,4.543937,-5.963907,3.700196\H,0,8.668886,-8
 .538011,4.027028\H,0,14.278273,-4.478641,3.816776\C,-1,13.781457,-4.83
 7618,4.724173\H,0,13.659831,-3.981455,5.396357\C,0,12.424035,-5.464635
 ,4.386604\H,0,12.573712,-6.333812,3.735831\H,0,11.960099,-5.842044,5.3
 0638\C,0,11.49028,-4.485674,3.714862\C,0,11.275058,-4.510724,2.337373\
 H,0,11.772721,-5.263963,1.731501\C,0,10.428841,-3.597591,1.714925\H,0,
 10.264101,-3.636889,0.641784\C,0,9.777528,-2.641075,2.485911\O,0,8.903
 574,-1.732479,1.945142\H,0,8.640114,-2.024591,1.057085\C,0,9.995916,-2
 .575539,3.859754\H,0,9.50275,-1.803257,4.44355\C,0,10.84355,-3.496269,
 4.460495\H,0,11.001421,-3.447407,5.535452\H,0,14.440355,-5.563101,5.21
 298\H,0,5.048903,6.513997,4.299045\C,-1,4.271543,6.066701,3.664829\H,0
 ,4.432792,6.451124,2.655817\C,0,4.414824,4.545968,3.679752\H,0,5.37810
 1,4.259102,3.239018\H,0,4.424194,4.174597,4.708941\C,0,3.297947,3.8030
 53,2.925378\O,0,2.43721,4.48558,2.323113\O,0,3.339971,2.539122,2.97835
 \C,0,2.930347,6.509724,4.228341\O,0,2.415243,5.94475,5.192975\N,0,2.36
 3707,7.610105,3.675234\C,0,1.131205,8.160581,4.232305\H,0,1.227722,8.2
 81681,5.315165\H,0,0.293183,7.47987,4.047113\C,0,0.954062,9.482533,3.4
 80662\H,0,1.480043,10.289275,4.0059\H,0,-0.097999,9.765101,3.388047\C,
 0,1.619161,9.211215,2.126185\H,0,1.922668,10.122373,1.602462\H,0,0.931
 765,8.655798,1.479711\C,-1,2.817435,8.326106,2.483054\H,0,3.061773,7.6
 42508,1.667033\H,0,3.711711,8.926464,2.69841\H,0,3.041565,-1.734993,10
 .687375\C,-1,2.667382,-1.10342,9.870799\H,0,1.909024,-0.442883,10.3016
 94\C,0,3.821588,-0.273977,9.28632\H,0,4.303592,0.246768,10.121851\H,0,
 4.593732,-0.925774,8.857614\C,0,3.376674,0.735206,8.252646\C,0,2.64734
 2,1.861868,8.650912\H,0,2.390442,1.990411,9.701071\C,0,2.270831,2.8268
 5,7.720243\H,0,1.730199,3.712777,8.040923\C,0,2.620167,2.67993,6.37739
 2\H,0,2.37042,3.466649,5.669701\C,0,3.332719,1.554478,5.970098\H,0,3.6
 16745,1.465173,4.925955\C,0,3.698515,0.585481,6.903758\H,0,4.257852,-0
 .289194,6.575763\C,0,1.956545,-2.011064,8.888068\O,0,0.720075,-2.02285
 3,8.780771\N,0,2.716884,-2.856862,8.179579\H,0,3.721585,-2.763151,8.20
 1242\C,-1,2.126674,-3.784475,7.234397\H,0,1.453336,-3.231003,6.569507\
 C,0,3.194944,-4.514808,6.425998\H,0,3.824148,-5.109621,7.101069\H,0,2.
 674456,-5.232436,5.779552\C,0,4.065292,-3.611951,5.578228\C,0,5.454208
 ,-3.697555,5.640817\H,0,5.9213,-4.395645,6.332403\C,0,6.269113,-2.9345
 3,4.804233\H,0,7.350956,-3.033674,4.849018\C,0,5.678207,-2.070968,3.88
 9822\O,0,6.393663,-1.341542,2.983224\H,0,7.351354,-1.517231,3.008137\C
 ,0,4.289422,-1.933932,3.842573\H,0,3.850109,-1.222947,3.149524\C,0,3.4
 93023,-2.704758,4.674423\H,0,2.411993,-2.590331,4.606594\H,0,1.512697,
 -4.509443,7.78164\H,0,-1.470541,-3.444661,9.939157\C,-1,-2.409415,-2.8
 78532,9.975102\H,0,-3.125099,-3.428034,10.589977\C,0,-2.128388,-1.4746
 53,10.554224\H,0,-1.811759,-0.810364,9.744608\H,0,-3.056216,-1.054425,
 10.957016\C,0,-1.044052,-1.512923,11.636391\H,0,-1.337874,-2.171132,12
 .458625\H,0,-0.127748,-1.913415,11.184945\C,0,-0.72698,-0.158435,12.25
 974\O,0,-0.837435,0.044352,13.459914\N,0,-0.264652,0.794148,11.399125\
 H,0,-0.168712,1.719872,11.790741\H,0,-0.342756,0.721674,10.381267\C,0,
 -2.972199,-2.762112,8.567226\O,0,-4.171843,-2.821103,8.323414\N,0,-2.0
 3442,-2.550902,7.594422\H,0,-1.067071,-2.423278,7.87963\C,-1,-2.400781
 ,-2.124541,6.25834\H,0,-3.348987,-1.578854,6.295218\H,0,-1.626288,-1.4
 55608,5.872919\C,0,-2.581478,-3.238725,5.243353\O,0,-2.851375,-2.94412
 2,4.069181\N,0,-2.415191,-4.487609,5.680794\H,0,-2.256597,-4.589773,6.
 672274\C,-1,-2.764329,-5.656334,4.893363\H,0,-3.469074,-5.329853,4.125
 903\C,0,-1.5246,-6.322976,4.280688\H,0,-0.893692,-6.69552,5.100816\H,0
 ,-1.850388,-7.207559,3.714427\C,0,-0.668888,-5.422686,3.371155\H,0,-0.
 45312,-4.496216,3.919967\C,0,0.671466,-6.096216,3.059569\H,0,0.522709,
 -7.023612,2.49107\H,0,1.311551,-5.437993,2.4609\H,0,1.218721,-6.35076,
 3.97574\C,0,-1.39113,-5.044954,2.075289\H,0,-2.319377,-4.507421,2.2807
 7\H,0,-0.764068,-4.388529,1.460924\H,0,-1.619479,-5.93893,1.479439\H,0
 ,-3.299862,-6.35251,5.54374\H,0,-6.487972,-6.46546,0.258273\C,-1,-5.96
 3597,-5.780066,-0.414023\H,0,-6.664731,-5.015859,-0.767374\C,0,-4.8104
 6,-5.089793,0.359574\H,0,-4.084503,-5.867069,0.635619\C,0,-4.095138,-4
 .025944,-0.480134\H,0,-4.802086,-3.260914,-0.824558\H,0,-3.323563,-3.5
 3065,0.11979\H,0,-3.612442,-4.44205,-1.369548\C,0,-5.359582,-4.471786,
 1.647888\H,0,-5.849872,-5.217978,2.283135\H,0,-4.557127,-4.011264,2.23
 3423\H,0,-6.091625,-3.686212,1.425644\C,0,-5.466201,-6.60021,-1.580764
 \O,0,-5.122462,-7.791898,-1.425089\N,0,-5.399182,-5.976289,-2.765012\H
 ,0,-5.705727,-5.000606,-2.811945\C,-1,-4.696145,-6.506861,-3.92144\H,0
 ,-4.164931,-7.401814,-3.588154\C,0,-5.628198,-6.804233,-5.119512\H,0,-
 5.771031,-5.924321,-5.762285\H,0,-5.145825,-7.560024,-5.754944\C,0,-7.
 051188,-7.223866,-4.767411\H,0,-7.531811,-6.4259,-4.19227\H,0,-7.59702
 6,-7.259834,-5.716789\C,0,-7.198921,-8.510741,-3.962885\H,0,-6.808526,
 -8.412046,-2.949796\H,0,-8.253176,-8.791344,-3.875905\N,0,-6.505375,-9
 .634666,-4.608569\H,0,-6.769925,-9.801012,-5.570487\C,0,-5.4276,-10.26
 6645,-4.163688\N,0,-4.794417,-9.921975,-3.049979\H,0,-4.977298,-9.0501
 96,-2.495954\H,0,-4.141637,-10.575873,-2.645696\N,0,-4.9736,-11.344331
 ,-4.856754\H,0,-5.448858,-11.634072,-5.697007\H,0,-3.997438,-11.587227
 ,-4.795614\C,0,-3.692915,-5.441336,-4.340032\O,0,-3.844213,-4.266391,-
 4.024257\N,0,-2.670713,-5.860245,-5.107754\H,0,-2.561771,-6.844917,-5.
 292563\C,-1,-1.650797,-4.935112,-5.554876\H,0,-2.109764,-3.946792,-5.5
 89133\C,0,-0.429561,-4.924142,-4.637074\H,0,0.096921,-5.88514,-4.65821
 4\H,0,0.272045,-4.141959,-4.945059\H,0,-0.726551,-4.721761,-3.604437\H
 ,0,-1.364984,-5.20098,-6.577802\H,0,8.822457,2.157716,-9.129037\C,-1,7
 .913206,1.640721,-9.456066\H,0,7.983706,1.486846,-10.537519\C,0,7.7447
 84,0.307493,-8.723921\H,0,6.849667,-0.207981,-9.093222\H,0,8.597449,-0
 .345188,-8.947462\C,0,7.631458,0.480969,-7.209293\H,0,8.507249,1.01605
 2,-6.821441\H,0,6.740885,1.072223,-6.963265\S,0,7.520802,-1.142177,-6.
 389519\C,0,7.392352,-0.611858,-4.661232\H,0,6.441487,-0.112123,-4.4662
 1\H,0,7.445085,-1.504088,-4.033117\H,0,8.229205,0.038334,-4.388701\H,0
 ,7.063397,2.306016,-9.265785\H,0,2.34787,1.042154,-9.132056\C,-1,1.573
 304,0.284228,-8.974409\H,0,1.250641,-0.086825,-9.953316\C,0,2.103076,-
 0.856575,-8.092876\H,0,1.322343,-1.616826,-7.969549\H,0,2.945644,-1.34
 6679,-8.597369\C,0,2.541265,-0.344657,-6.741421\C,0,1.702069,-0.426527
 ,-5.62765\H,0,0.742708,-0.933005,-5.718839\C,0,2.069364,0.145875,-4.41
 2536\H,0,1.402388,0.090577,-3.555747\C,0,3.278145,0.824657,-4.300896\H
 ,0,3.563484,1.310079,-3.376653\C,0,4.124301,0.906552,-5.402506\H,0,5.0
 53258,1.463894,-5.316646\C,0,3.765829,0.315263,-6.60821\H,0,4.43149,0.
 381992,-7.467157\H,0,0.721164,0.776164,-8.494414\H,0,-3.122343,-0.4145
 88,-5.387632\C,-1,-3.605764,-1.191731,-4.78638\H,0,-3.356171,-2.169155
 ,-5.207413\C,0,-3.107587,-1.117879,-3.326694\H,0,-3.783376,-1.728565,-
 2.713775\C,0,-1.705202,-1.705489,-3.191224\H,0,-0.978004,-1.142027,-3.
 792211\H,0,-1.374734,-1.672698,-2.146911\H,0,-1.694877,-2.749296,-3.51
 4664\C,0,-3.151918,0.317329,-2.810265\H,0,-4.142204,0.752578,-2.953849
 \H,0,-2.921882,0.362252,-1.742209\H,0,-2.426281,0.947248,-3.342638\C,0
 ,-5.109191,-0.980261,-4.86861\O,0,-5.622357,0.110199,-5.109872\N,0,-5.
 817037,-2.107096,-4.615303\H,0,-5.301508,-2.941825,-4.355956\C,-1,-7.2
 54921,-2.167853,-4.495881\H,0,-7.64171,-1.177926,-4.751082\C,0,-7.8391
 35,-3.270683,-5.406559\H,0,-7.425369,-4.228522,-5.069884\H,0,-8.923956
 ,-3.321434,-5.238137\C,0,-7.544579,-3.149739,-6.896543\H,0,-8.139212,-
 2.355925,-7.359083\H,0,-6.483846,-2.897706,-7.028375\C,0,-7.809339,-4.
 504714,-7.633009\O,0,-7.253037,-5.511543,-7.096897\O,0,-8.513148,-4.47
 1564,-8.65097\C,0,-7.599461,-2.558234,-3.070286\O,0,-6.980363,-3.44681
 ,-2.473895\N,0,-8.649424,-1.918431,-2.534111\H,0,-9.244905,-1.337736,-
 3.109987\C,-1,-9.117923,-2.166412,-1.196711\H,0,-9.299884,-3.246408,-1
 .080142\C,0,-8.087525,-1.77135,-0.121921\H,0,-8.483011,-2.047259,0.862
 009\H,0,-7.207683,-2.401537,-0.277614\C,0,-7.660244,-0.298637,-0.09975
 6\H,0,-8.506894,0.370306,-0.289943\H,0,-7.275048,-0.047572,0.893965\S,
 0,-6.323463,0.101309,-1.288337\C,0,-7.184229,1.127927,-2.504127\H,0,-7
 .371675,2.131952,-2.114306\H,0,-6.550402,1.178955,-3.393136\H,0,-8.131
 413,0.660619,-2.781724\C,0,-10.49086,-1.502307,-1.075974\O,0,-11.14657
 4,-1.230861,-2.07905\N,0,-10.931307,-1.314987,0.183632\H,0,-10.349218,
 -1.520727,0.997713\C,-1,-12.294287,-0.925437,0.455876\H,0,-12.7854,-0.
 834476,-0.517703\C,0,-13.032796,-1.993156,1.29297\H,0,-12.489465,-2.09
 5451,2.240703\C,0,-14.465699,-1.548775,1.597141\H,0,-15.025654,-1.3715
 76,0.67011\H,0,-14.991925,-2.325098,2.161831\H,0,-14.490563,-0.630666,
 2.192485\C,0,-13.016601,-3.340322,0.570135\H,0,-11.994647,-3.687429,0.
 393241\H,0,-13.530498,-4.0998,1.168638\H,0,-13.523821,-3.270851,-0.400
 015\C,0,-12.3304,0.418282,1.179302\O,0,-11.856349,0.567683,2.309508\N,
 0,-12.982055,1.402188,0.532301\H,0,-13.147301,1.285833,-0.45627\C,-1,-
 13.122525,2.72536,1.104573\H,0,-13.417838,2.598879,2.149686\C,0,-11.84
 4113,3.578553,1.034537\H,0,-10.999829,2.949157,1.340846\H,0,-11.668516
 ,3.88167,-0.001243\C,0,-11.92488,4.780751,1.918759\C,0,-12.013463,6.09
 1078,1.546402\H,0,-12.024758,6.523168,0.554543\N,0,-12.085302,6.896509
 ,2.664918\H,0,-12.1045,7.901684,2.656531\C,0,-12.031075,6.107826,3.791
 681\C,0,-12.054577,6.450878,5.146194\H,0,-12.125351,7.486284,5.467506\
 C,0,-11.977991,5.417686,6.065137\H,0,-11.989873,5.648846,7.126335\C,0,
 -11.878938,4.074716,5.653439\H,0,-11.814582,3.293279,6.40458\C,0,-11.8
 55749,3.738748,4.311008\H,0,-11.773507,2.702394,3.991534\C,0,-11.93435
 7,4.766841,3.359481\H,0,-13.943843,3.232286,0.590292\H,0,-12.607188,2.
 012231,-4.10865\C,-1,-11.631917,1.603451,-4.391294\H,0,-11.515383,1.70
 5634,-5.474777\C,0,-10.505237,2.338149,-3.675542\H,0,-9.527967,1.98779
 ,-4.019887\H,0,-10.565638,3.414296,-3.860338\S,0,-10.665382,2.03734,-1
 .879475\H,0,-9.868557,3.030634,-1.452745\H,0,-11.622935,0.536789,-4.14
 5184\H,0,-5.763358,3.044948,-5.439946\C,-1,-5.119112,3.86766,-5.114601
 \H,0,-5.663164,4.80945,-5.258706\C,0,-4.683811,3.66246,-3.667312\H,0,-
 5.559213,3.706137,-3.002999\H,0,-4.288056,2.647542,-3.576833\C,0,-3.62
 4919,4.642078,-3.146342\H,0,-2.741806,4.563288,-3.798465\C,0,-4.110556
 ,6.093062,-3.183407\H,0,-5.027697,6.207396,-2.589478\H,0,-3.357104,6.7
 66173,-2.759732\H,0,-4.324497,6.428011,-4.204653\C,0,-3.202784,4.24864
 4,-1.729588\H,0,-2.86779,3.205915,-1.69852\H,0,-2.389123,4.878886,-1.3
 54157\H,0,-4.048221,4.344169,-1.035244\H,0,-4.248585,3.886553,-5.78145
 1\H,0,0.349574,4.118014,-6.231625\C,-1,1.169724,4.715386,-5.816096\H,0
 ,0.74207,5.646043,-5.422258\C,0,1.91468,3.94774,-4.726555\H,0,2.334989
 ,3.044268,-5.181804\C,0,3.068495,4.786733,-4.177749\H,0,2.676392,5.713
 656,-3.742464\H,0,3.634394,4.242239,-3.413128\H,0,3.762281,5.0709,-4.9
 8113\C,0,0.977291,3.509115,-3.598657\H,0,0.14617,2.907318,-3.985748\H,
 0,1.512037,2.899291,-2.860746\H,0,0.553096,4.37433,-3.071645\H,0,1.841
 897,4.987372,-6.638095\H,0,7.215651,2.74061,-5.054385\C,-1,7.406236,3.
 526642,-4.315185\H,0,6.532732,4.184021,-4.291794\C,0,7.652602,2.926057
 ,-2.932543\H,0,8.495666,2.228735,-2.942243\H,0,7.874593,3.714063,-2.20
 2346\C,0,6.410562,2.211244,-2.452244\O,0,5.299721,2.699101,-2.550629\O
 ,0,6.641563,1.004403,-1.960883\H,0,5.75843,0.558237,-1.784837\H,0,8.27
 2685,4.101692,-4.657379\H,0,12.740921,2.994785,-2.888157\C,-1,13.42834
 8,2.167841,-2.674753\H,0,13.674541,2.206432,-1.607465\C,0,12.803347,0.
 822339,-3.047104\H,0,12.591909,0.797046,-4.122953\H,0,13.520001,0.0163
 97,-2.849061\C,0,11.514532,0.543717,-2.273872\H,0,11.709442,0.558125,-
 1.194478\H,0,10.767623,1.318722,-2.486119\S,0,10.843479,-1.087816,-2.7
 33605\C,0,9.453904,-1.195332,-1.574413\H,0,8.677982,-0.454788,-1.78969
 \H,0,9.01984,-2.19382,-1.681537\H,0,9.814076,-1.063177,-0.548237\H,0,1
 4.349113,2.342935,-3.240063\H,0,11.995028,2.888942,1.839444\C,-1,11.12
 5013,2.955815,1.178276\H,0,11.489785,3.075166,0.149759\C,0,10.240992,1
 .711815,1.296539\H,0,10.828636,0.822077,1.027961\H,0,9.924586,1.570286
 ,2.336356\C,0,9.003916,1.751317,0.396598\H,0,9.293088,2.02289,-0.62519
 9\H,0,8.540318,0.763821,0.33712\S,0,7.686763,2.905409,0.931725\C,0,6.4
 64255,1.702305,1.540452\H,0,6.870145,1.118477,2.369072\H,0,5.578092,2.
 234205,1.900164\H,0,6.162634,1.02871,0.733391\H,0,10.564339,3.858128,1
 .446068\H,0,6.434127,5.897986,-0.334098\C,-1,5.554904,5.73112,-0.96303
 3\H,0,5.88777,5.263424,-1.895842\C,0,4.570459,4.80129,-0.247882\H,0,4.
 179509,5.260158,0.663262\H,0,3.727665,4.543868,-0.897993\H,0,5.062951,
 3.864156,0.020818\C,0,4.94034,7.095004,-1.223646\O,0,4.821999,7.947271
 ,-0.353218\N,0,4.483651,7.298996,-2.501346\H,0,4.675496,6.575044,-3.17
 9172\C,-1,4.268074,8.635292,-3.029882\H,0,4.385638,9.305318,-2.173103\
 C,0,5.321938,8.959471,-4.105223\H,0,5.076316,8.385309,-5.004928\H,0,5.
 230508,10.017425,-4.376357\C,0,6.711732,8.63661,-3.616082\C,0,7.331979
 ,7.433942,-3.953129\H,0,6.847215,6.756618,-4.653202\C,0,8.559539,7.070
 611,-3.406212\H,0,9.019377,6.123435,-3.681423\C,0,9.19332,7.921213,-2.
 503156\O,0,10.393059,7.625298,-1.929078\H,0,10.653919,6.734739,-2.1913
 36\C,0,8.596938,9.135178,-2.16284\H,0,9.09817,9.786799,-1.455027\C,0,7
 .370865,9.477248,-2.714211\H,0,6.903368,10.414149,-2.421039\C,0,2.8449
 34,8.759872,-3.59338\O,0,2.594912,8.553094,-4.772811\N,0,1.909962,9.12
 2366,-2.675373\H,0,2.172281,9.023535,-1.702063\C,-1,0.488885,9.017928,
 -2.972549\H,0,0.343413,9.342684,-4.004614\C,0,-0.024581,7.575701,-2.78
 8425\H,0,-1.095762,7.55256,-3.025823\H,0,0.472746,6.953437,-3.541484\C
 ,0,0.209704,7.000972,-1.419724\C,0,1.346109,6.359553,-0.983999\H,0,2.2
 58896,6.162278,-1.528372\N,0,1.206219,5.950255,0.314783\H,0,1.857082,5
 .406694,0.888932\C,0,-0.040948,6.304456,0.751291\C,0,-0.64593,6.058045
 ,1.987891\H,0,-0.107204,5.512849,2.757633\C,0,-1.93515,6.528383,2.1651
 7\H,0,-2.443626,6.349365,3.108304\C,0,-2.607501,7.224607,1.138797\H,0,
 -3.620127,7.577202,1.313453\C,0,-2.00387,7.457476,-0.084726\H,0,-2.536
 623,7.991077,-0.868187\C,0,-0.698538,6.985213,-0.302686\H,0,-0.044525,
 9.704188,-2.307141\H,0,-7.525271,8.591504,-4.991428\C,-1,-7.761262,7.5
 53312,-4.735748\H,0,-6.814218,7.043997,-4.530192\C,0,-8.710214,7.48777
 6,-3.539087\H,0,-8.20652,7.889657,-2.648169\H,0,-9.57291,8.14141,-3.72
 6814\C,0,-9.227517,6.077386,-3.221662\H,0,-9.744081,5.707814,-4.121054
 \C,0,-8.083847,5.112631,-2.903443\H,0,-7.499033,5.468536,-2.045659\H,0
 ,-8.459739,4.114361,-2.656244\H,0,-7.401332,4.994248,-3.748896\C,0,-10
 .244426,6.117444,-2.076648\H,0,-11.048744,6.833547,-2.284401\H,0,-10.7
 0651,5.1357,-1.919381\H,0,-9.761636,6.41285,-1.136304\H,0,-8.20968,7.0
 8352,-5.619345\O,0,1.22777,0.950542,3.551498\H,0,0.820949,1.546003,4.1
 91996\H,0,1.997031,1.483732,3.211708\O,0,0.3328,-1.568546,4.469788\H,0
 ,-0.392359,-1.769152,3.86401\H,0,0.724602,-0.73335,4.134715\O,0,-0.326
 876,0.560867,8.497929\H,0,0.077702,-0.324922,8.477344\H,0,0.330588,1.1
 39194,8.085343\O,0,-5.429429,-4.084435,5.971906\H,0,-5.121683,-3.62467
 4,6.768865\H,0,-5.671792,-3.369643,5.361043\O,0,-5.422961,-1.925858,4.
 033564\H,0,-5.325912,-1.045446,4.423369\H,0,-4.503713,-2.24936,3.93064
 7\O,0,-9.960853,-1.406494,2.844748\H,0,-9.110778,-1.075378,3.157788\H,
 0,-10.574483,-0.645354,2.885178\C,0,3.405193,-0.302689,-1.084009\O,0,4
 .482944,-0.420134,-1.680607\C,0,2.818898,0.989831,-0.815711\C,0,1.6384
 04,1.144415,-0.171189\C,0,0.834946,-0.046528,0.318857\C,0,1.186475,-1.
 311699,-0.47262\C,0,2.687186,-1.529522,-0.594106\C,0,1.162172,2.524529
 ,0.157194\C,0,-0.354647,2.681777,0.151574\C,0,-1.003292,1.579493,0.985
 \C,0,-0.688439,0.215747,0.332696\C,0,-2.507307,1.749408,1.12303\C,0,-3
 .178074,0.620717,1.92937\C,0,-2.943679,-0.704355,1.200241\C,0,-1.44584
 7,-0.96233,0.977826\C,0,-3.057567,3.03557,1.757301\C,0,-4.50034,2.6506
 32,2.181561\C,0,-4.6287,1.142438,1.893768\C,0,-2.675247,0.527854,3.379
 202\O,0,-5.546409,0.539383,2.79529\H,0,3.395445,1.856549,-1.131785\H,0
 ,1.13668,-0.184131,1.370767\H,0,0.750293,-1.227826,-1.477536\H,0,0.733
 924,-2.190696,-0.004897\H,0,3.129098,-1.770988,0.382459\H,0,2.932627,-
 2.365728,-1.255112\H,0,1.634916,3.246375,-0.51681\H,0,1.543162,2.77258
 3,1.158982\H,0,-0.740583,2.642715,-0.877212\H,0,-0.610058,3.669394,0.5
 46883\H,0,-0.540647,1.600577,1.981052\H,0,-1.019164,0.286836,-0.716156
 \H,0,-2.932837,1.690282,0.107133\H,0,-3.455359,-0.673872,0.227489\H,0,
 -3.37175,-1.547049,1.759535\H,0,-0.965241,-1.202882,1.935675\H,0,-1.34
 0841,-1.859863,0.356688\H,0,-3.030929,3.883761,1.069117\H,0,-2.450957,
 3.323901,2.624068\H,0,-5.259271,3.218072,1.634764\H,0,-4.674377,2.8265
 64,3.248329\H,0,-4.997634,1.007698,0.867992\H,0,-2.882187,1.438208,3.9
 49526\H,0,-3.167771,-0.305002,3.888233\H,0,-1.598215,0.343163,3.434481
 \H,0,-5.553887,-0.414141,2.618834\\Version=ES64L-G16RevC.01\State=1-A\
 HF=-12873.6843472\RMSD=2.978e-09\Dipole=5.3220781,-8.767426,-0.989186\
 Quadrupole=-19.9971902,178.6907003,-158.6935101,-66.6497606,-24.038289
 6,12.8123712\PG=C01 [X(C190H328N19O32S5)]\\@
 The archive entry for this job was punched.


 NEVER TEACH A PIG TO SING.
 IT WASTES YOUR TIME AND ANNOYS THE PIG.
     -- SEEN ON A GREETING CARD
 Job cpu time:       0 days 23 hours 49 minutes  1.4 seconds.
 Elapsed time:       0 days  0 hours 23 minutes  4.8 seconds.
 File lengths (MBytes):  RWF=  10210 Int=      0 D2E=      0 Chk=   1094 Scr=      1
 Normal termination of Gaussian 16 at Fri May  1 11:28:59 2026.
