 Entering Gaussian System, Link 0=g16
 Initial command:
 /cm/shared/apps/spack/cpu/opt/spack/linux-centos8-zen/gcc-8.3.1/gaussian-16.C.01-po5bqktfeugvmjyga3v7eigbecnokxng/g16/l1.exe "/scratch/hklem/job_32090258/Gau-784246.inp" -scrdir="/scratch/hklem/job_32090258/"
 Entering Link 1 = /cm/shared/apps/spack/cpu/opt/spack/linux-centos8-zen/gcc-8.3.1/gaussian-16.C.01-po5bqktfeugvmjyga3v7eigbecnokxng/g16/l1.exe PID=    784247.
  
 Copyright (c) 1988-2019, Gaussian, Inc.  All Rights Reserved.
  
 This is part of the Gaussian(R) 16 program.  It is based on
 the Gaussian(R) 09 system (copyright 2009, Gaussian, Inc.),
 the Gaussian(R) 03 system (copyright 2003, Gaussian, Inc.),
 the Gaussian(R) 98 system (copyright 1998, Gaussian, Inc.),
 the Gaussian(R) 94 system (copyright 1995, Gaussian, Inc.),
 the Gaussian 92(TM) system (copyright 1992, Gaussian, Inc.),
 the Gaussian 90(TM) system (copyright 1990, Gaussian, Inc.),
 the Gaussian 88(TM) system (copyright 1988, Gaussian, Inc.),
 the Gaussian 86(TM) system (copyright 1986, Carnegie Mellon
 University), and the Gaussian 82(TM) system (copyright 1983,
 Carnegie Mellon University). Gaussian is a federally registered
 trademark of Gaussian, Inc.
  
 This software contains proprietary and confidential information,
 including trade secrets, belonging to Gaussian, Inc.
  
 This software is provided under written license and may be
 used, copied, transmitted, or stored only in accord with that
 written license.
  
 The following legend is applicable only to US Government
 contracts under FAR:
  
                    RESTRICTED RIGHTS LEGEND
  
 Use, reproduction and disclosure by the US Government is
 subject to restrictions as set forth in subparagraphs (a)
 and (c) of the Commercial Computer Software - Restricted
 Rights clause in FAR 52.227-19.
  
 Gaussian, Inc.
 340 Quinnipiac St., Bldg. 40, Wallingford CT 06492
  
  
 ---------------------------------------------------------------
 Warning -- This program may not be used in any manner that
 competes with the business of Gaussian, Inc. or will provide
 assistance to any competitor of Gaussian, Inc.  The licensee
 of this program is prohibited from giving any competitor of
 Gaussian, Inc. access to this program.  By using this program,
 the user acknowledges that Gaussian, Inc. is engaged in the
 business of creating and licensing software in the field of
 computational chemistry and represents and warrants to the
 licensee that it is not a competitor of Gaussian, Inc. and that
 it will not use this program in any manner prohibited above.
 ---------------------------------------------------------------
  

 Cite this work as:
 Gaussian 16, Revision C.01,
 M. J. Frisch, G. W. Trucks, H. B. Schlegel, G. E. Scuseria, 
 M. A. Robb, J. R. Cheeseman, G. Scalmani, V. Barone, 
 G. A. Petersson, H. Nakatsuji, X. Li, M. Caricato, A. V. Marenich, 
 J. Bloino, B. G. Janesko, R. Gomperts, B. Mennucci, H. P. Hratchian, 
 J. V. Ortiz, A. F. Izmaylov, J. L. Sonnenberg, D. Williams-Young, 
 F. Ding, F. Lipparini, F. Egidi, J. Goings, B. Peng, A. Petrone, 
 T. Henderson, D. Ranasinghe, V. G. Zakrzewski, J. Gao, N. Rega, 
 G. Zheng, W. Liang, M. Hada, M. Ehara, K. Toyota, R. Fukuda, 
 J. Hasegawa, M. Ishida, T. Nakajima, Y. Honda, O. Kitao, H. Nakai, 
 T. Vreven, K. Throssell, J. A. Montgomery, Jr., J. E. Peralta, 
 F. Ogliaro, M. J. Bearpark, J. J. Heyd, E. N. Brothers, K. N. Kudin, 
 V. N. Staroverov, T. A. Keith, R. Kobayashi, J. Normand, 
 K. Raghavachari, A. P. Rendell, J. C. Burant, S. S. Iyengar, 
 J. Tomasi, M. Cossi, J. M. Millam, M. Klene, C. Adamo, R. Cammi, 
 J. W. Ochterski, R. L. Martin, K. Morokuma, O. Farkas, 
 J. B. Foresman, and D. J. Fox, Gaussian, Inc., Wallingford CT, 2019.
 
 ******************************************
 Gaussian 16:  ES64L-G16RevC.01  3-Jul-2019
                11-Jul-2024 
 ******************************************
 %nprocshared=32
 Will use up to   32 processors via shared memory.
 %mem=64GB
 --------------------------
 # wb97xd/6-31G(d) prop=efg
 --------------------------
 1/38=1,172=1/1;
 2/12=2,17=6,18=5,40=1/2;
 3/5=1,6=6,7=1,11=2,25=1,30=1,74=-58/1,2,3;
 4//1;
 5/5=2,38=5/2;
 6/7=2,8=2,9=2,10=2,14=1,28=1/1,2;
 99/5=1,9=1/99;
 --------------------------------------
 19nt_xstal_distance_cutoff3_xtb_conf_1
 --------------------------------------
 Symbolic Z-matrix:
 Charge = -1 Multiplicity = 1
 H                     46.3392   34.0737   31.491 
 C                     46.309    34.451    30.471 
 H                     46.0667   33.6216   29.8097 
 C                     45.2667   35.5583   30.3642 
 H                     44.2895   35.1556   30.6484 
 H                     45.5058   36.3434   31.0874 
 C                     45.1337   36.202    29.0075 
 C                     45.8461   35.7932   27.8912 
 H                     46.5389   34.9684   27.9532 
 C                     45.6925   36.434    26.6724 
 H                     46.2618   36.1031   25.8121 
 C                     44.8181   37.5021   26.5491 
 O                     44.6526   38.1758   25.3715 
 H                     45.2302   37.7945   24.7 
 C                     44.0846   37.9125   27.6572 
 H                     43.3987   38.7377   27.5476 
 C                     44.2471   37.2681   28.8654 
 H                     43.6818   37.5996   29.7245 
 H                     47.2986   34.8258   30.2184 
 H                     48.2021   38.0013   26.7613 
 C                     48.106    39.077    26.631 
 H                     47.1113   39.2907   26.2463 
 C                     48.313    39.7982   27.9618 
 H                     49.3276   39.5836   28.3187 
 C                     48.1703   41.307    27.7816 
 H                     47.1613   41.5508   27.4577 
 H                     48.3611   41.8248   28.7183 
 H                     48.87     41.6803   27.037 
 C                     47.3141   39.2947   29.0003 
 H                     47.4132   38.2213   29.1453 
 H                     47.4716   39.7876   29.957 
 H                     46.2967   39.4961   28.6729 
 H                     48.8389   39.4069   25.8968 
 H                     36.4076   46.3271   33.0631 
 C                     37.339    46.524    32.531 
 H                     37.8758   47.3175   33.0498 
 C                     38.1977   45.265    32.4572 
 H                     38.4479   44.9323   33.4666 
 H                     37.6445   44.475    31.9431 
 C                     39.5147   45.5146   31.6716 
 O                     40.5346   45.7907   32.3392 
 O                     39.4623   45.3968   30.4377 
 H                     37.1005   46.8703   31.5268 
 H                     42.6916   47.0402   22.3594 
 C                     43.146    46.945    23.342 
 H                     43.1878   47.916    23.8266 
 H                     42.5361   46.2829   23.9545 
 C                     44.5505   46.3748   23.2488 
 O                     45.4524   46.7047   23.9955 
 N                     44.7218   45.4608   22.2683 
 H                     43.9332   45.1958   21.6995 
 C                     45.975    44.783    22.003 
 H                     46.6827   45.1291   22.7568 
 C                     45.8299   43.2621   22.0389 
 H                     45.1047   42.9621   21.2762 
 H                     46.7934   42.8247   21.7681 
 C                     45.3873   42.699    23.395 
 H                     44.4507   43.186    23.6877 
 C                     45.1351   41.1973   23.2652 
 H                     46.0536   40.6867   22.9809 
 H                     44.7906   40.781    24.2084 
 H                     44.3806   40.9927   22.508 
 C                     46.4265   42.963    24.4796 
 H                     46.5254   44.026    24.6773 
 H                     46.1263   42.4795   25.405 
 H                     47.3974   42.5688   24.186 
 H                     46.3442   45.0876   21.0156 
 H                     51.619    46.7268   23.6305 
 C                     51.425    46.229    24.579 
 H                     51.5891   46.9401   25.386 
 C                     49.9892   45.7063   24.6353 
 H                     49.8559   44.9698   23.8323 
 C                     49.7284   45.0291   25.9773 
 H                     49.8264   45.7581   26.7785 
 H                     48.7235   44.6163   26.0123 
 H                     50.4385   44.2225   26.1507 
 C                     48.997    46.8471   24.4307 
 H                     49.1847   47.3652   23.4919 
 H                     47.973    46.4836   24.4209 
 H                     49.0876   47.5594   25.246 
 H                     52.1366   45.4132   24.6908 
 H                     49.3576   43.1427   37.4817 
 C                     50.254    42.792    36.975 
 H                     51.0264   42.608    37.7191 
 C                     49.952    41.5166   36.1846 
 H                     50.8672   41.1746   35.6948 
 H                     49.6286   40.737    36.8792 
 C                     48.88     41.7424   35.1517 
 C                     49.2101   42.0421   33.8367 
 H                     50.2523   42.1063   33.5506 
 C                     48.2223   42.2468   32.8882 
 H                     48.4964   42.4699   31.8668 
 C                     46.8881   42.159    33.2444 
 H                     46.1126   42.3152   32.5088 
 C                     46.5449   41.8626   34.5531 
 H                     45.5064   41.7745   34.8305 
 C                     47.5364   41.6596   35.4968 
 H                     47.264    41.4226   36.5163 
 H                     50.5945   43.5791   36.3054 
 H                     51.4516   45.7573   31.8633 
 C                     50.929    46.54     31.316 
 H                     51.5225   46.8051   30.4432 
 C                     49.5427   46.0535   30.8948 
 H                     49.0553   46.8463   30.316 
 C                     49.6606   44.8218   30.0021 
 H                     50.1329   44.0044   30.5446 
 H                     48.6769   44.4965   29.671 
 H                     50.2593   45.0433   29.1218 
 C                     48.6882   45.7487   32.1216 
 H                     48.5782   46.6351   32.7413 
 H                     47.6956   45.4172   31.8267 
 H                     49.1424   44.963    32.7222 
 H                     50.8513   47.4117   31.9638 
 H                     52.2902   50.0133   26.9972 
 C                     51.956    50.753    26.273 
 H                     52.7357   50.8792   25.5255 
 C                     50.6572   50.294    25.6194 
 H                     50.3237   51.0402   24.8931 
 H                     50.8335   49.36     25.0832 
 C                     49.5393   50.0826   26.6309 
 H                     49.3586   50.9874   27.2086 
 H                     48.6126   49.7894   26.1365 
 S                     49.952    48.7653   27.8384 
 C                     49.8956   49.7265   29.3762 
 H                     48.8874   50.1038   29.5267 
 H                     50.1626   49.0511   30.1813 
 H                     50.6106   50.5433   29.3244 
 H                     51.8136   51.7032   26.7857 
 H                     50.1836   51.4992   33.6044 
 C                     49.556    50.794    34.147 
 H                     49.2393   51.2681   35.0721 
 C                     48.3576   50.3875   33.2995 
 H                     47.7295   51.2618   33.1133 
 H                     48.716    50.0274   32.3314 
 C                     47.5034   49.2898   33.9399 
 H                     48.1513   48.4298   34.1526 
 C                     46.8713   49.7489   35.249 
 H                     46.2914   50.6539   35.0854 
 H                     46.2024   48.9763   35.6171 
 H                     47.6228   49.9439   36.0109 
 C                     46.4112   48.8558   32.9672 
 H                     46.8445   48.4958   32.0367 
 H                     45.8086   48.0598   33.3949 
 H                     45.752    49.6932   32.748 
 H                     50.1592   49.9226   34.3962 
 H                     47.1      46.8975   37.0062 
 C                     46.185    46.409    37.335 
 H                     45.36     47.105    37.2175 
 C                     45.9235   45.1484   36.5113 
 H                     46.776    44.4678   36.6245 
 C                     44.6661   44.4384   37.0051 
 H                     43.8074   45.1014   36.9172 
 H                     44.4763   43.5451   36.4149 
 H                     44.7698   44.1474   38.0494 
 C                     45.7836   45.4991   35.0336 
 H                     46.6825   45.9918   34.6698 
 H                     45.6299   44.5976   34.4461 
 H                     44.9355   46.165    34.8826 
 H                     46.2861   46.167    38.3919 
 H                     43.2874   40.7063   37.7864 
 C                     42.31     41.173    37.691 
 H                     42.4613   42.2315   37.4976 
 C                     41.535    40.5416   36.5476 
 H                     41.3603   39.4777   36.7217 
 H                     40.5599   41.019    36.4298 
 C                     42.2814   40.6807   35.2327 
 O                     43.3102   41.2997   35.1103 
 O                     41.6735   40.0467   34.2544 
 H                     42.1876   40.1167   33.3721 
 H                     41.7715   41.0589   38.6297 
 H                     37.0758   38.0087   35.2332 
 C                     36.781    38.93     34.736 
 H                     35.8291   39.26     35.1481 
 C                     37.8456   40.0061   34.9229 
 H                     37.9445   40.2448   35.9863 
 H                     38.8111   39.6336   34.5736 
 C                     37.4974   41.2841   34.1712 
 H                     36.48     41.6009   34.402 
 H                     38.186    42.0925   34.414 
 S                     37.5569   41.0759   32.3574 
 C                     39.3048   41.4534   32.0612 
 H                     39.9247   40.8246   32.693 
 H                     39.4994   41.2332   31.0169 
 H                     39.4882   42.5076   32.2516 
 H                     36.6453   38.7289   33.676 
 H                     38.9341   44.416    35.7241 
 C                     39.969    44.538    36.041 
 H                     40.0935   44.0149   36.99 
 C                     40.9232   43.9952   34.9871 
 H                     40.836    44.5636   34.0633 
 H                     41.954    44.0517   35.3301 
 H                     40.701    42.952    34.7692 
 H                     40.1379   45.5987   36.2101 
 H                     41.5125   49.7745   37.8451 
 C                     42.545    50.103    37.743 
 H                     42.9451   50.3073   38.7348 
 C                     43.3768   49.0303   37.0392 
 H                     44.4128   49.3784   36.9893 
 H                     43.3497   48.1158   37.638 
 C                     42.8845   48.7223   35.6602 
 C                     42.2667   47.5734   35.2436 
 H                     42.0386   46.6954   35.8168 
 N                     41.955    47.6369   33.9199 
 H                     41.4485   46.9322   33.3805 
 C                     42.3682   48.8393   33.442 
 C                     42.2868   49.3669   32.1583 
 H                     41.8287   48.7982   31.3639 
 C                     42.8064   50.6245   31.9479 
 H                     42.7664   51.0641   30.9613 
 C                     43.3907   51.3516   32.9909 
 H                     43.7839   52.3387   32.7838 
 C                     43.4722   50.839    34.2657 
 H                     43.9227   51.4146   35.0631 
 C                     42.9641   49.5627   34.5101 
 H                     42.5504   51.0253   37.1672 
 C                     43.1007   41.1877   31.3174 
 O                     42.8141   40.1537   31.9344 
 C                     43.2341   42.4736   31.9243 
 C                     43.5062   43.6109   31.2349 
 C                     43.8103   43.5809   29.7688 
 C                     44.2596   42.1809   29.3437 
 C                     43.2652   41.1373   29.8211 
 C                     43.3929   44.9234   31.9092 
 C                     44.3076   46.0195   31.3695 
 C                     44.3014   46.0287   29.8439 
 C                     44.8246   44.6667   29.358 
 C                     45.1713   47.1429   29.2749 
 C                     45.2457   47.1063   27.7419 
 C                     45.897    45.794    27.3282 
 C                     45.0646   44.6214   27.8429 
 C                     44.7833   48.5953   29.5477 
 C                     45.5981   49.3855   28.5065 
 C                     46.1013   48.3582   27.4653 
 C                     43.8846   47.2679   27.0583 
 O                     46.0056   48.8883   26.1618 
 H                     43.054    42.5276   32.9894 
 H                     42.8671   43.8281   29.2572 
 H                     45.2447   41.9688   29.7702 
 H                     44.3393   42.1194   28.2582 
 H                     42.2817   41.3438   29.3854 
 H                     43.5627   40.1298   29.5247 
 H                     43.5301   44.8062   32.9857 
 H                     42.3427   45.2459   31.7749 
 H                     45.3285   45.8578   31.73 
 H                     43.9725   46.9837   31.7516 
 H                     43.27     46.1496   29.5092 
 H                     45.7816   44.4677   29.8597 
 H                     46.1927   46.9919   29.6513 
 H                     46.9062   45.7397   27.7464 
 H                     45.9818   45.7362   26.2406 
 H                     44.1001   44.6112   27.3352 
 H                     45.5911   43.6995   27.5889 
 H                     45.0107   48.9085   30.5636 
 H                     43.7139   48.7257   29.3914 
 H                     46.4377   49.9019   28.9722 
 H                     44.9952   50.1358   27.9961 
 H                     47.1565   48.108    27.6679 
 H                     43.5537   48.3013   27.1013 
 H                     43.979    46.9881   26.0129 
 H                     43.1253   46.6429   27.5151 
 H                     45.9314   48.1516   25.5382 
 O                     41.2956   45.1498   28.558 
 H                     40.659    45.0031   27.8573 
 H                     40.7215   45.2909   29.3593 
 
 Stoichiometry    C88H163N2O9S2(1-)
 Framework group  C1[X(C88H163N2O9S2)]
 Deg. of freedom   786
 Full point group                 C1      NOp   1
 Largest Abelian subgroup         C1      NOp   1
 Largest concise Abelian subgroup C1      NOp   1
                         Standard orientation:                         
 ---------------------------------------------------------------------
 Center     Atomic      Atomic             Coordinates (Angstroms)
 Number     Number       Type             X           Y           Z
 ---------------------------------------------------------------------
      1          1           0        2.954170    8.697121    5.136887
      2          6           0        2.078682    8.815584    4.501942
      3          1           0        1.958171    9.874939    4.284741
      4          6           0        2.262225    8.011706    3.219756
      5          1           0        3.157539    8.368623    2.701218
      6          1           0        2.445116    6.964819    3.478883
      7          6           0        1.108486    8.055073    2.250386
      8          6           0       -0.030492    8.819796    2.447067
      9          1           0       -0.132916    9.436972    3.326108
     10          6           0       -1.066107    8.807549    1.526718
     11          1           0       -1.950739    9.408398    1.700272
     12          6           0       -0.979372    8.024386    0.386653
     13          8           0       -1.986474    7.966257   -0.535503
     14          1           0       -2.716391    8.527565   -0.249012
     15          6           0        0.164904    7.264545    0.168452
     16          1           0        0.226853    6.667126   -0.727472
     17          6           0        1.188400    7.283531    1.092302
     18          1           0        2.069651    6.682169    0.921218
     19          1           0        1.208775    8.467939    5.055110
     20          1           0       -2.897825    7.056235    3.056466
     21          6           0       -3.263078    6.170262    2.541697
     22          1           0       -3.053124    6.276768    1.479781
     23          6           0       -2.577989    4.916284    3.082250
     24          1           0       -2.820305    4.820302    4.147574
     25          6           0       -3.083826    3.673478    2.355012
     26          1           0       -2.828159    3.728251    1.299519
     27          1           0       -2.630398    2.776065    2.768512
     28          1           0       -4.164166    3.581066    2.442689
     29          6           0       -1.063192    5.032874    2.935307
     30          1           0       -0.689091    5.909938    3.458605
     31          1           0       -0.568034    4.153005    3.339882
     32          1           0       -0.792776    5.127930    1.886167
     33          1           0       -4.341489    6.107592    2.676338
     34          1           0        6.177190   -1.617226   -6.459680
     35          6           0        5.179679   -1.676148   -6.022753
     36          1           0        5.033722   -2.678281   -5.621036
     37          6           0        5.007985   -0.634465   -4.921249
     38          1           0        5.736469   -0.815901   -4.128425
     39          1           0        5.165859    0.364575   -5.335283
     40          6           0        3.580681   -0.677533   -4.308956
     41          8           0        3.426863   -1.347157   -3.264896
     42          8           0        2.701710   -0.022055   -4.889379
     43          1           0        4.444442   -1.510578   -6.808397
     44          1           0       -5.811798    1.669058   -6.635341
     45          6           0       -5.291153    1.262427   -5.772424
     46          1           0       -5.233530    0.180737   -5.850215
     47          1           0       -4.277116    1.658233   -5.748403
     48          6           0       -5.994496    1.631194   -4.477915
     49          8           0       -6.036454    0.893922   -3.511226
     50          7           0       -6.570150    2.853789   -4.479923
     51          1           0       -6.476113    3.440517   -5.293899
     52          6           0       -7.286719    3.413320   -3.351312
     53          1           0       -7.217193    2.683262   -2.544453
     54          6           0       -6.723354    4.767173   -2.920986
     55          1           0       -6.803430    5.462428   -3.762315
     56          1           0       -7.350339    5.152455   -2.113873
     57          6           0       -5.265446    4.725787   -2.446882
     58          1           0       -4.651840    4.283355   -3.239223
     59          6           0       -4.773418    6.149299   -2.187887
     60          1           0       -5.363233    6.611300   -1.398042
     61          1           0       -3.731133    6.147084   -1.879261
     62          1           0       -4.860976    6.761106   -3.083716
     63          6           0       -5.107658    3.880559   -1.187247
     64          1           0       -5.329531    2.836383   -1.385498
     65          1           0       -4.084266    3.940253   -0.827576
     66          1           0       -5.769180    4.236574   -0.399920
     67          1           0       -8.343647    3.531117   -3.621638
     68          1           0       -9.843086    0.249719    1.311141
     69          6           0       -8.858397    0.298402    1.772779
     70          1           0       -8.546532   -0.710144    2.036248
     71          6           0       -7.839852    0.920852    0.817253
     72          1           0       -8.158676    1.946276    0.589512
     73          6           0       -6.462540    0.963895    1.472035
     74          1           0       -6.122705   -0.049576    1.672922
     75          1           0       -5.739050    1.443210    0.817610
     76          1           0       -6.495038    1.513571    2.411031
     77          6           0       -7.769713    0.123959   -0.481897
     78          1           0       -8.749432    0.053766   -0.951181
     79          1           0       -7.084277    0.581665   -1.190055
     80          1           0       -7.409891   -0.879950   -0.274563
     81          1           0       -8.936136    0.883226    2.687296
     82          1           0        3.112392   -2.386364    7.229088
     83          6           0        2.317418   -1.965529    7.840793
     84          1           0        2.500493   -2.228598    8.880707
     85          6           0        2.265084   -0.445400    7.670348
     86          1           0        1.469715   -0.042142    8.302194
     87          1           0        3.213356   -0.017907    8.006299
     88          6           0        2.019671   -0.053943    6.237315
     89          6           0        0.735901    0.217659    5.783247
     90          1           0       -0.097143    0.154031    6.471829
     91          6           0        0.513269    0.579916    4.465481
     92          1           0       -0.491095    0.797228    4.130532
     93          6           0        1.573689    0.670794    3.581214
     94          1           0        1.407168    0.955207    2.552484
     95          6           0        2.859136    0.400707    4.020548
     96          1           0        3.690531    0.488934    3.339231
     97          6           0        3.075477    0.038585    5.338469
     98          1           0        4.081557   -0.165756    5.678759
     99          1           0        1.376275   -2.412889    7.527825
    100          1           0       -3.160312   -2.498276    5.377589
    101          6           0       -3.513795   -2.885715    4.423541
    102          1           0       -4.599347   -2.811936    4.402709
    103          6           0       -2.899601   -2.091155    3.271429
    104          1           0       -3.300289   -2.478160    2.327620
    105          6           0       -3.282957   -0.618226    3.378271
    106          1           0       -2.894091   -0.191435    4.301390
    107          1           0       -2.877717   -0.057899    2.538671
    108          1           0       -4.364228   -0.503067    3.373363
    109          6           0       -1.382383   -2.252530    3.260575
    110          1           0       -1.109532   -3.299301    3.152616
    111          1           0       -0.942519   -1.701525    2.432912
    112          1           0       -0.948176   -1.877218    4.185210
    113          1           0       -3.233509   -3.935933    4.360100
    114          1           0       -8.629661   -4.240288    2.287714
    115          6           0       -9.213237   -4.535512    1.418465
    116          1           0      -10.267864   -4.417307    1.655961
    117          6           0       -8.834987   -3.674042    0.218651
    118          1           0       -9.422505   -3.974203   -0.653286
    119          1           0       -9.067632   -2.630251    0.436192
    120          6           0       -7.359916   -3.789895   -0.139491
    121          1           0       -7.084312   -4.825485   -0.330927
    122          1           0       -7.121712   -3.193332   -1.020707
    123         16           0       -6.279358   -3.204652    1.221958
    124          6           0       -5.357012   -4.729586    1.562209
    125          1           0       -4.778636   -5.002728    0.683376
    126          1           0       -4.692331   -4.518604    2.392466
    127          1           0       -6.048182   -5.523486    1.832536
    128          1           0       -9.022751   -5.587650    1.211732
    129          1           0       -2.814779   -8.205805    3.160971
    130          6           0       -1.831273   -7.738628    3.152886
    131          1           0       -1.083946   -8.527453    3.164600
    132          6           0       -1.674327   -6.851080    1.925169
    133          1           0       -1.718606   -7.465704    1.023028
    134          1           0       -2.512318   -6.149884    1.887282
    135          6           0       -0.369703   -6.049462    1.916276
    136          1           0       -0.320714   -5.461752    2.841917
    137          6           0        0.855944   -6.954126    1.857635
    138          1           0        0.792289   -7.612130    0.994471
    139          1           0        1.749609   -6.344854    1.757700
    140          1           0        0.951670   -7.559095    2.756589
    141          6           0       -0.360982   -5.095798    0.725540
    142          1           0       -1.213001   -4.420814    0.766011
    143          1           0        0.547396   -4.500466    0.715520
    144          1           0       -0.401759   -5.659124   -0.204424
    145          1           0       -1.725444   -7.151192    4.063385
    146          1           0        2.919085   -5.224933    3.863596
    147          6           0        3.838564   -4.819381    3.446400
    148          1           0        4.012376   -5.280813    2.479075
    149          6           0        3.733222   -3.302875    3.288006
    150          1           0        3.535833   -2.856732    4.270238
    151          6           0        5.040408   -2.729686    2.747900
    152          1           0        5.265935   -3.170561    1.778660
    153          1           0        4.963351   -1.651604    2.628963
    154          1           0        5.866813   -2.944899    3.423722
    155          6           0        2.578134   -2.944961    2.358582
    156          1           0        1.639819   -3.336759    2.744828
    157          1           0        2.484974   -1.865384    2.273054
    158          1           0        2.748472   -3.361936    1.367313
    159          1           0        4.661498   -5.083352    4.108913
    160          1           0        7.537040    0.417069    3.299780
    161          6           0        7.883077    0.169020    2.299304
    162          1           0        7.333421   -0.705359    1.961581
    163          6           0        7.638904    1.332930    1.354663
    164          1           0        8.188763    2.223599    1.666236
    165          1           0        7.963304    1.084960    0.341804
    166          6           0        6.165365    1.694138    1.294368
    167          8           0        5.299941    1.067129    1.855147
    168          8           0        5.952869    2.766263    0.563640
    169          1           0        4.963501    3.027677    0.542090
    170          1           0        8.942662   -0.074979    2.342935
    171          1           0        9.933830    4.730898   -1.994192
    172          6           0        9.447326    4.169212   -2.788378
    173          1           0       10.207781    3.815555   -3.482262
    174          6           0        8.661924    2.995144   -2.213048
    175          1           0        9.347892    2.301522   -1.717149
    176          1           0        7.954408    3.357131   -1.463819
    177          6           0        7.904951    2.235593   -3.294554
    178          1           0        8.568033    1.981961   -4.122035
    179          1           0        7.456735    1.322601   -2.904451
    180         16           0        6.545375    3.212865   -4.024795
    181          6           0        5.208358    2.785453   -2.878017
    182          1           0        5.525089    2.986504   -1.859147
    183          1           0        4.363918    3.416828   -3.133372
    184          1           0        4.935277    1.741550   -3.008088
    185          1           0        8.773769    4.832617   -3.325658
    186          1           0        7.339744   -1.414696   -2.494345
    187          6           0        6.954967   -1.794666   -1.548884
    188          1           0        7.765729   -1.764299   -0.819858
    189          6           0        5.765589   -0.969214   -1.080010
    190          1           0        4.939316   -1.055692   -1.782779
    191          1           0        5.422632   -1.301981   -0.102750
    192          1           0        6.036507    0.081986   -0.998156
    193          1           0        6.671934   -2.833104   -1.702981
    194          1           0        5.894028   -7.439112   -1.279182
    195          6           0        5.128558   -7.817458   -0.604421
    196          1           0        5.598027   -8.487311    0.114176
    197          6           0        4.434753   -6.660032    0.114545
    198          1           0        3.701381   -7.079257    0.809797
    199          1           0        5.180747   -6.108188    0.692962
    200          6           0        3.752594   -5.715551   -0.824326
    201          6           0        4.128854   -4.432424   -1.119654
    202          1           0        4.959151   -3.876113   -0.729018
    203          7           0        3.275223   -3.865385   -2.015841
    204          1           0        3.361668   -2.936919   -2.433663
    205          6           0        2.315517   -4.775507   -2.324923
    206          6           0        1.222749   -4.667760   -3.177638
    207          1           0        1.045964   -3.753831   -3.723373
    208          6           0        0.390499   -5.758444   -3.294166
    209          1           0       -0.472400   -5.708810   -3.943142
    210          6           0        0.638234   -6.938807   -2.584730
    211          1           0       -0.038746   -7.774526   -2.707755
    212          6           0        1.719667   -7.055967   -1.741349
    213          1           0        1.901032   -7.976382   -1.202780
    214          6           0        2.576934   -5.965130   -1.593007
    215          1           0        4.410226   -8.383612   -1.192367
    216          6           0        2.551210    2.865979   -0.055648
    217          8           0        3.494886    3.549021    0.362579
    218          6           0        2.556294    1.438922   -0.111728
    219          6           0        1.534736    0.697882   -0.611768
    220          6           0        0.248426    1.332343   -1.042689
    221          6           0        0.083723    2.706369   -0.388848
    222          6           0        1.327577    3.549666   -0.606839
    223          6           0        1.724312   -0.751104   -0.845592
    224          6           0        0.462662   -1.603417   -0.739813
    225          6           0       -0.703679   -0.938014   -1.464014
    226          6           0       -0.968409    0.419650   -0.792041
    227          6           0       -1.967559   -1.787779   -1.414642
    228          6           0       -3.171936   -1.088691   -2.060950
    229          6           0       -3.469374    0.176660   -1.268557
    230          6           0       -2.251050    1.097478   -1.292602
    231          6           0       -1.969979   -3.149002   -2.108541
    232          6           0       -3.467134   -3.495660   -2.212305
    233          6           0       -4.244973   -2.187918   -1.934044
    234          6           0       -2.965936   -0.757410   -3.542110
    235          8           0       -5.345469   -2.071839   -2.808522
    236          1           0        3.457876    0.944183    0.223192
    237          1           0        0.321914    1.458490   -2.134090
    238          1           0       -0.089248    2.581230    0.684340
    239          1           0       -0.773909    3.229557   -0.812151
    240          1           0        1.494265    3.683632   -1.681091
    241          1           0        1.231084    4.537566   -0.152792
    242          1           0        2.504453   -1.139192   -0.188187
    243          1           0        2.125109   -0.844615   -1.873006
    244          1           0        0.203745   -1.748786    0.313835
    245          1           0        0.659085   -2.585852   -1.169014
    246          1           0       -0.406876   -0.766438   -2.499821
    247          1           0       -1.071708    0.253290    0.289072
    248          1           0       -2.217784   -1.949730   -0.356864
    249          1           0       -3.709461   -0.088081   -0.234828
    250          1           0       -4.332627    0.696838   -1.690001
    251          1           0       -2.085741    1.453298   -2.309553
    252          1           0       -2.471352    1.961460   -0.662824
    253          1           0       -1.415910   -3.904233   -1.556733
    254          1           0       -1.517827   -3.059699   -3.094762
    255          1           0       -3.744054   -4.266767   -1.493150
    256          1           0       -3.736889   -3.860358   -3.202848
    257          1           0       -4.617910   -2.189397   -0.895772
    258          1           0       -3.051949   -1.652317   -4.151210
    259          1           0       -3.736255   -0.059836   -3.858433
    260          1           0       -1.996767   -0.306870   -3.725284
    261          1           0       -5.560728   -1.132880   -2.904069
    262          8           0        0.290529    0.792793   -4.198368
    263          1           0        0.161633    1.313225   -4.992281
    264          1           0        1.189302    0.387197   -4.337219
 ---------------------------------------------------------------------
 Rotational constants (GHZ):           0.0134612           0.0118420           0.0092728
 Standard basis: 6-31G(d) (6D, 7F)
 There are  1849 symmetry adapted cartesian basis functions of A   symmetry.
 There are  1849 symmetry adapted basis functions of A   symmetry.
  1849 basis functions,  3528 primitive gaussians,  1849 cartesian basis functions
   405 alpha electrons      405 beta electrons
       nuclear repulsion energy     24094.2637446190 Hartrees.
 NAtoms=  264 NActive=  264 NUniq=  264 SFac= 1.00D+00 NAtFMM=   60 NAOKFM=T Big=T
 Integral buffers will be    131072 words long.
 Raffenetti 2 integral format.
 Two-electron integral symmetry is turned on.
 Nuclear repulsion after empirical dispersion term =    24093.9615546645 Hartrees.
 One-electron integrals computed using PRISM.
 NBasis=  1849 RedAO= T EigKep=  3.42D-04  NBF=  1849
 NBsUse=  1849 1.00D-06 EigRej= -1.00D+00 NBFU=  1849
 ExpMin= 1.17D-01 ExpMax= 2.19D+04 ExpMxC= 3.30D+03 IAcc=3 IRadAn=         5 AccDes= 0.00D+00
 Harris functional with IExCor= 4639 and IRadAn=       5 diagonalized for initial guess.
 HarFok:  IExCor= 4639 AccDes= 0.00D+00 IRadAn=         5 IDoV= 1 UseB2=F ITyADJ=14
 ICtDFT=  3500011 ScaDFX=  1.000000  1.000000  1.000000  1.000000
 FoFCou: FMM=F IPFlag=           0 FMFlag=      100000 FMFlg1=        2001
         NFxFlg=           0 DoJE=T BraDBF=F KetDBF=T FulRan=T
         wScrn=  0.000000 ICntrl=       500 IOpCl=  0 I1Cent=   200000004 NGrid=           0
         NMat0=    1 NMatS0=      1 NMatT0=    0 NMatD0=    1 NMtDS0=    0 NMtDT0=    0
 Petite list used in FoFCou.
 Requested convergence on RMS density matrix=1.00D-08 within 128 cycles.
 Requested convergence on MAX density matrix=1.00D-06.
 Requested convergence on             energy=1.00D-06.
 No special actions if energy rises.
 Integral accuracy reduced to 1.0D-05 until final iterations.
 Initial convergence to 1.0D-05 achieved.  Increase integral accuracy.
 SCF Done:  E(RwB97XD) =  -5033.49788795     A.U. after   15 cycles
            NFock= 15  Conv=0.34D-08     -V/T= 2.0081
 Hyperfine terms turned off by default for NAtoms > 100.

 **********************************************************************

            Population analysis using the SCF Density.

 **********************************************************************

 Orbital symmetries:
       Occupied  (A) (A) (A) (A) (A) (A) (A) (A) (A) (A) (A) (A)
                 (A) (A) (A) (A) (A) (A) (A) (A) (A) (A) (A) (A)
                 (A) (A) (A) (A) (A) (A) (A) (A) (A) (A) (A) (A)
                 (A) (A) (A) (A) (A) (A) (A) (A) (A) (A) (A) (A)
                 (A) (A) (A) (A) (A) (A) (A) (A) (A) (A) (A) (A)
                 (A) (A) (A) (A) (A) (A) (A) (A) (A) (A) (A) (A)
                 (A) (A) (A) (A) (A) (A) (A) (A) (A) (A) (A) (A)
                 (A) (A) (A) (A) (A) (A) (A) (A) (A) (A) (A) (A)
                 (A) (A) (A) (A) (A) (A) (A) (A) (A) (A) (A) (A)
                 (A) (A) (A) (A) (A) (A) (A) (A) (A) (A) (A) (A)
                 (A) (A) (A) (A) (A) (A) (A) (A) (A) (A) (A) (A)
                 (A) (A) (A) (A) (A) (A) (A) (A) (A) (A) (A) (A)
                 (A) (A) (A) (A) (A) (A) (A) (A) (A) (A) (A) (A)
                 (A) (A) (A) (A) (A) (A) (A) (A) (A) (A) (A) (A)
                 (A) (A) (A) (A) (A) (A) (A) (A) (A) (A) (A) (A)
                 (A) (A) (A) (A) (A) (A) (A) (A) (A) (A) (A) (A)
                 (A) (A) (A) (A) (A) (A) (A) (A) (A) (A) (A) (A)
                 (A) (A) (A) (A) (A) (A) (A) (A) (A) (A) (A) (A)
                 (A) (A) (A) (A) (A) (A) (A) (A) (A) (A) (A) (A)
                 (A) (A) (A) (A) (A) (A) (A) (A) (A) (A) (A) (A)
                 (A) (A) (A) (A) (A) (A) (A) (A) (A) (A) (A) (A)
                 (A) (A) (A) (A) (A) (A) (A) (A) (A) (A) (A) (A)
                 (A) (A) (A) (A) (A) (A) (A) (A) (A) (A) (A) (A)
                 (A) (A) (A) (A) (A) (A) (A) (A) (A) (A) (A) (A)
                 (A) (A) (A) (A) (A) (A) (A) (A) (A) (A) (A) (A)
                 (A) (A) (A) (A) (A) (A) (A) (A) (A) (A) (A) (A)
                 (A) (A) (A) (A) (A) (A) (A) (A) (A) (A) (A) (A)
                 (A) (A) (A) (A) (A) (A) (A) (A) (A) (A) (A) (A)
                 (A) (A) (A) (A) (A) (A) (A) (A) (A) (A) (A) (A)
                 (A) (A) (A) (A) (A) (A) (A) (A) (A) (A) (A) (A)
                 (A) (A) (A) (A) (A) (A) (A) (A) (A) (A) (A) (A)
                 (A) (A) (A) (A) (A) (A) (A) (A) (A) (A) (A) (A)
                 (A) (A) (A) (A) (A) (A) (A) (A) (A) (A) (A) (A)
                 (A) (A) (A) (A) (A) (A) (A) (A) (A)
       Virtual   (A) (A) (A) (A) (A) (A) (A) (A) (A) (A) (A) (A)
                 (A) (A) (A) (A) (A) (A) (A) (A) (A) (A) (A) (A)
                 (A) (A) (A) (A) (A) (A) (A) (A) (A) (A) (A) (A)
                 (A) (A) (A) (A) (A) (A) (A) (A) (A) (A) (A) (A)
                 (A) (A) (A) (A) (A) (A) (A) (A) (A) (A) (A) (A)
                 (A) (A) (A) (A) (A) (A) (A) (A) (A) (A) (A) (A)
                 (A) (A) (A) (A) (A) (A) (A) (A) (A) (A) (A) (A)
                 (A) (A) (A) (A) (A) (A) (A) (A) (A) (A) (A) (A)
                 (A) (A) (A) (A) (A) (A) (A) (A) (A) (A) (A) (A)
                 (A) (A) (A) (A) (A) (A) (A) (A) (A) (A) (A) (A)
                 (A) (A) (A) (A) (A) (A) (A) (A) (A) (A) (A) (A)
                 (A) (A) (A) (A) (A) (A) (A) (A) (A) (A) (A) (A)
                 (A) (A) (A) (A) (A) (A) (A) (A) (A) (A) (A) (A)
                 (A) (A) (A) (A) (A) (A) (A) (A) (A) (A) (A) (A)
                 (A) (A) (A) (A) (A) (A) (A) (A) (A) (A) (A) (A)
                 (A) (A) (A) (A) (A) (A) (A) (A) (A) (A) (A) (A)
                 (A) (A) (A) (A) (A) (A) (A) (A) (A) (A) (A) (A)
                 (A) (A) (A) (A) (A) (A) (A) (A) (A) (A) (A) (A)
                 (A) (A) (A) (A) (A) (A) (A) (A) (A) (A) (A) (A)
                 (A) (A) (A) (A) (A) (A) (A) (A) (A) (A) (A) (A)
                 (A) (A) (A) (A) (A) (A) (A) (A) (A) (A) (A) (A)
                 (A) (A) (A) (A) (A) (A) (A) (A) (A) (A) (A) (A)
                 (A) (A) (A) (A) (A) (A) (A) (A) (A) (A) (A) (A)
                 (A) (A) (A) (A) (A) (A) (A) (A) (A) (A) (A) (A)
                 (A) (A) (A) (A) (A) (A) (A) (A) (A) (A) (A) (A)
                 (A) (A) (A) (A) (A) (A) (A) (A) (A) (A) (A) (A)
                 (A) (A) (A) (A) (A) (A) (A) (A) (A) (A) (A) (A)
                 (A) (A) (A) (A) (A) (A) (A) (A) (A) (A) (A) (A)
                 (A) (A) (A) (A) (A) (A) (A) (A) (A) (A) (A) (A)
                 (A) (A) (A) (A) (A) (A) (A) (A) (A) (A) (A) (A)
                 (A) (A) (A) (A) (A) (A) (A) (A) (A) (A) (A) (A)
                 (A) (A) (A) (A) (A) (A) (A) (A) (A) (A) (A) (A)
                 (A) (A) (A) (A) (A) (A) (A) (A) (A) (A) (A) (A)
                 (A) (A) (A) (A) (A) (A) (A) (A) (A) (A) (A) (A)
                 (A) (A) (A) (A) (A) (A) (A) (A) (A) (A) (A) (A)
                 (A) (A) (A) (A) (A) (A) (A) (A) (A) (A) (A) (A)
                 (A) (A) (A) (A) (A) (A) (A) (A) (A) (A) (A) (A)
                 (A) (A) (A) (A) (A) (A) (A) (A) (A) (A) (A) (A)
                 (A) (A) (A) (A) (A) (A) (A) (A) (A) (A) (A) (A)
                 (A) (A) (A) (A) (A) (A) (A) (A) (A) (A) (A) (A)
                 (A) (A) (A) (A) (A) (A) (A) (A) (A) (A) (A) (A)
                 (A) (A) (A) (A) (A) (A) (A) (A) (A) (A) (A) (A)
                 (A) (A) (A) (A) (A) (A) (A) (A) (A) (A) (A) (A)
                 (A) (A) (A) (A) (A) (A) (A) (A) (A) (A) (A) (A)
                 (A) (A) (A) (A) (A) (A) (A) (A) (A) (A) (A) (A)
                 (A) (A) (A) (A) (A) (A) (A) (A) (A) (A) (A) (A)
                 (A) (A) (A) (A) (A) (A) (A) (A) (A) (A) (A) (A)
                 (A) (A) (A) (A) (A) (A) (A) (A) (A) (A) (A) (A)
                 (A) (A) (A) (A) (A) (A) (A) (A) (A) (A) (A) (A)
                 (A) (A) (A) (A) (A) (A) (A) (A) (A) (A) (A) (A)
                 (A) (A) (A) (A) (A) (A) (A) (A) (A) (A) (A) (A)
                 (A) (A) (A) (A) (A) (A) (A) (A) (A) (A) (A) (A)
                 (A) (A) (A) (A) (A) (A) (A) (A) (A) (A) (A) (A)
                 (A) (A) (A) (A) (A) (A) (A) (A) (A) (A) (A) (A)
                 (A) (A) (A) (A) (A) (A) (A) (A) (A) (A) (A) (A)
                 (A) (A) (A) (A) (A) (A) (A) (A) (A) (A) (A) (A)
                 (A) (A) (A) (A) (A) (A) (A) (A) (A) (A) (A) (A)
                 (A) (A) (A) (A) (A) (A) (A) (A) (A) (A) (A) (A)
                 (A) (A) (A) (A) (A) (A) (A) (A) (A) (A) (A) (A)
                 (A) (A) (A) (A) (A) (A) (A) (A) (A) (A) (A) (A)
                 (A) (A) (A) (A) (A) (A) (A) (A) (A) (A) (A) (A)
                 (A) (A) (A) (A) (A) (A) (A) (A) (A) (A) (A) (A)
                 (A) (A) (A) (A) (A) (A) (A) (A) (A) (A) (A) (A)
                 (A) (A) (A) (A) (A) (A) (A) (A) (A) (A) (A) (A)
                 (A) (A) (A) (A) (A) (A) (A) (A) (A) (A) (A) (A)
                 (A) (A) (A) (A) (A) (A) (A) (A) (A) (A) (A) (A)
                 (A) (A) (A) (A) (A) (A) (A) (A) (A) (A) (A) (A)
                 (A) (A) (A) (A) (A) (A) (A) (A) (A) (A) (A) (A)
                 (A) (A) (A) (A) (A) (A) (A) (A) (A) (A) (A) (A)
                 (A) (A) (A) (A) (A) (A) (A) (A) (A) (A) (A) (A)
                 (A) (A) (A) (A) (A) (A) (A) (A) (A) (A) (A) (A)
                 (A) (A) (A) (A) (A) (A) (A) (A) (A) (A) (A) (A)
                 (A) (A) (A) (A) (A) (A) (A) (A) (A) (A) (A) (A)
                 (A) (A) (A) (A) (A) (A) (A) (A) (A) (A) (A) (A)
                 (A) (A) (A) (A) (A) (A) (A) (A) (A) (A) (A) (A)
                 (A) (A) (A) (A) (A) (A) (A) (A) (A) (A) (A) (A)
                 (A) (A) (A) (A) (A) (A) (A) (A) (A) (A) (A) (A)
                 (A) (A) (A) (A) (A) (A) (A) (A) (A) (A) (A) (A)
                 (A) (A) (A) (A) (A) (A) (A) (A) (A) (A) (A) (A)
                 (A) (A) (A) (A) (A) (A) (A) (A) (A) (A) (A) (A)
                 (A) (A) (A) (A) (A) (A) (A) (A) (A) (A) (A) (A)
                 (A) (A) (A) (A) (A) (A) (A) (A) (A) (A) (A) (A)
                 (A) (A) (A) (A) (A) (A) (A) (A) (A) (A) (A) (A)
                 (A) (A) (A) (A) (A) (A) (A) (A) (A) (A) (A) (A)
                 (A) (A) (A) (A) (A) (A) (A) (A) (A) (A) (A) (A)
                 (A) (A) (A) (A) (A) (A) (A) (A) (A) (A) (A) (A)
                 (A) (A) (A) (A) (A) (A) (A) (A) (A) (A) (A) (A)
                 (A) (A) (A) (A) (A) (A) (A) (A) (A) (A) (A) (A)
                 (A) (A) (A) (A) (A) (A) (A) (A) (A) (A) (A) (A)
                 (A) (A) (A) (A) (A) (A) (A) (A) (A) (A) (A) (A)
                 (A) (A) (A) (A) (A) (A) (A) (A) (A) (A) (A) (A)
                 (A) (A) (A) (A) (A) (A) (A) (A) (A) (A) (A) (A)
                 (A) (A) (A) (A) (A) (A) (A) (A) (A) (A) (A) (A)
                 (A) (A) (A) (A) (A) (A) (A) (A) (A) (A) (A) (A)
                 (A) (A) (A) (A) (A) (A) (A) (A) (A) (A) (A) (A)
                 (A) (A) (A) (A) (A) (A) (A) (A) (A) (A) (A) (A)
                 (A) (A) (A) (A) (A) (A) (A) (A) (A) (A) (A) (A)
                 (A) (A) (A) (A) (A) (A) (A) (A) (A) (A) (A) (A)
                 (A) (A) (A) (A) (A) (A) (A) (A) (A) (A) (A) (A)
                 (A) (A) (A) (A) (A) (A) (A) (A) (A) (A) (A) (A)
                 (A) (A) (A) (A) (A) (A) (A) (A) (A) (A) (A) (A)
                 (A) (A) (A) (A) (A) (A) (A) (A) (A) (A) (A) (A)
                 (A) (A) (A) (A) (A) (A) (A) (A) (A) (A) (A) (A)
                 (A) (A) (A) (A) (A) (A) (A) (A) (A) (A) (A) (A)
                 (A) (A) (A) (A) (A) (A) (A) (A) (A) (A) (A) (A)
                 (A) (A) (A) (A) (A) (A) (A) (A) (A) (A) (A) (A)
                 (A) (A) (A) (A) (A) (A) (A) (A) (A) (A) (A) (A)
                 (A) (A) (A) (A) (A) (A) (A) (A) (A) (A) (A) (A)
                 (A) (A) (A) (A) (A) (A) (A) (A) (A) (A) (A) (A)
                 (A) (A) (A) (A) (A) (A) (A) (A) (A) (A) (A) (A)
                 (A) (A) (A) (A) (A) (A) (A) (A) (A) (A) (A) (A)
                 (A) (A) (A) (A) (A) (A) (A) (A) (A) (A) (A) (A)
                 (A) (A) (A) (A) (A) (A) (A) (A) (A) (A) (A) (A)
                 (A) (A) (A) (A) (A) (A) (A) (A) (A) (A) (A) (A)
                 (A) (A) (A) (A) (A) (A) (A) (A) (A) (A) (A) (A)
                 (A) (A) (A) (A) (A) (A) (A) (A) (A) (A) (A) (A)
                 (A) (A) (A) (A) (A) (A) (A) (A) (A) (A) (A) (A)
                 (A) (A) (A) (A) (A) (A) (A) (A) (A) (A) (A) (A)
                 (A) (A) (A) (A) (A) (A) (A) (A) (A) (A) (A) (A)
                 (A) (A) (A) (A) (A) (A) (A) (A) (A) (A) (A) (A)
                 (A) (A) (A) (A)
 The electronic state is 1-A.
 Alpha  occ. eigenvalues --  -88.96586 -88.94291 -19.25265 -19.20847 -19.19383
 Alpha  occ. eigenvalues --  -19.18155 -19.16851 -19.16637 -19.13394 -19.09900
 Alpha  occ. eigenvalues --  -19.09582 -14.43534 -14.38174 -10.35922 -10.34020
 Alpha  occ. eigenvalues --  -10.30615 -10.30336 -10.28477 -10.26870 -10.25460
 Alpha  occ. eigenvalues --  -10.25426 -10.25294 -10.25139 -10.24844 -10.24719
 Alpha  occ. eigenvalues --  -10.24660 -10.24504 -10.24287 -10.24261 -10.24191
 Alpha  occ. eigenvalues --  -10.24123 -10.23971 -10.23883 -10.23732 -10.23645
 Alpha  occ. eigenvalues --  -10.23355 -10.23201 -10.23199 -10.23044 -10.22990
 Alpha  occ. eigenvalues --  -10.22909 -10.22873 -10.22870 -10.22531 -10.22448
 Alpha  occ. eigenvalues --  -10.22426 -10.22275 -10.22269 -10.22202 -10.22133
 Alpha  occ. eigenvalues --  -10.22059 -10.21872 -10.21831 -10.21811 -10.21789
 Alpha  occ. eigenvalues --  -10.21643 -10.21593 -10.21583 -10.21549 -10.21510
 Alpha  occ. eigenvalues --  -10.21428 -10.21402 -10.21269 -10.21268 -10.21187
 Alpha  occ. eigenvalues --  -10.21149 -10.21080 -10.20869 -10.20816 -10.20803
 Alpha  occ. eigenvalues --  -10.20757 -10.20723 -10.20708 -10.20671 -10.20662
 Alpha  occ. eigenvalues --  -10.20307 -10.20244 -10.20159 -10.19995 -10.19976
 Alpha  occ. eigenvalues --  -10.19945 -10.19866 -10.19836 -10.19788 -10.19730
 Alpha  occ. eigenvalues --  -10.19639 -10.19443 -10.19434 -10.19419 -10.19408
 Alpha  occ. eigenvalues --  -10.19343 -10.18956 -10.18917 -10.18796 -10.18784
 Alpha  occ. eigenvalues --  -10.18757 -10.18573 -10.18451 -10.17978 -10.17959
 Alpha  occ. eigenvalues --  -10.17868  -7.98397  -7.96232  -5.93452  -5.93071
 Alpha  occ. eigenvalues --   -5.92377  -5.91275  -5.90886  -5.90210  -1.11216
 Alpha  occ. eigenvalues --   -1.11213  -1.09836  -1.05740  -1.02225  -1.01978
 Alpha  occ. eigenvalues --   -1.01908  -0.98424  -0.98396  -0.97144  -0.92445
 Alpha  occ. eigenvalues --   -0.90609  -0.88540  -0.88392  -0.86602  -0.86210
 Alpha  occ. eigenvalues --   -0.85333  -0.85063  -0.83856  -0.83829  -0.83648
 Alpha  occ. eigenvalues --   -0.83624  -0.83256  -0.83241  -0.81899  -0.81829
 Alpha  occ. eigenvalues --   -0.81621  -0.81460  -0.81188  -0.80521  -0.80334
 Alpha  occ. eigenvalues --   -0.79884  -0.79590  -0.77761  -0.77640  -0.76951
 Alpha  occ. eigenvalues --   -0.76650  -0.76594  -0.76322  -0.76272  -0.75974
 Alpha  occ. eigenvalues --   -0.75688  -0.75085  -0.74941  -0.73947  -0.72922
 Alpha  occ. eigenvalues --   -0.72853  -0.72846  -0.72002  -0.71662  -0.71600
 Alpha  occ. eigenvalues --   -0.71522  -0.71180  -0.71032  -0.70932  -0.70869
 Alpha  occ. eigenvalues --   -0.70482  -0.69849  -0.69611  -0.69030  -0.68683
 Alpha  occ. eigenvalues --   -0.68503  -0.68082  -0.68053  -0.67463  -0.66480
 Alpha  occ. eigenvalues --   -0.65997  -0.65562  -0.64622  -0.64436  -0.64234
 Alpha  occ. eigenvalues --   -0.63938  -0.63860  -0.62527  -0.62287  -0.62205
 Alpha  occ. eigenvalues --   -0.62110  -0.61848  -0.61647  -0.60798  -0.60234
 Alpha  occ. eigenvalues --   -0.60062  -0.59463  -0.59037  -0.59014  -0.58677
 Alpha  occ. eigenvalues --   -0.58581  -0.58344  -0.58013  -0.57955  -0.57944
 Alpha  occ. eigenvalues --   -0.57183  -0.56628  -0.55798  -0.55589  -0.55188
 Alpha  occ. eigenvalues --   -0.54054  -0.53457  -0.53175  -0.52849  -0.52653
 Alpha  occ. eigenvalues --   -0.52247  -0.51926  -0.51209  -0.50703  -0.50330
 Alpha  occ. eigenvalues --   -0.49963  -0.49860  -0.49419  -0.49355  -0.49059
 Alpha  occ. eigenvalues --   -0.48949  -0.48848  -0.48807  -0.48739  -0.48665
 Alpha  occ. eigenvalues --   -0.48568  -0.48513  -0.48293  -0.48167  -0.48074
 Alpha  occ. eigenvalues --   -0.47981  -0.47703  -0.47636  -0.47394  -0.47282
 Alpha  occ. eigenvalues --   -0.47199  -0.47042  -0.46925  -0.46754  -0.46618
 Alpha  occ. eigenvalues --   -0.46500  -0.46168  -0.46032  -0.45780  -0.45565
 Alpha  occ. eigenvalues --   -0.45481  -0.45454  -0.45264  -0.45245  -0.45149
 Alpha  occ. eigenvalues --   -0.45000  -0.44897  -0.44784  -0.44717  -0.44629
 Alpha  occ. eigenvalues --   -0.44536  -0.44481  -0.44357  -0.44334  -0.44218
 Alpha  occ. eigenvalues --   -0.44169  -0.43899  -0.43790  -0.43709  -0.43702
 Alpha  occ. eigenvalues --   -0.43497  -0.43368  -0.43152  -0.43087  -0.42939
 Alpha  occ. eigenvalues --   -0.42858  -0.42589  -0.42527  -0.42490  -0.42431
 Alpha  occ. eigenvalues --   -0.42217  -0.42209  -0.42094  -0.41818  -0.41805
 Alpha  occ. eigenvalues --   -0.41719  -0.41599  -0.41458  -0.41284  -0.41108
 Alpha  occ. eigenvalues --   -0.41035  -0.40957  -0.40753  -0.40561  -0.40507
 Alpha  occ. eigenvalues --   -0.40457  -0.40421  -0.40296  -0.40065  -0.40010
 Alpha  occ. eigenvalues --   -0.39916  -0.39841  -0.39622  -0.39586  -0.39456
 Alpha  occ. eigenvalues --   -0.39409  -0.39300  -0.39142  -0.39075  -0.38959
 Alpha  occ. eigenvalues --   -0.38902  -0.38806  -0.38556  -0.38486  -0.38102
 Alpha  occ. eigenvalues --   -0.38007  -0.37977  -0.37897  -0.37885  -0.37731
 Alpha  occ. eigenvalues --   -0.37546  -0.37380  -0.37265  -0.37220  -0.37117
 Alpha  occ. eigenvalues --   -0.36858  -0.36776  -0.36753  -0.36593  -0.36540
 Alpha  occ. eigenvalues --   -0.36431  -0.36346  -0.36303  -0.36053  -0.35990
 Alpha  occ. eigenvalues --   -0.35899  -0.35862  -0.35783  -0.35762  -0.35751
 Alpha  occ. eigenvalues --   -0.35638  -0.35625  -0.35556  -0.35499  -0.35356
 Alpha  occ. eigenvalues --   -0.35307  -0.35283  -0.35238  -0.35166  -0.34880
 Alpha  occ. eigenvalues --   -0.34492  -0.34334  -0.34109  -0.33960  -0.33922
 Alpha  occ. eigenvalues --   -0.33918  -0.33768  -0.33740  -0.33685  -0.33658
 Alpha  occ. eigenvalues --   -0.33615  -0.33512  -0.33495  -0.33382  -0.33373
 Alpha  occ. eigenvalues --   -0.33277  -0.33233  -0.33149  -0.33041  -0.32969
 Alpha  occ. eigenvalues --   -0.32943  -0.32258  -0.32090  -0.31992  -0.31818
 Alpha  occ. eigenvalues --   -0.31748  -0.31718  -0.31647  -0.31454  -0.31316
 Alpha  occ. eigenvalues --   -0.31208  -0.31107  -0.31020  -0.30759  -0.30525
 Alpha  occ. eigenvalues --   -0.30257  -0.29337  -0.29226  -0.29041  -0.28871
 Alpha  occ. eigenvalues --   -0.28325  -0.27428  -0.27082  -0.26612  -0.26026
 Alpha  occ. eigenvalues --   -0.25954  -0.25843  -0.24840  -0.24762  -0.24733
 Alpha  occ. eigenvalues --   -0.23913  -0.23720  -0.23636  -0.22391  -0.21762
 Alpha  occ. eigenvalues --   -0.21116  -0.20077  -0.20047  -0.19846  -0.17688
 Alpha virt. eigenvalues --    0.10264   0.12263   0.13879   0.14694   0.14873
 Alpha virt. eigenvalues --    0.14929   0.14995   0.16309   0.17721   0.17979
 Alpha virt. eigenvalues --    0.18882   0.19005   0.19390   0.19716   0.19917
 Alpha virt. eigenvalues --    0.20122   0.20419   0.20729   0.21251   0.21803
 Alpha virt. eigenvalues --    0.22086   0.22147   0.22509   0.22581   0.22817
 Alpha virt. eigenvalues --    0.23065   0.23258   0.23598   0.23782   0.23887
 Alpha virt. eigenvalues --    0.24004   0.24214   0.24318   0.24367   0.24520
 Alpha virt. eigenvalues --    0.24639   0.24835   0.24950   0.25059   0.25364
 Alpha virt. eigenvalues --    0.25533   0.25714   0.25752   0.25846   0.25912
 Alpha virt. eigenvalues --    0.26212   0.26557   0.26770   0.26869   0.27032
 Alpha virt. eigenvalues --    0.27112   0.27263   0.27368   0.27475   0.27620
 Alpha virt. eigenvalues --    0.27659   0.27757   0.27941   0.28033   0.28183
 Alpha virt. eigenvalues --    0.28240   0.28375   0.28535   0.28585   0.28640
 Alpha virt. eigenvalues --    0.28725   0.28894   0.28989   0.29077   0.29101
 Alpha virt. eigenvalues --    0.29194   0.29411   0.29534   0.29553   0.29681
 Alpha virt. eigenvalues --    0.29778   0.29929   0.30046   0.30237   0.30283
 Alpha virt. eigenvalues --    0.30333   0.30562   0.30638   0.30717   0.30759
 Alpha virt. eigenvalues --    0.30852   0.30925   0.31073   0.31117   0.31194
 Alpha virt. eigenvalues --    0.31251   0.31349   0.31440   0.31529   0.31587
 Alpha virt. eigenvalues --    0.31685   0.31913   0.32022   0.32046   0.32078
 Alpha virt. eigenvalues --    0.32097   0.32195   0.32388   0.32408   0.32605
 Alpha virt. eigenvalues --    0.32659   0.32735   0.32791   0.32918   0.32935
 Alpha virt. eigenvalues --    0.33003   0.33085   0.33160   0.33190   0.33290
 Alpha virt. eigenvalues --    0.33410   0.33577   0.33688   0.33696   0.33777
 Alpha virt. eigenvalues --    0.33898   0.33985   0.34084   0.34198   0.34321
 Alpha virt. eigenvalues --    0.34413   0.34442   0.34581   0.34623   0.34683
 Alpha virt. eigenvalues --    0.34805   0.34849   0.35040   0.35053   0.35129
 Alpha virt. eigenvalues --    0.35274   0.35311   0.35320   0.35405   0.35619
 Alpha virt. eigenvalues --    0.35680   0.35887   0.35955   0.36097   0.36197
 Alpha virt. eigenvalues --    0.36292   0.36357   0.36404   0.36512   0.36579
 Alpha virt. eigenvalues --    0.36661   0.36749   0.36771   0.36897   0.37020
 Alpha virt. eigenvalues --    0.37127   0.37134   0.37317   0.37500   0.37532
 Alpha virt. eigenvalues --    0.37664   0.37756   0.37933   0.37975   0.38070
 Alpha virt. eigenvalues --    0.38204   0.38362   0.38445   0.38582   0.38680
 Alpha virt. eigenvalues --    0.38728   0.38852   0.39110   0.39305   0.39317
 Alpha virt. eigenvalues --    0.39391   0.39498   0.39522   0.39555   0.39692
 Alpha virt. eigenvalues --    0.39831   0.39953   0.39972   0.40246   0.40435
 Alpha virt. eigenvalues --    0.40617   0.40722   0.40955   0.40963   0.41089
 Alpha virt. eigenvalues --    0.41128   0.41400   0.41446   0.41455   0.41629
 Alpha virt. eigenvalues --    0.41673   0.41796   0.41872   0.41954   0.42102
 Alpha virt. eigenvalues --    0.42244   0.42369   0.42420   0.42628   0.42666
 Alpha virt. eigenvalues --    0.42821   0.42844   0.43070   0.43231   0.43395
 Alpha virt. eigenvalues --    0.43622   0.43889   0.44017   0.44099   0.44201
 Alpha virt. eigenvalues --    0.44258   0.44473   0.44727   0.45024   0.45285
 Alpha virt. eigenvalues --    0.45326   0.45478   0.45717   0.45900   0.46088
 Alpha virt. eigenvalues --    0.46290   0.46515   0.46679   0.47061   0.47105
 Alpha virt. eigenvalues --    0.47398   0.47462   0.47558   0.47875   0.48024
 Alpha virt. eigenvalues --    0.48516   0.48701   0.48838   0.48965   0.49075
 Alpha virt. eigenvalues --    0.49646   0.49694   0.49756   0.50152   0.50306
 Alpha virt. eigenvalues --    0.50866   0.51095   0.51397   0.51454   0.52172
 Alpha virt. eigenvalues --    0.52530   0.52692   0.52954   0.53401   0.53702
 Alpha virt. eigenvalues --    0.54229   0.55110   0.55439   0.55890   0.56677
 Alpha virt. eigenvalues --    0.57104   0.58187   0.58666   0.59478   0.59533
 Alpha virt. eigenvalues --    0.59596   0.60043   0.60336   0.60645   0.61063
 Alpha virt. eigenvalues --    0.61174   0.61679   0.61790   0.62294   0.62905
 Alpha virt. eigenvalues --    0.63024   0.63158   0.63317   0.63828   0.63992
 Alpha virt. eigenvalues --    0.64398   0.64492   0.64744   0.64946   0.65108
 Alpha virt. eigenvalues --    0.65281   0.65480   0.65623   0.65762   0.65837
 Alpha virt. eigenvalues --    0.66037   0.66135   0.66385   0.66492   0.66676
 Alpha virt. eigenvalues --    0.66717   0.67086   0.67169   0.67338   0.67546
 Alpha virt. eigenvalues --    0.67656   0.67726   0.67969   0.68059   0.68211
 Alpha virt. eigenvalues --    0.68352   0.68446   0.68491   0.68542   0.68781
 Alpha virt. eigenvalues --    0.68999   0.69079   0.69089   0.69288   0.69346
 Alpha virt. eigenvalues --    0.69619   0.69799   0.69983   0.70095   0.70235
 Alpha virt. eigenvalues --    0.70337   0.70442   0.70641   0.70929   0.70974
 Alpha virt. eigenvalues --    0.71299   0.71378   0.71513   0.71637   0.71788
 Alpha virt. eigenvalues --    0.71898   0.72157   0.72210   0.72478   0.72586
 Alpha virt. eigenvalues --    0.72745   0.72936   0.73071   0.73307   0.73437
 Alpha virt. eigenvalues --    0.73627   0.73673   0.73807   0.74040   0.74158
 Alpha virt. eigenvalues --    0.74209   0.74280   0.74370   0.74586   0.74753
 Alpha virt. eigenvalues --    0.74905   0.74945   0.75017   0.75148   0.75293
 Alpha virt. eigenvalues --    0.75352   0.75552   0.75711   0.75925   0.76017
 Alpha virt. eigenvalues --    0.76166   0.76276   0.76640   0.76772   0.77000
 Alpha virt. eigenvalues --    0.77088   0.77228   0.77359   0.77496   0.77663
 Alpha virt. eigenvalues --    0.77801   0.77927   0.78072   0.78158   0.78257
 Alpha virt. eigenvalues --    0.78367   0.78496   0.78773   0.78984   0.79017
 Alpha virt. eigenvalues --    0.79214   0.79427   0.79603   0.79711   0.79863
 Alpha virt. eigenvalues --    0.80006   0.80305   0.80399   0.80617   0.80666
 Alpha virt. eigenvalues --    0.80876   0.81149   0.81242   0.81339   0.81417
 Alpha virt. eigenvalues --    0.81674   0.81968   0.82071   0.82170   0.82345
 Alpha virt. eigenvalues --    0.82670   0.82727   0.82780   0.82920   0.83035
 Alpha virt. eigenvalues --    0.83186   0.83279   0.83404   0.83628   0.83683
 Alpha virt. eigenvalues --    0.83836   0.84030   0.84176   0.84342   0.84439
 Alpha virt. eigenvalues --    0.84572   0.84661   0.84751   0.84843   0.85004
 Alpha virt. eigenvalues --    0.85105   0.85311   0.85406   0.85759   0.85937
 Alpha virt. eigenvalues --    0.85984   0.86107   0.86400   0.86632   0.86888
 Alpha virt. eigenvalues --    0.87047   0.87318   0.87436   0.87541   0.87719
 Alpha virt. eigenvalues --    0.87818   0.88012   0.88109   0.88311   0.88453
 Alpha virt. eigenvalues --    0.88485   0.88565   0.88661   0.88773   0.88840
 Alpha virt. eigenvalues --    0.88961   0.89235   0.89266   0.89389   0.89495
 Alpha virt. eigenvalues --    0.89653   0.89836   0.89934   0.90088   0.90308
 Alpha virt. eigenvalues --    0.90503   0.90661   0.90832   0.90952   0.91046
 Alpha virt. eigenvalues --    0.91265   0.91515   0.91716   0.91741   0.92056
 Alpha virt. eigenvalues --    0.92359   0.92495   0.92780   0.92962   0.93116
 Alpha virt. eigenvalues --    0.93453   0.93581   0.93604   0.93795   0.93901
 Alpha virt. eigenvalues --    0.93936   0.94040   0.94070   0.94343   0.94679
 Alpha virt. eigenvalues --    0.94926   0.95208   0.95396   0.95580   0.95704
 Alpha virt. eigenvalues --    0.95804   0.95890   0.96069   0.96460   0.96538
 Alpha virt. eigenvalues --    0.96833   0.97332   0.97420   0.97651   0.98059
 Alpha virt. eigenvalues --    0.98160   0.98446   0.98517   0.98699   0.98810
 Alpha virt. eigenvalues --    0.99038   0.99108   0.99298   0.99467   0.99771
 Alpha virt. eigenvalues --    0.99824   1.00165   1.00205   1.00465   1.00578
 Alpha virt. eigenvalues --    1.00835   1.01021   1.01161   1.01220   1.01384
 Alpha virt. eigenvalues --    1.01577   1.01705   1.01733   1.01924   1.02035
 Alpha virt. eigenvalues --    1.02064   1.02240   1.02375   1.02588   1.02684
 Alpha virt. eigenvalues --    1.02709   1.02744   1.02869   1.02919   1.03082
 Alpha virt. eigenvalues --    1.03248   1.03400   1.03487   1.03662   1.03671
 Alpha virt. eigenvalues --    1.03875   1.03904   1.04071   1.04162   1.04213
 Alpha virt. eigenvalues --    1.04319   1.04444   1.04714   1.04896   1.05088
 Alpha virt. eigenvalues --    1.05212   1.05266   1.05397   1.05463   1.05587
 Alpha virt. eigenvalues --    1.05814   1.05879   1.05940   1.06022   1.06120
 Alpha virt. eigenvalues --    1.06191   1.06370   1.06501   1.06648   1.06679
 Alpha virt. eigenvalues --    1.06920   1.07006   1.07111   1.07180   1.07234
 Alpha virt. eigenvalues --    1.07283   1.07443   1.07597   1.07657   1.07767
 Alpha virt. eigenvalues --    1.07838   1.07877   1.07991   1.08084   1.08117
 Alpha virt. eigenvalues --    1.08224   1.08423   1.08481   1.08514   1.08726
 Alpha virt. eigenvalues --    1.08859   1.08896   1.08982   1.09120   1.09176
 Alpha virt. eigenvalues --    1.09308   1.09339   1.09467   1.09487   1.09567
 Alpha virt. eigenvalues --    1.09826   1.09845   1.10100   1.10198   1.10344
 Alpha virt. eigenvalues --    1.10381   1.10489   1.10543   1.10652   1.10730
 Alpha virt. eigenvalues --    1.10934   1.10961   1.11041   1.11211   1.11386
 Alpha virt. eigenvalues --    1.11535   1.11603   1.11835   1.11930   1.12065
 Alpha virt. eigenvalues --    1.12078   1.12193   1.12301   1.12489   1.12668
 Alpha virt. eigenvalues --    1.12767   1.12935   1.13136   1.13249   1.13432
 Alpha virt. eigenvalues --    1.13623   1.13637   1.13733   1.13879   1.13992
 Alpha virt. eigenvalues --    1.14238   1.14297   1.14428   1.14457   1.14594
 Alpha virt. eigenvalues --    1.14781   1.14902   1.15119   1.15156   1.15407
 Alpha virt. eigenvalues --    1.15522   1.15538   1.15796   1.16018   1.16144
 Alpha virt. eigenvalues --    1.16316   1.16636   1.16742   1.16797   1.16940
 Alpha virt. eigenvalues --    1.17095   1.17308   1.17374   1.17458   1.17700
 Alpha virt. eigenvalues --    1.17874   1.17905   1.18124   1.18223   1.18344
 Alpha virt. eigenvalues --    1.18434   1.18596   1.18724   1.18885   1.19224
 Alpha virt. eigenvalues --    1.19458   1.19696   1.19892   1.19981   1.20252
 Alpha virt. eigenvalues --    1.20448   1.20673   1.20836   1.20870   1.21276
 Alpha virt. eigenvalues --    1.21647   1.21840   1.22037   1.22169   1.22493
 Alpha virt. eigenvalues --    1.22709   1.22742   1.23087   1.23191   1.23795
 Alpha virt. eigenvalues --    1.23923   1.24043   1.24579   1.24736   1.25010
 Alpha virt. eigenvalues --    1.25062   1.25462   1.25607   1.26073   1.26184
 Alpha virt. eigenvalues --    1.26566   1.26704   1.26941   1.27128   1.27405
 Alpha virt. eigenvalues --    1.27763   1.27907   1.28042   1.28159   1.28428
 Alpha virt. eigenvalues --    1.28572   1.28950   1.29162   1.29347   1.29502
 Alpha virt. eigenvalues --    1.29740   1.29985   1.30669   1.31079   1.31288
 Alpha virt. eigenvalues --    1.31409   1.31777   1.32064   1.32418   1.32605
 Alpha virt. eigenvalues --    1.32827   1.33121   1.33223   1.33367   1.33560
 Alpha virt. eigenvalues --    1.33818   1.34153   1.34186   1.34550   1.34971
 Alpha virt. eigenvalues --    1.35183   1.35317   1.35433   1.35560   1.36052
 Alpha virt. eigenvalues --    1.36119   1.36247   1.36798   1.37076   1.37600
 Alpha virt. eigenvalues --    1.37933   1.38218   1.38553   1.38714   1.38925
 Alpha virt. eigenvalues --    1.39130   1.39479   1.39611   1.39963   1.40237
 Alpha virt. eigenvalues --    1.40318   1.40495   1.40906   1.41222   1.41522
 Alpha virt. eigenvalues --    1.41922   1.42193   1.42383   1.42620   1.42949
 Alpha virt. eigenvalues --    1.43510   1.44001   1.44580   1.44970   1.45114
 Alpha virt. eigenvalues --    1.45590   1.46043   1.46538   1.46715   1.47093
 Alpha virt. eigenvalues --    1.47715   1.47888   1.48150   1.48488   1.48877
 Alpha virt. eigenvalues --    1.49037   1.49311   1.49387   1.49661   1.50047
 Alpha virt. eigenvalues --    1.50821   1.51549   1.52148   1.52197   1.52549
 Alpha virt. eigenvalues --    1.52614   1.53214   1.53813   1.54098   1.54396
 Alpha virt. eigenvalues --    1.54859   1.55049   1.55162   1.55567   1.55662
 Alpha virt. eigenvalues --    1.56422   1.56821   1.57140   1.57624   1.57645
 Alpha virt. eigenvalues --    1.57810   1.57870   1.58140   1.58301   1.58413
 Alpha virt. eigenvalues --    1.58599   1.59092   1.59225   1.59431   1.59551
 Alpha virt. eigenvalues --    1.59716   1.59892   1.60006   1.60245   1.60435
 Alpha virt. eigenvalues --    1.60812   1.60900   1.60997   1.61192   1.61288
 Alpha virt. eigenvalues --    1.61376   1.61567   1.61634   1.61893   1.61962
 Alpha virt. eigenvalues --    1.62201   1.62388   1.62625   1.63033   1.63678
 Alpha virt. eigenvalues --    1.63902   1.64373   1.64577   1.64626   1.64640
 Alpha virt. eigenvalues --    1.64900   1.65097   1.65437   1.65574   1.65883
 Alpha virt. eigenvalues --    1.66085   1.66685   1.66874   1.67241   1.67334
 Alpha virt. eigenvalues --    1.67524   1.67696   1.67889   1.68125   1.68143
 Alpha virt. eigenvalues --    1.68540   1.68626   1.68782   1.69307   1.69615
 Alpha virt. eigenvalues --    1.69681   1.69976   1.70226   1.70485   1.70925
 Alpha virt. eigenvalues --    1.71404   1.72073   1.72469   1.73632   1.74547
 Alpha virt. eigenvalues --    1.74659   1.75178   1.75556   1.75841   1.76303
 Alpha virt. eigenvalues --    1.76838   1.77563   1.78341   1.79032   1.79157
 Alpha virt. eigenvalues --    1.79533   1.79752   1.80356   1.80516   1.80633
 Alpha virt. eigenvalues --    1.81633   1.81925   1.82217   1.82704   1.82777
 Alpha virt. eigenvalues --    1.82973   1.83922   1.84434   1.84933   1.85191
 Alpha virt. eigenvalues --    1.85363   1.85548   1.85879   1.86277   1.86441
 Alpha virt. eigenvalues --    1.86784   1.86995   1.87149   1.87353   1.87543
 Alpha virt. eigenvalues --    1.87661   1.87834   1.88068   1.88203   1.88783
 Alpha virt. eigenvalues --    1.88828   1.89387   1.89460   1.89586   1.89743
 Alpha virt. eigenvalues --    1.90242   1.90524   1.90789   1.91004   1.91057
 Alpha virt. eigenvalues --    1.91348   1.91562   1.91706   1.92327   1.93100
 Alpha virt. eigenvalues --    1.93799   1.93987   1.94057   1.94271   1.94425
 Alpha virt. eigenvalues --    1.94796   1.95447   1.95587   1.95766   1.95826
 Alpha virt. eigenvalues --    1.96053   1.96163   1.96322   1.96586   1.96830
 Alpha virt. eigenvalues --    1.97060   1.97172   1.97579   1.97676   1.97831
 Alpha virt. eigenvalues --    1.97904   1.97938   1.98146   1.98368   1.98529
 Alpha virt. eigenvalues --    1.98589   1.98611   1.98791   1.99287   1.99471
 Alpha virt. eigenvalues --    1.99947   2.00054   2.00305   2.00642   2.00812
 Alpha virt. eigenvalues --    2.01235   2.01780   2.01889   2.01917   2.02225
 Alpha virt. eigenvalues --    2.02644   2.02933   2.03243   2.03483   2.03705
 Alpha virt. eigenvalues --    2.04248   2.04635   2.05180   2.05782   2.05988
 Alpha virt. eigenvalues --    2.06097   2.06525   2.06601   2.06723   2.07092
 Alpha virt. eigenvalues --    2.07405   2.07564   2.07649   2.07818   2.08342
 Alpha virt. eigenvalues --    2.08704   2.08760   2.08808   2.09052   2.09159
 Alpha virt. eigenvalues --    2.09515   2.09706   2.09821   2.10159   2.10204
 Alpha virt. eigenvalues --    2.10461   2.10638   2.10830   2.10913   2.11058
 Alpha virt. eigenvalues --    2.11322   2.11401   2.11547   2.11687   2.11719
 Alpha virt. eigenvalues --    2.11877   2.12017   2.12117   2.12353   2.12830
 Alpha virt. eigenvalues --    2.12899   2.13097   2.13354   2.13449   2.13834
 Alpha virt. eigenvalues --    2.13928   2.14110   2.14251   2.14404   2.14548
 Alpha virt. eigenvalues --    2.14723   2.14868   2.14908   2.15087   2.15322
 Alpha virt. eigenvalues --    2.15723   2.15862   2.16358   2.16407   2.16673
 Alpha virt. eigenvalues --    2.16719   2.17050   2.17204   2.17407   2.17484
 Alpha virt. eigenvalues --    2.17758   2.17906   2.18185   2.18276   2.18629
 Alpha virt. eigenvalues --    2.18710   2.18835   2.18907   2.19061   2.19219
 Alpha virt. eigenvalues --    2.19620   2.19635   2.19763   2.19967   2.20240
 Alpha virt. eigenvalues --    2.20430   2.20555   2.20801   2.21014   2.21301
 Alpha virt. eigenvalues --    2.21596   2.21949   2.22097   2.22400   2.22604
 Alpha virt. eigenvalues --    2.22934   2.23265   2.23330   2.23610   2.23915
 Alpha virt. eigenvalues --    2.24282   2.24561   2.24945   2.25756   2.25987
 Alpha virt. eigenvalues --    2.26331   2.26389   2.26742   2.26824   2.27021
 Alpha virt. eigenvalues --    2.27252   2.27456   2.27673   2.27760   2.27768
 Alpha virt. eigenvalues --    2.27965   2.28548   2.28752   2.28999   2.29227
 Alpha virt. eigenvalues --    2.29280   2.29624   2.29718   2.29960   2.30090
 Alpha virt. eigenvalues --    2.30415   2.30563   2.30893   2.31282   2.31673
 Alpha virt. eigenvalues --    2.31892   2.32151   2.32284   2.32386   2.32779
 Alpha virt. eigenvalues --    2.33057   2.33593   2.33817   2.34070   2.34156
 Alpha virt. eigenvalues --    2.34999   2.35348   2.35625   2.35880   2.36186
 Alpha virt. eigenvalues --    2.36413   2.36908   2.37070   2.37248   2.37313
 Alpha virt. eigenvalues --    2.37634   2.37749   2.38043   2.38256   2.38799
 Alpha virt. eigenvalues --    2.39260   2.39959   2.40350   2.40574   2.40662
 Alpha virt. eigenvalues --    2.40758   2.40803   2.41157   2.41281   2.41457
 Alpha virt. eigenvalues --    2.41634   2.41915   2.42014   2.42122   2.42149
 Alpha virt. eigenvalues --    2.42397   2.42475   2.42791   2.42918   2.43016
 Alpha virt. eigenvalues --    2.43138   2.43465   2.43653   2.43745   2.43890
 Alpha virt. eigenvalues --    2.44041   2.44133   2.44306   2.44600   2.44641
 Alpha virt. eigenvalues --    2.44713   2.44806   2.45228   2.45324   2.45437
 Alpha virt. eigenvalues --    2.45766   2.45879   2.45940   2.45959   2.46330
 Alpha virt. eigenvalues --    2.46463   2.46606   2.46738   2.46835   2.46980
 Alpha virt. eigenvalues --    2.47411   2.47524   2.47857   2.47966   2.48143
 Alpha virt. eigenvalues --    2.48757   2.48917   2.49138   2.49226   2.49394
 Alpha virt. eigenvalues --    2.49661   2.49979   2.50084   2.50523   2.50615
 Alpha virt. eigenvalues --    2.50881   2.50992   2.51086   2.51313   2.51538
 Alpha virt. eigenvalues --    2.51619   2.51716   2.52163   2.52222   2.52255
 Alpha virt. eigenvalues --    2.52362   2.52646   2.52835   2.53064   2.53229
 Alpha virt. eigenvalues --    2.53418   2.54098   2.54306   2.54935   2.55218
 Alpha virt. eigenvalues --    2.55561   2.55803   2.56618   2.56752   2.57374
 Alpha virt. eigenvalues --    2.57476   2.58006   2.58418   2.58498   2.59085
 Alpha virt. eigenvalues --    2.59351   2.59566   2.59768   2.60255   2.60930
 Alpha virt. eigenvalues --    2.62057   2.62191   2.62710   2.63572   2.63941
 Alpha virt. eigenvalues --    2.64278   2.64883   2.65094   2.65164   2.65486
 Alpha virt. eigenvalues --    2.65552   2.65715   2.66583   2.66814   2.66969
 Alpha virt. eigenvalues --    2.67481   2.67936   2.68009   2.68056   2.68211
 Alpha virt. eigenvalues --    2.68396   2.69250   2.69298   2.69436   2.69855
 Alpha virt. eigenvalues --    2.70220   2.70399   2.70481   2.70979   2.71012
 Alpha virt. eigenvalues --    2.71641   2.72474   2.72809   2.72936   2.73111
 Alpha virt. eigenvalues --    2.74069   2.74237   2.74657   2.74793   2.75143
 Alpha virt. eigenvalues --    2.75578   2.75930   2.76673   2.77018   2.77190
 Alpha virt. eigenvalues --    2.77315   2.77807   2.77859   2.78384   2.79150
 Alpha virt. eigenvalues --    2.79851   2.80780   2.80974   2.80995   2.81686
 Alpha virt. eigenvalues --    2.82242   2.82561   2.83019   2.83071   2.83549
 Alpha virt. eigenvalues --    2.84015   2.84193   2.84460   2.84724   2.85441
 Alpha virt. eigenvalues --    2.85605   2.85992   2.86200   2.86258   2.86489
 Alpha virt. eigenvalues --    2.86694   2.87059   2.87450   2.87969   2.88393
 Alpha virt. eigenvalues --    2.88861   2.89071   2.89365   2.90188   2.90277
 Alpha virt. eigenvalues --    2.90348   2.90814   2.90913   2.91257   2.91588
 Alpha virt. eigenvalues --    2.91902   2.92147   2.92649   2.93112   2.93164
 Alpha virt. eigenvalues --    2.93664   2.94046   2.94321   2.94709   2.95972
 Alpha virt. eigenvalues --    2.96434   2.97118   2.98017   2.98812   2.99575
 Alpha virt. eigenvalues --    3.00417   3.00864   3.02778   3.03238   3.03510
 Alpha virt. eigenvalues --    3.05718   3.06360   3.06956   3.07251   3.07609
 Alpha virt. eigenvalues --    3.08561   3.08994   3.11110   3.12797   3.12961
 Alpha virt. eigenvalues --    3.13673   3.13999   3.15093   3.19750   3.20373
 Alpha virt. eigenvalues --    3.20927   3.21619   3.21998   3.23370   3.24076
 Alpha virt. eigenvalues --    3.25887   3.26323   3.29226   3.31128   3.31157
 Alpha virt. eigenvalues --    3.32476   3.36317   3.37477   3.38884   3.45803
 Alpha virt. eigenvalues --    3.60122   3.61986   3.66607   4.06302   4.09441
 Alpha virt. eigenvalues --    4.11546   4.11727   4.15067   4.19439   4.19827
 Alpha virt. eigenvalues --    4.28125   4.28159   4.29916   4.30249   4.31011
 Alpha virt. eigenvalues --    4.31491   4.31562   4.31686   4.32814   4.32966
 Alpha virt. eigenvalues --    4.33106   4.33410   4.33695   4.33847   4.34420
 Alpha virt. eigenvalues --    4.35064   4.35989   4.36497   4.36953   4.37118
 Alpha virt. eigenvalues --    4.37291   4.37557   4.37772   4.37959   4.38592
 Alpha virt. eigenvalues --    4.39621   4.40270   4.41326   4.42060   4.42701
 Alpha virt. eigenvalues --    4.43788   4.44645   4.45406   4.45710   4.46452
 Alpha virt. eigenvalues --    4.46801   4.46859   4.48268   4.48371   4.48543
 Alpha virt. eigenvalues --    4.48809   4.49032   4.49973   4.50176   4.51132
 Alpha virt. eigenvalues --    4.51276   4.52137   4.52645   4.52842   4.53173
 Alpha virt. eigenvalues --    4.53815   4.54238   4.54575   4.55132   4.55286
 Alpha virt. eigenvalues --    4.56539   4.56778   4.57945   4.58314   4.59914
 Alpha virt. eigenvalues --    4.60028   4.60071   4.61788   4.62823   4.63403
 Alpha virt. eigenvalues --    4.63593   4.63964   4.64616   4.65370   4.66793
 Alpha virt. eigenvalues --    4.68008   4.68377   4.68843   4.71199   4.72854
 Alpha virt. eigenvalues --    4.73654   4.74328   4.74609   4.75030   4.76825
 Alpha virt. eigenvalues --    4.77308   4.78109   4.80167   4.80279   4.82688
 Alpha virt. eigenvalues --    4.84056   4.89864   4.91052   4.92771   4.92896
 Alpha virt. eigenvalues --    4.95273   5.00879   5.01894   5.05839
          Condensed to atoms (all electrons):
 Mulliken charges:
               1
     1  H    0.168410
     2  C   -0.508867
     3  H    0.160087
     4  C   -0.368990
     5  H    0.172892
     6  H    0.187816
     7  C    0.135045
     8  C   -0.213931
     9  H    0.151301
    10  C   -0.233989
    11  H    0.141828
    12  C    0.363216
    13  O   -0.670645
    14  H    0.422425
    15  C   -0.205847
    16  H    0.182012
    17  C   -0.213480
    18  H    0.191619
    19  H    0.167124
    20  H    0.150285
    21  C   -0.486756
    22  H    0.158274
    23  C   -0.115592
    24  H    0.137167
    25  C   -0.490034
    26  H    0.161695
    27  H    0.166786
    28  H    0.154778
    29  C   -0.483549
    30  H    0.152654
    31  H    0.164538
    32  H    0.164112
    33  H    0.144363
    34  H    0.140375
    35  C   -0.500046
    36  H    0.164255
[...]
   55 Atom       -0.290601      0.141115      0.149486
   56 Atom       -0.293502      0.143352      0.150150
   57 Atom       -0.037621     -0.003253      0.040874
   58 Atom       -0.285234      0.141523      0.143711
   59 Atom       -0.032782     -0.003799      0.036581
   60 Atom       -0.304969      0.148422      0.156547
   61 Atom       -0.300132      0.147594      0.152539
   62 Atom       -0.305605      0.149419      0.156186
   63 Atom       -0.047774      0.011917      0.035857
   64 Atom       -0.302485      0.148246      0.154240
   65 Atom       -0.306268      0.149238      0.157029
   66 Atom       -0.305454      0.148888      0.156566
   67 Atom       -0.282074      0.133570      0.148504
   68 Atom       -0.305688      0.150573      0.155116
   69 Atom       -0.012230     -0.001562      0.013791
   70 Atom       -0.301475      0.148355      0.153121
   71 Atom       -0.021065      0.003993      0.017072
   72 Atom       -0.285152      0.141950      0.143202
   73 Atom       -0.032685      0.006375      0.026310
   74 Atom       -0.299791      0.145926      0.153865
   75 Atom       -0.305252      0.149115      0.156138
   76 Atom       -0.305919      0.150037      0.155882
   77 Atom       -0.036778      0.000696      0.036082
   78 Atom       -0.306435      0.150524      0.155911
   79 Atom       -0.298553      0.147145      0.151408
   80 Atom       -0.307162      0.149823      0.157339
   81 Atom       -0.305953      0.150507      0.155446
   82 Atom       -0.303677      0.148007      0.155670
   83 Atom       -0.049530      0.018036      0.031494
   84 Atom       -0.305929      0.150245      0.155684
   85 Atom       -0.025166     -0.011520      0.036686
   86 Atom       -0.292821      0.143781      0.149040
   87 Atom       -0.292408      0.144170      0.148238
   88 Atom       -0.272922      0.094171      0.178751
   89 Atom       -0.227517      0.072132      0.155385
   90 Atom       -0.311639      0.145180      0.166460
   91 Atom       -0.272883      0.106802      0.166081
   92 Atom       -0.312553      0.147091      0.165462
   93 Atom       -0.277280      0.127558      0.149721
   94 Atom       -0.308480      0.146028      0.162452
   95 Atom       -0.326383      0.142066      0.184318
   96 Atom       -0.296921      0.140477      0.156444
   97 Atom       -0.243249      0.082678      0.160572
   98 Atom       -0.312996      0.146609      0.166387
   99 Atom       -0.303821      0.148247      0.155574
  100 Atom       -0.304793      0.149741      0.155052
  101 Atom       -0.009576      0.000815      0.008761
  102 Atom       -0.303842      0.150619      0.153223
  103 Atom       -0.033195     -0.005435      0.038630
  104 Atom       -0.282902      0.139401      0.143500
  105 Atom       -0.025772      0.009108      0.016664
  106 Atom       -0.305032      0.149698      0.155334
  107 Atom       -0.304550      0.149819      0.154731
  108 Atom       -0.305302      0.150080      0.155222
  109 Atom       -0.032373      0.014067      0.018305
  110 Atom       -0.306218      0.149702      0.156516
  111 Atom       -0.304959      0.149341      0.155618
  112 Atom       -0.301886      0.147486      0.154401
  113 Atom       -0.304063      0.150550      0.153513
  114 Atom       -0.299429      0.148524      0.150905
  115 Atom       -0.040697     -0.003445      0.044141
  116 Atom       -0.307679      0.150909      0.156770
  117 Atom       -0.046067      0.000618      0.045448
  118 Atom       -0.292752      0.143492      0.149260
  119 Atom       -0.292428      0.142374      0.150053
  120 Atom       -0.241028      0.079093      0.161935
  121 Atom       -0.298466      0.141832      0.156633
  122 Atom       -0.282317      0.137622      0.144695
  123 Atom       -2.290510     -0.560992      2.851502
  124 Atom       -0.215749      0.101453      0.114296
  125 Atom       -0.301475      0.147169      0.154305
  126 Atom       -0.306700      0.146847      0.159854
  127 Atom       -0.304748      0.148206      0.156542
  128 Atom       -0.304497      0.148867      0.155630
  129 Atom       -0.305390      0.150954      0.154436
  130 Atom       -0.012734      0.001145      0.011589
  131 Atom       -0.307547      0.152062      0.155485
  132 Atom       -0.035613      0.010429      0.025183
  133 Atom       -0.293876      0.144602      0.149274
  134 Atom       -0.292621      0.143174      0.149446
  135 Atom       -0.023312     -0.000721      0.024033
  136 Atom       -0.283810      0.141062      0.142747
  137 Atom       -0.023584      0.000502      0.023081
  138 Atom       -0.306153      0.149071      0.157082
  139 Atom       -0.304328      0.148154      0.156174
  140 Atom       -0.307187      0.151430      0.155757
  141 Atom       -0.047475      0.010664      0.036811
  142 Atom       -0.305951      0.149088      0.156863
  143 Atom       -0.304573      0.147868      0.156705
  144 Atom       -0.298138      0.144266      0.153873
  145 Atom       -0.304479      0.149987      0.154492
  146 Atom       -0.305897      0.150674      0.155224
  147 Atom       -0.011682     -0.002921      0.014604
  148 Atom       -0.305837      0.150790      0.155047
  149 Atom       -0.029099     -0.004031      0.033130
  150 Atom       -0.283853      0.140908      0.142944
  151 Atom       -0.026889     -0.009828      0.036717
  152 Atom       -0.305537      0.149597      0.155940
  153 Atom       -0.297675      0.146473      0.151202
  154 Atom       -0.305893      0.150194      0.155698
  155 Atom       -0.037324      0.006894      0.030430
  156 Atom       -0.306403      0.149629      0.156774
  157 Atom       -0.303596      0.148098      0.155498
  158 Atom       -0.297914      0.145556      0.152358
  159 Atom       -0.305858      0.150788      0.155070
  160 Atom       -0.305723      0.147055      0.158668
  161 Atom       -0.062827      0.018158      0.044669
  162 Atom       -0.303535      0.146541      0.156994
  163 Atom       -0.048047      0.020514      0.027533
  164 Atom       -0.294742      0.144002      0.150740
  165 Atom       -0.293870      0.142671      0.151199
  166 Atom       -0.400274      0.054122      0.346152
  167 Atom       -0.763619     -0.721162      1.484782
  168 Atom       -1.243279      0.480533      0.762746
  169 Atom       -0.227398      0.101081      0.126317
  170 Atom       -0.306072      0.149833      0.156239
  171 Atom       -0.307710      0.151101      0.156610
  172 Atom       -0.038954     -0.002679      0.041633
  173 Atom       -0.305667      0.149297      0.156371
  174 Atom       -0.047557     -0.009143      0.056699
  175 Atom       -0.292143      0.142668      0.149475
  176 Atom       -0.286475      0.139130      0.147345
  177 Atom       -0.203021      0.083893      0.119128
  178 Atom       -0.296795      0.144570      0.152225
  179 Atom       -0.294674      0.142636      0.152038
  180 Atom       -2.286942     -0.516013      2.802955
  181 Atom       -0.239930      0.096868      0.143062
  182 Atom       -0.296809      0.142072      0.154737
  183 Atom       -0.309927      0.146511      0.163417
  184 Atom       -0.298955      0.144231      0.154724
  185 Atom       -0.300383      0.149295      0.151088
  186 Atom       -0.304016      0.149871      0.154145
  187 Atom       -0.012967      0.003408      0.009560
  188 Atom       -0.302620      0.149789      0.152831
  189 Atom       -0.086811     -0.020320      0.107131
  190 Atom       -0.272364      0.134844      0.137519
  191 Atom       -0.304619      0.147745      0.156875
  192 Atom       -0.307034      0.149136      0.157898
  193 Atom       -0.306516      0.150195      0.156320
  194 Atom       -0.304395      0.149430      0.154965
  195 Atom       -0.032717      0.009289      0.023428
  196 Atom       -0.305521      0.150458      0.155063
  197 Atom       -0.035452     -0.000846      0.036299
  198 Atom       -0.289749      0.143247      0.146502
  199 Atom       -0.291924      0.143241      0.148683
  200 Atom       -0.080914      0.013951      0.066963
  201 Atom       -0.116854     -0.090428      0.207282
  202 Atom       -0.326600      0.150609      0.175990
  203 Atom       -0.402791     -0.165707      0.568498
  204 Atom       -0.305781      0.127348      0.178433
  205 Atom       -0.150503     -0.080764      0.231267
  206 Atom       -0.215175      0.079614      0.135561
  207 Atom       -0.313515      0.147280      0.166235
  208 Atom       -0.219394      0.085492      0.133903
  209 Atom       -0.315375      0.146892      0.168483
  210 Atom       -0.196345      0.065006      0.131339
  211 Atom       -0.313837      0.145822      0.168015
  212 Atom       -0.220691      0.071406      0.149285
  213 Atom       -0.315078      0.148537      0.166541
  214 Atom       -0.192531      0.079102      0.113429
  215 Atom       -0.305596      0.149198      0.156398
  216 Atom       -0.543669      0.180017      0.363651
  217 Atom       -0.841226     -0.701072      1.542298
  218 Atom       -0.128920      0.023716      0.105203
  219 Atom       -0.556249      0.246495      0.309754
  220 Atom       -0.075230     -0.011613      0.086843
  221 Atom       -0.044970      0.007010      0.037960
  222 Atom       -0.028270     -0.012898      0.041168
  223 Atom       -0.104661     -0.004905      0.109566
  224 Atom       -0.034886     -0.014860      0.049747
  225 Atom       -0.041604     -0.018424      0.060028
  226 Atom       -0.036910     -0.000803      0.037712
  227 Atom       -0.019998     -0.004958      0.024955
  228 Atom       -0.027707      0.005888      0.021819
  229 Atom       -0.027798      0.001238      0.026560
  230 Atom       -0.019924     -0.007436      0.027360
  231 Atom       -0.061006      0.009642      0.051365
  232 Atom       -0.030239     -0.005460      0.035699
  233 Atom       -0.310131      0.126235      0.183896
  234 Atom       -0.052738     -0.005589      0.058327
  235 Atom       -1.592042     -0.112040      1.704082
  236 Atom       -0.301556      0.136102      0.165454
  237 Atom       -0.246271      0.121696      0.124576
  238 Atom       -0.289527      0.142028      0.147498
  239 Atom       -0.296440      0.144911      0.151529
  240 Atom       -0.288493      0.141488      0.147005
  241 Atom       -0.294636      0.146076      0.148560
  242 Atom       -0.293863      0.138373      0.155491
  243 Atom       -0.231904      0.110236      0.121668
  244 Atom       -0.290214      0.142840      0.147374
  245 Atom       -0.292824      0.144524      0.148300
  246 Atom       -0.275714      0.134189      0.141525
  247 Atom       -0.280621      0.139487      0.141134
  248 Atom       -0.278417      0.136710      0.141707
  249 Atom       -0.290515      0.143413      0.147102
  250 Atom       -0.288361      0.142059      0.146302
  251 Atom       -0.294639      0.144844      0.149794
  252 Atom       -0.296252      0.145473      0.150779
  253 Atom       -0.299729      0.147752      0.151977
  254 Atom       -0.300420      0.148330      0.152090
  255 Atom       -0.302993      0.150375      0.152618
  256 Atom       -0.300813      0.148503      0.152310
  257 Atom       -0.259011      0.123819      0.135192
  258 Atom       -0.308803      0.147306      0.161497
  259 Atom       -0.305874      0.148839      0.157035
  260 Atom       -0.292318      0.142728      0.149590
  261 Atom       -0.419738      0.181269      0.238469
  262 Atom       -1.465517     -0.077666      1.543183
  263 Atom       -0.491424      0.220610      0.270815
  264 Atom       -0.294658      0.118319      0.176339
 -----------------------------------------------------
 Unable to Open any file for archive entry.
 1\1\GINC-EXP-14-10\SP\RwB97XD\6-31G(d)\C88H163N2O9S2(1-)\HKLEM\11-Jul-
 2024\0\\# wb97xd/6-31G(d) prop=efg\\19nt_xstal_distance_cutoff3_xtb_co
 nf_1\\-1,1\H,0,46.3392,34.0737,31.491\C,0,46.309,34.451,30.471\H,0,46.
 0667,33.6216,29.8097\C,0,45.2667,35.5583,30.3642\H,0,44.2895,35.1556,3
 0.6484\H,0,45.5058,36.3434,31.0874\C,0,45.1337,36.202,29.0075\C,0,45.8
 461,35.7932,27.8912\H,0,46.5389,34.9684,27.9532\C,0,45.6925,36.434,26.
 6724\H,0,46.2618,36.1031,25.8121\C,0,44.8181,37.5021,26.5491\O,0,44.65
 26,38.1758,25.3715\H,0,45.2302,37.7945,24.7\C,0,44.0846,37.9125,27.657
 2\H,0,43.3987,38.7377,27.5476\C,0,44.2471,37.2681,28.8654\H,0,43.6818,
 37.5996,29.7245\H,0,47.2986,34.8258,30.2184\H,0,48.2021,38.0013,26.761
 3\C,0,48.106,39.077,26.631\H,0,47.1113,39.2907,26.2463\C,0,48.313,39.7
 982,27.9618\H,0,49.3276,39.5836,28.3187\C,0,48.1703,41.307,27.7816\H,0
 ,47.1613,41.5508,27.4577\H,0,48.3611,41.8248,28.7183\H,0,48.87,41.6803
 ,27.037\C,0,47.3141,39.2947,29.0003\H,0,47.4132,38.2213,29.1453\H,0,47
 .4716,39.7876,29.957\H,0,46.2967,39.4961,28.6729\H,0,48.8389,39.4069,2
 5.8968\H,0,36.4076,46.3271,33.0631\C,0,37.339,46.524,32.531\H,0,37.875
 8,47.3175,33.0498\C,0,38.1977,45.265,32.4572\H,0,38.4479,44.9323,33.46
 66\H,0,37.6445,44.475,31.9431\C,0,39.5147,45.5146,31.6716\O,0,40.5346,
 45.7907,32.3392\O,0,39.4623,45.3968,30.4377\H,0,37.1005,46.8703,31.526
 8\H,0,42.6916,47.0402,22.3594\C,0,43.146,46.945,23.342\H,0,43.1878,47.
 916,23.8266\H,0,42.5361,46.2829,23.9545\C,0,44.5505,46.3748,23.2488\O,
 0,45.4524,46.7047,23.9955\N,0,44.7218,45.4608,22.2683\H,0,43.9332,45.1
 958,21.6995\C,0,45.975,44.783,22.003\H,0,46.6827,45.1291,22.7568\C,0,4
 5.8299,43.2621,22.0389\H,0,45.1047,42.9621,21.2762\H,0,46.7934,42.8247
 ,21.7681\C,0,45.3873,42.699,23.395\H,0,44.4507,43.186,23.6877\C,0,45.1
 351,41.1973,23.2652\H,0,46.0536,40.6867,22.9809\H,0,44.7906,40.781,24.
 2084\H,0,44.3806,40.9927,22.508\C,0,46.4265,42.963,24.4796\H,0,46.5254
 ,44.026,24.6773\H,0,46.1263,42.4795,25.405\H,0,47.3974,42.5688,24.186\
 H,0,46.3442,45.0876,21.0156\H,0,51.619,46.7268,23.6305\C,0,51.425,46.2
 29,24.579\H,0,51.5891,46.9401,25.386\C,0,49.9892,45.7063,24.6353\H,0,4
 9.8559,44.9698,23.8323\C,0,49.7284,45.0291,25.9773\H,0,49.8264,45.7581
 ,26.7785\H,0,48.7235,44.6163,26.0123\H,0,50.4385,44.2225,26.1507\C,0,4
 8.997,46.8471,24.4307\H,0,49.1847,47.3652,23.4919\H,0,47.973,46.4836,2
 4.4209\H,0,49.0876,47.5594,25.246\H,0,52.1366,45.4132,24.6908\H,0,49.3
 576,43.1427,37.4817\C,0,50.254,42.792,36.975\H,0,51.0264,42.608,37.719
 1\C,0,49.952,41.5166,36.1846\H,0,50.8672,41.1746,35.6948\H,0,49.6286,4
 0.737,36.8792\C,0,48.88,41.7424,35.1517\C,0,49.2101,42.0421,33.8367\H,
 0,50.2523,42.1063,33.5506\C,0,48.2223,42.2468,32.8882\H,0,48.4964,42.4
 699,31.8668\C,0,46.8881,42.159,33.2444\H,0,46.1126,42.3152,32.5088\C,0
 ,46.5449,41.8626,34.5531\H,0,45.5064,41.7745,34.8305\C,0,47.5364,41.65
 96,35.4968\H,0,47.264,41.4226,36.5163\H,0,50.5945,43.5791,36.3054\H,0,
 51.4516,45.7573,31.8633\C,0,50.929,46.54,31.316\H,0,51.5225,46.8051,30
 .4432\C,0,49.5427,46.0535,30.8948\H,0,49.0553,46.8463,30.316\C,0,49.66
 06,44.8218,30.0021\H,0,50.1329,44.0044,30.5446\H,0,48.6769,44.4965,29.
 671\H,0,50.2593,45.0433,29.1218\C,0,48.6882,45.7487,32.1216\H,0,48.578
 2,46.6351,32.7413\H,0,47.6956,45.4172,31.8267\H,0,49.1424,44.963,32.72
 22\H,0,50.8513,47.4117,31.9638\H,0,52.2902,50.0133,26.9972\C,0,51.956,
 50.753,26.273\H,0,52.7357,50.8792,25.5255\C,0,50.6572,50.294,25.6194\H
 ,0,50.3237,51.0402,24.8931\H,0,50.8335,49.36,25.0832\C,0,49.5393,50.08
 26,26.6309\H,0,49.3586,50.9874,27.2086\H,0,48.6126,49.7894,26.1365\S,0
 ,49.952,48.7653,27.8384\C,0,49.8956,49.7265,29.3762\H,0,48.8874,50.103
 8,29.5267\H,0,50.1626,49.0511,30.1813\H,0,50.6106,50.5433,29.3244\H,0,
 51.8136,51.7032,26.7857\H,0,50.1836,51.4992,33.6044\C,0,49.556,50.794,
 34.147\H,0,49.2393,51.2681,35.0721\C,0,48.3576,50.3875,33.2995\H,0,47.
 7295,51.2618,33.1133\H,0,48.716,50.0274,32.3314\C,0,47.5034,49.2898,33
 .9399\H,0,48.1513,48.4298,34.1526\C,0,46.8713,49.7489,35.249\H,0,46.29
 14,50.6539,35.0854\H,0,46.2024,48.9763,35.6171\H,0,47.6228,49.9439,36.
 0109\C,0,46.4112,48.8558,32.9672\H,0,46.8445,48.4958,32.0367\H,0,45.80
 86,48.0598,33.3949\H,0,45.752,49.6932,32.748\H,0,50.1592,49.9226,34.39
 62\H,0,47.1,46.8975,37.0062\C,0,46.185,46.409,37.335\H,0,45.36,47.105,
 37.2175\C,0,45.9235,45.1484,36.5113\H,0,46.776,44.4678,36.6245\C,0,44.
 6661,44.4384,37.0051\H,0,43.8074,45.1014,36.9172\H,0,44.4763,43.5451,3
 6.4149\H,0,44.7698,44.1474,38.0494\C,0,45.7836,45.4991,35.0336\H,0,46.
 6825,45.9918,34.6698\H,0,45.6299,44.5976,34.4461\H,0,44.9355,46.165,34
 .8826\H,0,46.2861,46.167,38.3919\H,0,43.2874,40.7063,37.7864\C,0,42.31
 ,41.173,37.691\H,0,42.4613,42.2315,37.4976\C,0,41.535,40.5416,36.5476\
 H,0,41.3603,39.4777,36.7217\H,0,40.5599,41.019,36.4298\C,0,42.2814,40.
 6807,35.2327\O,0,43.3102,41.2997,35.1103\O,0,41.6735,40.0467,34.2544\H
 ,0,42.1876,40.1167,33.3721\H,0,41.7715,41.0589,38.6297\H,0,37.0758,38.
 0087,35.2332\C,0,36.781,38.93,34.736\H,0,35.8291,39.26,35.1481\C,0,37.
 8456,40.0061,34.9229\H,0,37.9445,40.2448,35.9863\H,0,38.8111,39.6336,3
 4.5736\C,0,37.4974,41.2841,34.1712\H,0,36.48,41.6009,34.402\H,0,38.186
 ,42.0925,34.414\S,0,37.5569,41.0759,32.3574\C,0,39.3048,41.4534,32.061
 2\H,0,39.9247,40.8246,32.693\H,0,39.4994,41.2332,31.0169\H,0,39.4882,4
 2.5076,32.2516\H,0,36.6453,38.7289,33.676\H,0,38.9341,44.416,35.7241\C
 ,0,39.969,44.538,36.041\H,0,40.0935,44.0149,36.99\C,0,40.9232,43.9952,
 34.9871\H,0,40.836,44.5636,34.0633\H,0,41.954,44.0517,35.3301\H,0,40.7
 01,42.952,34.7692\H,0,40.1379,45.5987,36.2101\H,0,41.5125,49.7745,37.8
 451\C,0,42.545,50.103,37.743\H,0,42.9451,50.3073,38.7348\C,0,43.3768,4
 9.0303,37.0392\H,0,44.4128,49.3784,36.9893\H,0,43.3497,48.1158,37.638\
 C,0,42.8845,48.7223,35.6602\C,0,42.2667,47.5734,35.2436\H,0,42.0386,46
 .6954,35.8168\N,0,41.955,47.6369,33.9199\H,0,41.4485,46.9322,33.3805\C
 ,0,42.3682,48.8393,33.442\C,0,42.2868,49.3669,32.1583\H,0,41.8287,48.7
 982,31.3639\C,0,42.8064,50.6245,31.9479\H,0,42.7664,51.0641,30.9613\C,
 0,43.3907,51.3516,32.9909\H,0,43.7839,52.3387,32.7838\C,0,43.4722,50.8
 39,34.2657\H,0,43.9227,51.4146,35.0631\C,0,42.9641,49.5627,34.5101\H,0
 ,42.5504,51.0253,37.1672\C,0,43.1007,41.1877,31.3174\O,0,42.8141,40.15
 37,31.9344\C,0,43.2341,42.4736,31.9243\C,0,43.5062,43.6109,31.2349\C,0
 ,43.8103,43.5809,29.7688\C,0,44.2596,42.1809,29.3437\C,0,43.2652,41.13
 73,29.8211\C,0,43.3929,44.9234,31.9092\C,0,44.3076,46.0195,31.3695\C,0
 ,44.3014,46.0287,29.8439\C,0,44.8246,44.6667,29.358\C,0,45.1713,47.142
 9,29.2749\C,0,45.2457,47.1063,27.7419\C,0,45.897,45.794,27.3282\C,0,45
 .0646,44.6214,27.8429\C,0,44.7833,48.5953,29.5477\C,0,45.5981,49.3855,
 28.5065\C,0,46.1013,48.3582,27.4653\C,0,43.8846,47.2679,27.0583\O,0,46
 .0056,48.8883,26.1618\H,0,43.054,42.5276,32.9894\H,0,42.8671,43.8281,2
 9.2572\H,0,45.2447,41.9688,29.7702\H,0,44.3393,42.1194,28.2582\H,0,42.
 2817,41.3438,29.3854\H,0,43.5627,40.1298,29.5247\H,0,43.5301,44.8062,3
 2.9857\H,0,42.3427,45.2459,31.7749\H,0,45.3285,45.8578,31.73\H,0,43.97
 25,46.9837,31.7516\H,0,43.27,46.1496,29.5092\H,0,45.7816,44.4677,29.85
 97\H,0,46.1927,46.9919,29.6513\H,0,46.9062,45.7397,27.7464\H,0,45.9818
 ,45.7362,26.2406\H,0,44.1001,44.6112,27.3352\H,0,45.5911,43.6995,27.58
 89\H,0,45.0107,48.9085,30.5636\H,0,43.7139,48.7257,29.3914\H,0,46.4377
 ,49.9019,28.9722\H,0,44.9952,50.1358,27.9961\H,0,47.1565,48.108,27.667
 9\H,0,43.5537,48.3013,27.1013\H,0,43.979,46.9881,26.0129\H,0,43.1253,4
 6.6429,27.5151\H,0,45.9314,48.1516,25.5382\O,0,41.2956,45.1498,28.558\
 H,0,40.659,45.0031,27.8573\H,0,40.7215,45.2909,29.3593\\Version=ES64L-
 G16RevC.01\State=1-A\HF=-5033.4978879\RMSD=3.394e-09\Dipole=4.2087949,
 -2.1090963,-3.9773969\Quadrupole=-40.8381576,-9.1818305,50.0199881,-11
 .5854313,24.3821303,6.0478167\PG=C01 [X(C88H163N2O9S2)]\\@
 The archive entry for this job was punched.


 THERE IS NO SUBJECT, HOWEVER COMPLEX,
 WHICH, IF STUDIED WITH PATIENCE AND INTELLIGIENCE
 WILL NOT BECOME
 MORE COMPLEX
                        QUOTED BY D. GORDON ROHMAN
 Job cpu time:       0 days  3 hours 26 minutes 10.8 seconds.
 Elapsed time:       0 days  0 hours  6 minutes 41.9 seconds.
 File lengths (MBytes):  RWF=   1838 Int=      0 D2E=      0 Chk=    198 Scr=      1
 Normal termination of Gaussian 16 at Thu Jul 11 11:58:05 2024.
