 Entering Gaussian System, Link 0=g16
 Input=elec_field_cutoff7.com
 Output=elec_field_cutoff7.log
 Initial command:
 /usr/local/packages/license/gaussian/g16-c01/g16/l1.exe "/work/arkanil/gauss_scratch/Gau-370334.inp" -scrdir="/work/arkanil/gauss_scratch/"
 Entering Link 1 = /usr/local/packages/license/gaussian/g16-c01/g16/l1.exe PID=    370335.
  
 Copyright (c) 1988-2019, Gaussian, Inc.  All Rights Reserved.
  
 This is part of the Gaussian(R) 16 program.  It is based on
 the Gaussian(R) 09 system (copyright 2009, Gaussian, Inc.),
 the Gaussian(R) 03 system (copyright 2003, Gaussian, Inc.),
 the Gaussian(R) 98 system (copyright 1998, Gaussian, Inc.),
 the Gaussian(R) 94 system (copyright 1995, Gaussian, Inc.),
 the Gaussian 92(TM) system (copyright 1992, Gaussian, Inc.),
 the Gaussian 90(TM) system (copyright 1990, Gaussian, Inc.),
 the Gaussian 88(TM) system (copyright 1988, Gaussian, Inc.),
 the Gaussian 86(TM) system (copyright 1986, Carnegie Mellon
 University), and the Gaussian 82(TM) system (copyright 1983,
 Carnegie Mellon University). Gaussian is a federally registered
 trademark of Gaussian, Inc.
  
 This software contains proprietary and confidential information,
 including trade secrets, belonging to Gaussian, Inc.
  
 This software is provided under written license and may be
 used, copied, transmitted, or stored only in accord with that
 written license.
  
 The following legend is applicable only to US Government
 contracts under FAR:
  
                    RESTRICTED RIGHTS LEGEND
  
 Use, reproduction and disclosure by the US Government is
 subject to restrictions as set forth in subparagraphs (a)
 and (c) of the Commercial Computer Software - Restricted
 Rights clause in FAR 52.227-19.
  
 Gaussian, Inc.
 340 Quinnipiac St., Bldg. 40, Wallingford CT 06492
  
  
 ---------------------------------------------------------------
 Warning -- This program may not be used in any manner that
 competes with the business of Gaussian, Inc. or will provide
 assistance to any competitor of Gaussian, Inc.  The licensee
 of this program is prohibited from giving any competitor of
 Gaussian, Inc. access to this program.  By using this program,
 the user acknowledges that Gaussian, Inc. is engaged in the
 business of creating and licensing software in the field of
 computational chemistry and represents and warrants to the
 licensee that it is not a competitor of Gaussian, Inc. and that
 it will not use this program in any manner prohibited above.
 ---------------------------------------------------------------
  

 Cite this work as:
 Gaussian 16, Revision C.01,
 M. J. Frisch, G. W. Trucks, H. B. Schlegel, G. E. Scuseria, 
 M. A. Robb, J. R. Cheeseman, G. Scalmani, V. Barone, 
 G. A. Petersson, H. Nakatsuji, X. Li, M. Caricato, A. V. Marenich, 
 J. Bloino, B. G. Janesko, R. Gomperts, B. Mennucci, H. P. Hratchian, 
 J. V. Ortiz, A. F. Izmaylov, J. L. Sonnenberg, D. Williams-Young, 
 F. Ding, F. Lipparini, F. Egidi, J. Goings, B. Peng, A. Petrone, 
 T. Henderson, D. Ranasinghe, V. G. Zakrzewski, J. Gao, N. Rega, 
 G. Zheng, W. Liang, M. Hada, M. Ehara, K. Toyota, R. Fukuda, 
 J. Hasegawa, M. Ishida, T. Nakajima, Y. Honda, O. Kitao, H. Nakai, 
 T. Vreven, K. Throssell, J. A. Montgomery, Jr., J. E. Peralta, 
 F. Ogliaro, M. J. Bearpark, J. J. Heyd, E. N. Brothers, K. N. Kudin, 
 V. N. Staroverov, T. A. Keith, R. Kobayashi, J. Normand, 
 K. Raghavachari, A. P. Rendell, J. C. Burant, S. S. Iyengar, 
 J. Tomasi, M. Cossi, J. M. Millam, M. Klene, C. Adamo, R. Cammi, 
 J. W. Ochterski, R. L. Martin, K. Morokuma, O. Farkas, 
 J. B. Foresman, and D. J. Fox, Gaussian, Inc., Wallingford CT, 2019.
 
 ******************************************
 Gaussian 16:  ES64L-G16RevC.01  3-Jul-2019
                 2-May-2026 
 ******************************************
 %chk=ksi_reactant_trial.chk
 %nprocshared=64
 Will use up to   64 processors via shared memory.
 %mem=200GB
 --------------------------
 # wb97xd/6-31g(d) prop=efg
 --------------------------
 1/38=1,172=1/1;
 2/12=2,17=6,18=5,40=1/2;
 3/5=1,6=6,7=1,11=2,25=1,30=1,74=-58/1,2,3;
 4//1;
 5/5=2,38=5/2;
 6/7=2,8=2,9=2,10=2,14=1,28=1/1,2;
 99/5=1,9=1/99;
 -------------------------------
 None_sub_reg_combined_truncated
 -------------------------------
 Symbolic Z-matrix:
 Charge = -2 Multiplicity = 1
 H                    -3.38156   8.43095  -7.63246 
 C                    -3.259     8.105    -6.597 
 H                    -3.30209   8.97922  -5.94644 
 C                    -4.38163   7.12323  -6.22459 
 H                    -5.33171   7.66368  -6.25056 
 H                    -4.43528   6.32706  -6.97133 
 C                    -4.18473   6.50663  -4.86465 
 C                    -4.5695    7.16277  -3.70441 
 H                    -4.98259   8.16086  -3.7691 
 C                    -4.43964   6.55934  -2.46281 
 H                    -4.73918   7.08767  -1.5669 
 C                    -3.90624   5.27791  -2.35894 
 O                    -3.78481   4.61871  -1.18712 
 H                    -4.30172   5.03027  -0.47696 
 C                    -3.47227   4.63258  -3.51553 
 H                    -3.04664   3.64787  -3.41977 
 C                    -3.61597   5.24344  -4.7417 
 H                    -3.28837   4.72005  -5.62527 
 C                    -1.86957   7.4962   -6.41918 
 O                    -1.05971   7.95427  -5.63517 
 N                    -1.59111   6.42622  -7.1908 
 H                    -2.25332   6.10245  -7.87658 
 C                    -0.293     5.772    -7.147 
 H                    -0.02338   5.64499  -6.09607 
 C                    -0.27813   4.43166  -7.88267 
 H                    -0.65069   4.60529  -8.90135 
 C                     1.16393   3.93637  -7.9864 
 H                     1.61193   3.85428  -7.00095 
 H                     1.19227   2.95859  -8.46034 
 H                     1.76443   4.62367  -8.57884 
 C                    -1.18997   3.37331  -7.24407 
 H                    -2.21858   3.73762  -7.26836 
 H                    -1.16166   2.4802   -7.87179 
 C                    -0.83065   2.98061  -5.81651 
 H                    -0.86948   3.83678  -5.14938 
 H                    -1.53494   2.23814  -5.45016 
 H                     0.16114   2.5406   -5.76794 
 H                     0.45236   6.43973  -7.59998 
 H                     1.36582   8.17994  -3.7009 
 C                     1.829     7.513    -2.972 
 H                     1.59798   7.87319  -1.96887 
 C                     1.26177   6.09558  -3.15424 
 H                     1.4927    5.75696  -4.17134 
 C                     1.89743   5.11839  -2.16904 
 H                     1.64409   5.39678  -1.1498 
 H                     1.5395    4.10801  -2.35368 
 H                     2.9807    5.12446  -2.26128 
 C                    -0.25489   6.12158  -2.98901 
 H                    -0.70501   6.80779  -3.70172 
 H                    -0.67654   5.13162  -3.14795 
 H                    -0.52417   6.44515  -1.98617 
 C                     3.34254   7.53324  -3.1427 
 O                     4.12238   7.74937  -2.22734 
 N                     3.76429   7.25493  -4.38904 
 H                     3.08585   7.17718  -5.12946 
 C                     5.171     7.164    -4.762 
 H                     5.66609   6.48173  -4.06355 
 C                     5.3102    6.66359  -6.19314 
 H                     4.86468   5.67531  -6.3106 
 H                     4.84484   7.36871  -6.88332 
 C                     6.82495   6.61251  -6.46587 
 O                     7.43309   5.55748  -6.2192 
 O                     7.33717   7.68769  -6.85103 
 H                     5.6429    8.14752  -4.67451 
 H                    -2.91177   12.21143  -1.28481 
 C                    -3.814     11.631   -1.106 
 H                    -4.18788   11.27738  -2.06468 
 C                    -3.52282   10.44675  -0.18531 
 H                    -3.121     10.83308   0.75917 
 C                    -4.81632   9.69286   0.11483 
 H                    -5.25591   9.31316  -0.80487 
 H                    -4.63254   8.85832   0.78609 
 H                    -5.54383   10.35094   0.58639 
 C                    -2.46514   9.5352   -0.81842 
 H                    -2.89041   9.02943  -1.68743 
 H                    -1.6402    10.15652  -1.17426 
 C                    -1.90567   8.49773   0.14707 
 H                    -2.66455   7.78335   0.45375 
 H                    -1.09733   7.94706  -0.32629 
 H                    -1.51301   8.98023   1.03983 
 H                    -4.56299   12.28608  -0.6652 
 H                    -10.64267   10.66098  -1.50468 
 C                    -10.796    10.659   -0.428 
 H                    -11.4923   9.85972  -0.18426 
 C                    -9.46764   10.44285   0.30019 
 H                    -8.78806   11.26277   0.05454 
 H                    -9.64125   10.45563   1.37791 
 C                    -8.84468   9.13517  -0.09982 
 C                    -8.18292   9.01971  -1.31525 
 H                    -8.09531   9.88383  -1.9583 
 C                    -7.62957   7.81931  -1.71627 
 H                    -7.12511   7.73863  -2.66887 
 C                    -7.72226   6.70294  -0.89441 
 O                    -7.16865   5.50672  -1.23489 
 H                    -6.63223   5.60463  -2.03503 
 C                    -8.3954    6.80191   0.31913 
 H                    -8.49553   5.9234    0.93882 
 C                    -8.95142   8.00717   0.70324 
 H                    -9.47466   8.06804   1.64664 
 H                    -11.24068   11.60845  -0.13785 
 H                    -11.11047   2.57742   4.36296 
 C                    -10.135    2.289     3.964 
 H                    -10.24335   2.06859   2.90279 
 C                    -9.12969   3.42035   4.1922 
 H                    -9.00216   3.54106   5.27342 
 C                    -7.77579   3.0627    3.58471 
 H                    -7.87036   2.86952   2.51871 
 H                    -7.05657   3.86725   3.73698 
 H                    -7.38202   2.16554   4.05375 
 C                    -9.65852   4.72776   3.60415 
 H                    -10.59864   5.01077   4.07335 
 H                    -8.94353   5.5359    3.7571 
 H                    -9.83561   4.61577   2.53523 
 C                    -9.70929   1.0153    4.70607 
 O                    -9.30387   1.0424    5.85829 
 N                    -9.83607  -0.11482   3.99292 
 H                    -10.15666  -0.06976   3.03132 
 C                    -9.626    -1.451     4.532 
 H                    -9.53113  -1.35207   5.61799 
 C                    -10.79901  -2.36515   4.15357 
 H                    -10.85535  -2.39185   3.0616 
 H                    -10.568   -3.3716    4.51268 
 C                    -12.15451  -1.92365   4.69272 
 H                    -12.22779  -2.09869   5.76723 
 H                    -12.30549  -0.86137   4.48703 
 C                    -13.28607  -2.71872   3.954 
 O                    -13.371   -2.47306   2.72373 
 O                    -13.97436  -3.50467   4.60217 
 C                    -8.33783  -2.01175   3.92601 
 O                    -8.29857  -2.46899   2.79059 
 N                    -7.26889  -1.94817   4.72865 
 H                    -7.34332  -1.48233   5.62139 
 C                    -5.923    -2.182     4.246 
 H                    -6.00451  -2.82428   3.36972 
 C                    -5.29734  -0.83589   3.85355 
 H                    -5.86365  -0.39255   3.02995 
 H                    -5.34494  -0.15152   4.7036 
 C                    -3.8172   -0.968     3.4267 
 O                    -3.3461   -2.10937   3.31319 
 O                    -3.20173   0.10183   3.21193 
 C                    -5.07031  -2.81901   5.34165 
 O                    -4.68509  -2.16508   6.30086 
 N                    -4.76019  -4.11537   5.20263 
 C                    -3.99052  -4.79142   6.23318 
 H                    -4.32817  -4.46024   7.21726 
 H                    -2.93142  -4.53475   6.12189 
 C                    -4.23353  -6.27173   5.97115 
 H                    -5.15555  -6.58542   6.4603 
 H                    -3.40837  -6.89527   6.31177 
 C                    -4.41901  -6.31041   4.45717 
 H                    -4.94674  -7.20129   4.11798 
 H                    -3.45216  -6.25536   3.9565 
 C                    -5.227    -5.033     4.184 
 H                    -5.03924  -4.65558   3.17714 
 C                    -6.72069  -5.35527   4.38346 
 O                    -7.22573  -5.40702   5.4895 
 N                    -7.35471  -5.65734   3.24408 
 H                    -6.88455  -5.51305   2.35774 
 C                    -8.71     -6.154     3.219 
 H                    -9.18643  -5.85975   4.15822 
 C                    -9.51567  -5.63196   2.0299 
 H                    -9.60496  -4.54875   2.10985 
 H                    -8.99244  -5.87979   1.10135 
 C                    -10.86515  -6.29405   2.0659 
 C                    -11.94033  -5.68515   2.69383 
 H                    -11.84138  -4.69132   3.09575 
 C                    -13.15522  -6.33595   2.81326 
 H                    -13.96261  -5.83212   3.32364 
 C                    -13.31128  -7.60805   2.29141 
 H                    -14.26011  -8.12083   2.37511 
 C                    -12.24426  -8.22573   1.66026 
 H                    -12.3602  -9.21732   1.24546 
 C                    -11.02733  -7.57741   1.55933 
 H                    -10.19513  -8.06653   1.07205 
 H                    -8.69055  -7.25367   3.18246 
 H                    -3.09972   6.90174   8.82707 
 C                    -2.85      5.917     8.422 
 H                    -2.51373   5.28349   9.24398 
 C                    -4.09853   5.29892   7.77144 
 H                    -4.91278   5.34269   8.49945 
 H                    -4.39981   5.88382   6.89928 
 C                    -3.88613   3.86428   7.36457 
 C                    -3.7766    2.88023   8.34154 
 H                    -3.83231   3.15628   9.38634 
 C                    -3.6312    1.54967   7.98775 
 H                    -3.56507   0.79119   8.75375 
 C                    -3.60451   1.1852    6.65135 
 H                    -3.53908   0.14163   6.38165 
 C                    -3.70253   2.16076   5.67199 
 H                    -3.69255   1.87492   4.63061 
 C                    -3.83075   3.4936    6.02829 
 H                    -3.91089   4.24884   5.25756 
 C                    -1.69831   6.08646   7.45031 
 O                    -0.61527   5.53103   7.61102 
 N                    -1.91913   6.92834   6.43601 
 H                    -2.83596   7.32701   6.3106 
 C                    -0.933     7.205     5.406 
 H                    -0.52287   6.25019   5.06011 
 C                    -1.55732   7.98024   4.25243 
 H                    -1.97728   8.91658   4.62887 
 H                    -0.75852   8.23031   3.55014 
 C                    -2.61817   7.20098   3.52075 
 C                    -3.9279    7.65265   3.46081 
 H                    -4.21349   8.55538   3.984 
 C                    -4.8817    6.98578   2.70794 
 H                    -5.89621   7.35902   2.65493 
 C                    -4.52312   5.84877   1.99909 
 O                    -5.38192   5.20564   1.16025 
 H                    -6.27981   5.55473   1.23349 
 C                    -3.2243    5.35399   2.09795 
 H                    -2.97572   4.4497    1.56697 
 C                    -2.2866    6.02655   2.85059 
 H                    -1.28185   5.64001   2.91321 
 H                    -0.11386   7.78404   5.84987 
 H                     1.52392   6.58291   9.14769 
 C                     2.43      6.046     9.438 
 H                     3.09314   6.72435   9.97362 
 C                     2.04467   4.85339   10.31987 
 H                     1.61646   4.06369   9.70147 
 H                     2.93663   4.45514   10.80637 
 C                     1.02091   5.26844   11.37824 
 H                     1.43288   6.05511   12.01166 
 H                     0.12392   5.64528   10.88268 
 C                     0.63347   4.09787   12.27133 
 O                     0.93414   4.03856   13.4475 
 N                    -0.09644   3.15317   11.65262 
 H                    -0.32818   2.32056   12.16885 
 H                    -0.25963   3.15318   10.65011 
 C                     3.13189   5.57356   8.16568 
 O                     4.31649   5.77893   7.9481 
 N                     2.32189   4.94085   7.29322 
 H                     1.33514   4.89542   7.51234 
 C                     2.763     4.061     6.223 
 H                     3.11885   3.11104   6.63766 
 H                     1.89587   3.85594   5.58401 
 C                     3.86757   4.59815   5.31632 
 O                     4.69806   3.85718   4.82431 
 N                     3.78622   5.91338   5.04937 
 H                     3.04109   6.44069   5.47796 
 C                     4.619     6.609     4.093 
 H                     5.30812   5.87046   3.67363 
 C                     3.74908   7.2358    2.98798 
 H                     3.2152    8.08585   3.42372 
 H                     4.41364   7.63024   2.21944 
 C                     2.72642   6.28633   2.355 
 H                     2.0721    5.89656   3.14388 
 C                     1.87039   7.06611   1.35696 
 H                     2.48186   7.40088   0.52209 
 H                     1.06622   6.4415    0.9729 
 H                     1.42327   7.94035   1.82634 
 C                     3.40254   5.10986   1.65824 
 H                     3.92517   4.4809    2.37292 
 H                     2.6614    4.49835   1.14839 
 H                     4.1108    5.46851   0.9158 
 C                     5.43706   7.7465    4.72427 
 O                     6.03376   8.54452   4.02483 
 N                     5.37133   7.83638   6.06366 
 H                     5.01962   7.06102   6.61788 
 C                     6.011     8.917     6.777 
 H                     6.40051   9.61736   6.0394 
 H                     5.28519   9.41981   7.41862 
 H                     6.83132   8.54585   7.39394 
 H                     9.08704   4.60284   0.62826 
 C                     8.472     3.901     0.062 
 H                     8.91414   2.90686   0.10586 
 C                     7.06188   3.85869   0.68341 
 H                     6.57867   4.82657   0.50747 
 C                     6.21596   2.762     0.04308 
 H                     6.70241   1.79559   0.15079 
 H                     5.24341   2.71044   0.52529 
 H                     6.06225   2.94816  -1.01681 
 C                     7.17865   3.63495   2.18923 
 H                     7.74911   4.43468   2.65686 
 H                     6.19535   3.60529   2.65135 
 H                     7.67875   2.69177   2.39344 
 C                     8.41951   4.3745   -1.36862 
 O                     8.41162   5.5813   -1.64603 
 N                     8.40764   3.43041  -2.30736 
 H                     8.41522   2.45465  -2.01504 
 C                     8.161     3.676    -3.717 
 H                     7.92635   4.73293  -3.85156 
 C                     9.34898   3.27731  -4.60882 
 H                     9.29799   2.20653  -4.81807 
 H                     9.22999   3.81102  -5.55224 
 C                     10.71872   3.56295  -3.9909 
 H                     10.83999   2.9652   -3.0865 
 H                     11.48197   3.24472  -4.70555 
 C                     10.95433   5.03187  -3.62209 
 H                     10.30438   5.33056  -2.80578 
 H                     11.99047   5.14886  -3.28174 
 N                     10.74024   5.91456  -4.7445 
 H                     11.27921   5.68843  -5.56694 
 C                     9.76908   6.83508  -4.91129 
 N                     8.92569   7.13394  -3.94311 
 H                     8.83649   6.59059  -3.08621 
 H                     8.22932   7.86296  -4.05184 
 N                     9.75131   7.53281  -6.04637 
 H                     10.38306   7.21967  -6.76765 
 H                     8.7613    7.75347  -6.43181 
 C                     6.94849   2.82068  -4.11688 
 O                     6.68907   1.78701  -3.50544 
 N                     6.25069   3.27801  -5.14635 
 H                     6.57354   4.14235  -5.60917 
 C                     5.067     2.59     -5.632 
 H                     5.16603   1.52519  -5.41678 
 C                     3.79591   3.12838  -4.97994 
 H                     3.61036   4.15929  -5.27217 
 H                     2.94746   2.51651  -5.2734 
 H                     3.88727   3.09526  -3.89785 
 H                     5.01932   2.72103  -6.71517 
 H                    -6.49145  -1.85437  -9.72799 
 C                    -5.456    -1.836    -10.062 
 H                    -5.41358  -2.22864  -11.07462 
 C                    -4.90223  -0.41532  -10.02116 
 H                    -3.86333  -0.413    -10.35733 
 H                    -5.47132   0.22077  -10.70272 
 C                    -4.9747    0.18027  -8.62389 
 H                    -6.00478   0.18853  -8.26252 
 H                    -4.34376  -0.37113  -7.92418 
 S                    -4.3985    1.91679  -8.64354 
 C                    -4.98509   2.42946  -7.00592 
 H                    -4.42438   1.92131  -6.22605 
 H                    -4.82708   3.49956  -6.93221 
 H                    -6.04966   2.22841  -6.92684 
 H                    -4.87444  -2.49127  -9.41627 
 H                    -0.19228  -2.82526  -8.11782 
 C                     0.766    -2.314    -8.233 
 H                     1.07601  -2.40714  -9.27996 
 C                     0.5879   -0.83118  -7.88075 
 H                     1.5396   -0.29534  -7.88021 
 H                    -0.04226  -0.3791   -8.65221 
 C                    -0.09131  -0.70824  -6.54789 
 C                     0.61899  -0.44349  -5.3866 
 H                     1.6843   -0.26087  -5.43849 
 C                    -0.03008  -0.42058  -4.16367 
 H                     0.52339  -0.22012  -3.25739 
 C                    -1.38843  -0.66848  -4.09391 
 H                    -1.89204  -0.67858  -3.14306 
 C                    -2.10212  -0.91927  -5.25169 
 H                    -3.16031  -1.12268  -5.19212 
 C                    -1.45872  -0.93398  -6.47109 
 H                    -2.00913  -1.13966  -7.37853 
 C                     1.76331  -3.10055  -7.41242 
 O                     1.59826  -4.25053  -7.06424 
 N                     2.9196   -2.44417  -7.19005 
 H                     3.01571  -1.4632   -7.41521 
 C                     3.941    -2.923    -6.3 
 H                     3.54097  -3.75419  -5.71366 
 C                     5.16607  -3.35903  -7.13155 
 H                     4.79541  -4.02915  -7.91072 
 H                     5.56053  -2.45898  -7.61175 
 C                     6.27764  -4.03708  -6.3267 
 H                     6.35835  -3.58299  -5.33837 
 H                     6.04511  -5.09559  -6.19405 
 C                     7.6416   -3.88079  -6.99399 
 H                     7.89713  -2.81507  -7.05754 
 H                     8.41075  -4.37589  -6.39761 
 N                     7.66566  -4.48155  -8.31529 
 H                     6.77593  -4.49053  -8.78967 
 C                     8.75417  -4.36187  -9.11974 
 N                     9.88555  -3.9761   -8.66474 
 H                     10.46768  -3.57197  -7.17468 
 H                     10.62358  -3.96545  -9.35849 
 N                     8.52111  -4.68566  -10.44621 
 H                     7.71207  -5.24807  -10.65461 
 H                     9.3323   -4.90226  -11.00249 
 C                     4.34634  -1.71699  -5.45408 
 O                     4.38574  -0.60668  -5.95652 
 N                     4.6334   -1.97135  -4.17603 
 H                     4.63512  -2.92433  -3.84307 
 C                     5.353    -1.034    -3.351 
 H                     5.49469  -0.11373  -3.92073 
 C                     4.61968  -0.69853  -2.02995 
 H                     5.37069  -0.32155  -1.329 
 C                     3.59353   0.40012  -2.27481 
 H                     2.88754   0.09841  -3.04478 
 H                     3.04873   0.61524  -1.35945 
 H                     4.09898   1.30494  -2.59654 
 C                     3.96837  -1.93632  -1.42054 
 H                     4.69003  -2.74369  -1.33268 
 H                     3.60691  -1.70666  -0.42165 
 H                     3.1268   -2.27036  -2.0239 
 C                     6.71523  -1.64758  -3.03435 
 O                     6.87931  -2.87115  -3.04493 
 N                     7.66634  -0.76654  -2.75552 
 H                     7.44813   0.22783  -2.8293 
 C                     9.003    -1.131    -2.339 
 H                     8.97427  -2.17977  -2.02972 
 C                     10.01145  -1.00628  -3.49291 
 H                     9.68471  -0.231    -4.18832 
 H                     10.99185  -0.72732  -3.10621 
 C                     10.08714  -2.34742  -4.21889 
 H                     10.80225  -3.01395  -3.73771 
 H                     9.109    -2.83526  -4.16301 
 C                     10.36776  -2.28317  -5.70264 
 O                     10.30157  -1.2885   -6.38105 
 O                     10.61823  -3.49572  -6.17471 
 C                     9.36126  -0.30707  -1.09855 
 O                     9.11198   0.88792  -1.01617 
 N                     9.89934  -1.02864  -0.11241 
 H                     10.25827  -1.9664   -0.28607 
 C                     10.161   -0.507     1.215 
 H                     10.69061   0.45375   1.11499 
 C                     8.8588   -0.2299    1.97836 
 H                     9.09303   0.2982    2.90122 
 H                     8.2558    0.44371   1.36637 
 C                     8.02951  -1.46798   2.30318 
 H                     8.6437   -2.35671   2.43597 
 H                     7.45328  -1.29596   3.21066 
 S                     6.80353  -1.83742   0.99148 
 C                     7.4813   -3.36074   0.28309 
 H                     7.18139  -4.21237   0.88839 
 H                     7.07443  -3.4502   -0.71761 
 H                     8.56104  -3.28819   0.23707 
 C                     11.12608  -1.47421   1.9109 
 O                     11.67439  -2.3759    1.29844 
 N                     11.37778  -1.19161   3.19393 
 H                     10.81822  -0.5273    3.736 
 C                     12.338   -1.953     3.958 
 H                     12.95502  -2.50398   3.23948 
 C                     13.20983  -0.99504   4.7942 
 H                     12.53465  -0.41829   5.4332 
 C                     14.1897  -1.7696    5.67162 
 H                     14.83754  -2.39771   5.06187 
 H                     14.81522  -1.07611   6.22876 
 H                     13.66255  -2.39854   6.38461 
 C                     13.95943  -0.03654   3.87312 
 H                     13.26137   0.52767   3.26149 
 H                     14.54773   0.66465   4.45979 
 H                     14.62992  -0.58626   3.21497 
 C                     11.61149  -2.92735   4.8903 
 O                     10.66075  -2.58613   5.56838 
 N                     12.14415  -4.16326   4.92769 
 H                     12.89196  -4.39534   4.29415 
 C                     11.646   -5.208     5.792 
 H                     10.81621  -4.76253   6.34623 
 C                     11.14908  -6.44133   5.02191 
 H                     10.9362  -6.11897   4.0025 
 H                     11.91903  -7.21498   4.99364 
 C                     9.88994  -6.99282   5.60339 
 C                     9.70267  -8.18851   6.2301 
 H                     10.4157  -8.96311   6.44331 
 N                     8.38876  -8.33093   6.59285 
 H                     7.99162  -9.13558   7.04579 
 C                     7.69632  -7.22348   6.1933 
 C                     6.34672  -6.91261   6.30498 
 H                     5.65341  -7.59813   6.7709 
 C                     5.92788  -5.7002    5.80105 
 H                     4.8844   -5.4298    5.86414 
 C                     6.82934  -4.80687   5.21416 
 H                     6.46647  -3.8563    4.85439 
 C                     8.16652  -5.11039   5.09754 
 H                     8.85347  -4.40417   4.65858 
 C                     8.61446  -6.34302   5.57599 
 H                     12.42762  -5.49083   6.50643 
 H                     12.26315  -4.92214   0.35191 
 C                     11.605   -5.724     0.012 
 H                     12.19083  -6.48997  -0.50044 
 C                     10.8709  -6.32592   1.19836 
 H                     10.15031  -7.08229   0.89352 
 H                     11.57548  -6.76483   1.90776 
 S                     9.93359  -4.99485   2.05399 
 H                     8.91406  -5.75979   2.44627 
 C                     10.60595  -5.09513  -0.963 
 O                     10.57592  -3.9036   -1.20647 
 N                     9.76404  -5.97166  -1.53868 
 H                     9.73633  -6.93854  -1.2464 
 C                     8.655    -5.579    -2.378 
 H                     8.5661   -4.4916   -2.3361 
 C                     8.88185  -6.02458  -3.8262 
 H                     9.00098  -7.10545  -3.86991 
 H                     8.02662  -5.7412   -4.43216 
 H                     9.77344  -5.55229  -4.23134 
 C                     7.37745  -6.24474  -1.85175 
 O                     7.43061  -7.26437  -1.18285 
 N                     6.25268  -5.64068  -2.25283 
 H                     6.34013  -4.71286  -2.65163 
 C                     4.933    -6.087    -1.836 
 H                     4.8913   -7.16946  -1.97459 
 C                     4.67311  -5.74041  -0.36696 
 H                     5.34078  -6.34385   0.25071 
 H                     4.92784  -4.69081  -0.20952 
 C                     3.22689  -5.95661   0.08093 
 H                     2.57097  -5.36429  -0.56374 
 C                     2.81524  -7.42182  -0.01797 
 H                     3.51338  -8.05162   0.52817 
 H                     1.82673  -7.55261   0.41368 
 H                     2.78238  -7.75406  -1.05262 
 C                     3.06375  -5.45679   1.5147 
 H                     3.35705  -4.41258   1.58935 
 H                     2.0293   -5.54938   1.83522 
 H                     3.68516  -6.03737   2.19385 
 H                     4.19212  -5.61285  -2.4813 
 H                    -0.13425  -5.59481  -4.53325 
 C                    -1.017    -5.249    -3.993 
 H                    -1.43483  -6.06357  -3.40194 
 C                    -0.63246  -4.06122  -3.09867 
 H                    -0.33718  -3.2365   -3.7569 
 C                    -1.82519  -3.61859  -2.25652 
 H                    -2.22054  -4.45857  -1.68966 
 H                    -1.52036  -2.84451  -1.55649 
 H                    -2.62042  -3.21983  -2.88152 
 C                     0.55131  -4.42184  -2.20586 
 H                     1.40187  -4.7321   -2.81053 
 H                     0.8443   -3.56283  -1.6056 
 H                     0.28808  -5.23333  -1.53176 
 C                    -2.02026  -4.76434  -5.02617 
 O                    -1.72128  -4.01847  -5.94145 
 N                    -3.28808  -5.20499  -4.85347 
 H                    -3.52878  -5.79419  -4.06525 
 C                    -4.364    -4.764    -5.721 
 H                    -3.89242  -4.14257  -6.49008 
 C                    -5.08874  -5.9598   -6.3711 
 H                    -5.47089  -6.58908  -5.56067 
 C                    -6.2677   -5.46029  -7.20368 
 H                    -5.92441  -4.78318  -7.98494 
 H                    -6.78257  -6.29362  -7.67374 
 H                    -6.98493  -4.93626  -6.57642 
 C                    -4.10365  -6.77747  -7.21124 
 H                    -3.88101  -6.23538  -8.13343 
 H                    -3.16999  -6.87725  -6.65514 
 C                    -4.62424  -8.17022  -7.54511 
 H                    -5.52856  -8.12195  -8.1473 
 H                    -3.87506  -8.72737  -8.10349 
 H                    -4.84878  -8.71721  -6.63234 
 C                    -5.35691  -3.95875  -4.88754 
 O                    -5.94885  -4.45969  -3.94707 
 N                    -5.53715  -2.68821  -5.27293 
 H                    -5.03109  -2.33574  -6.07075 
 C                    -6.536    -1.837    -4.67 
 H                    -6.77558  -2.24145  -3.68297 
 C                    -6.10133  -0.38899  -4.54025 
 H                    -5.84672   0.04253  -5.51091 
 H                    -6.94107   0.17706  -4.13155 
 C                    -4.9269   -0.16536  -3.59853 
 O                    -4.476    -0.98506  -2.84435 
 O                    -4.47693   1.07113  -3.72776 
 H                    -3.68765   1.26823  -3.13155 
 H                    -7.4524   -1.87468  -5.27527 
 H                    -11.52702   0.68894  -4.98084 
 C                    -11.821    1.712    -5.205 
 H                    -12.17383   2.17607  -4.28638 
 C                    -10.64771   2.49433  -5.78571 
 H                    -10.31997   2.03122  -6.7189 
 H                    -10.96299   3.51421  -6.01719 
 C                    -9.47149   2.55302  -4.82296 
 H                    -9.75988   3.02532  -3.88232 
 H                    -9.07632   1.5555   -4.62316 
 S                    -8.12605   3.56175  -5.54799 
 C                    -6.96866   3.5838   -4.14968 
 H                    -6.4861    2.61774  -4.03721 
 H                    -6.21554   4.33211  -4.37605 
 H                    -7.51466   3.84866  -3.24957 
 H                    -12.64362   1.68514  -5.91469 
 H                    -11.60754   2.13368  -0.53548 
 C                    -10.641    1.703    -0.804 
 H                    -10.63342   1.49208  -1.87523 
 C                    -9.53708   2.70396  -0.44844 
 H                    -9.73707   3.65214  -0.95888 
 H                    -9.57094   2.88669   0.62719 
 C                    -8.13394   2.23895  -0.82484 
 H                    -8.13549   1.72794  -1.78968 
 H                    -7.46332   3.09623  -0.86982 
 S                    -7.39954   1.09717   0.41394 
 C                    -5.67138   1.66179   0.33083 
 H                    -5.62179   2.72432   0.55068 
 H                    -5.11936   1.10761   1.08408 
 H                    -5.26089   1.4565   -0.65382 
 C                    -10.45902   0.42148   0.00346 
 O                    -10.55965   0.42633   1.21566 
 N                    -10.21162  -0.67243  -0.72962 
 H                    -10.02118  -0.58931  -1.71934 
 C                    -9.794    -1.951    -0.189 
 H                    -9.71746  -1.85609   0.89627 
 C                    -10.76848  -3.06288  -0.58114 
 H                    -10.7663  -3.16257  -1.66949 
 H                    -10.41039  -3.99995  -0.15307 
 C                    -12.18536  -2.79061  -0.08865 
 H                    -12.18703  -2.45459   0.94799 
 H                    -12.64981  -2.00509  -0.68996 
 C                    -13.05004  -4.03675  -0.18718 
 O                    -12.92684  -4.84797  -1.10993 
 N                    -13.95745  -4.12977   0.77364 
 H                    -14.52172  -4.96341   0.82566 
 H                    -13.87498  -3.5014    1.62154 
 C                    -8.43408  -2.25654  -0.81807 
 O                    -8.23731  -2.0082   -2.00205 
 N                    -7.54237  -2.8241   -0.00532 
 H                    -7.72437  -2.8611    0.99477 
 C                    -6.208    -3.149    -0.463 
 H                    -6.18689  -2.95731  -1.53979 
 C                    -5.14871  -2.29081   0.22564 
 H                    -5.01818  -2.5888    1.26257 
 H                    -4.20146  -2.39168  -0.29738 
 H                    -5.4509   -1.24856   0.19369 
 C                    -5.94431  -4.63137  -0.19417 
 O                    -5.81819  -5.08995   0.93713 
 N                    -5.86699  -5.39828  -1.28243 
 H                    -5.92827  -4.99465  -2.21251 
 C                    -5.754    -6.838    -1.207 
 H                    -6.17028  -7.1544   -0.24359 
 C                    -6.53485  -7.48157  -2.36757 
 H                    -6.27752  -6.93563  -3.27711 
 H                    -6.19712  -8.5144   -2.47951 
 C                    -8.02195  -7.45302  -2.14442 
 C                    -8.75121  -6.27813  -2.2944 
 H                    -8.25105  -5.37117  -2.59982 
 C                    -10.11358  -6.25792  -2.07079 
 H                    -10.68045  -5.34811  -2.1864 
 C                    -10.79449  -7.41348  -1.69335 
 O                    -12.12002  -7.4289   -1.46858 
 H                    -12.46507  -6.50832  -1.39745 
 C                    -10.06975  -8.59947  -1.56872 
 H                    -10.5933  -9.50254  -1.29335 
 C                    -8.70506  -8.60768  -1.78164 
 H                    -8.15859  -9.53525  -1.66701 
 C                    -4.28121  -7.26454  -1.29275 
 O                    -3.64468  -7.21875  -2.33203 
 N                    -3.79705  -7.75135  -0.13514 
 H                    -4.2882   -7.51879   0.71433 
 C                    -2.447    -8.262    0. 
 H                    -2.25621  -8.91322  -0.85787 
 C                    -1.40032  -7.13732   0.01375 
 H                    -0.40978  -7.59566   0.03682 
 H                    -1.50266  -6.59167  -0.92568 
 C                    -1.54303  -6.19107   1.16229 
 C                    -2.34781  -5.08236   1.22947 
 H                    -3.05639  -4.72227   0.50861 
 N                    -2.16513  -4.42282   2.4032 
 H                    -2.62852  -3.56055   2.69656 
 C                    -1.23232  -5.08787   3.1317 
 C                    -0.69218  -4.79209   4.37826 
 H                    -1.00619  -3.90615   4.90851 
 C                     0.24761  -5.65704   4.89263 
 H                     0.68922  -5.45746   5.85857 
 C                     0.6452   -6.79785   4.18666 
 H                     1.38022  -7.45664   4.62831 
 C                     0.12606  -7.09225   2.94611 
 H                     0.44316  -7.98014   2.41594 
 C                    -0.81912  -6.22813   2.39061 
 H                    -2.39854  -8.84644   0.92034 
 H                     4.94915  -10.17522  -0.16296 
 C                     5.935    -9.998     0.262 
 H                     6.32348  -9.07139  -0.15068 
 C                     5.85117  -9.93927   1.78258 
 H                     5.15639  -9.1534    2.08644 
 H                     5.45123  -10.88906   2.14887 
 C                     7.20952  -9.6842    2.44448 
 H                     7.95793  -10.31119   1.94503 
 C                     7.62783  -8.22192   2.30669 
 H                     6.92236  -7.57926   2.83125 
 H                     8.61231  -8.07447   2.75021 
 H                     7.65749  -7.92763   1.26005 
 C                     7.16782  -10.06862   3.92192 
 H                     6.89003  -11.11414   4.0431 
 H                     8.14282  -9.91379   4.3792 
 H                     6.43986  -9.45271   4.44599 
 H                     6.58939  -10.81055  -0.04892 
 O                    -0.99047   1.17238   4.22427 
 H                    -1.13297   0.93971   5.14366 
 H                    -1.78142   0.79145   3.75958 
 O                     0.214     3.66346   4.09592 
 H                     0.61507   3.60576   3.22537 
 H                    -0.29411   2.83312   4.19568 
 O                    -0.56657   3.0696    8.8354 
 H                    -0.58884   3.93649   8.38977 
 H                    -1.30743   2.56764   8.48343 
 O                     8.24179   8.02303  -0.35408 
 H                     8.29857   7.11819  -0.70857 
 H                     7.62824   7.99379   0.3831 
 O                     7.31339   1.08407   4.72468 
 H                     6.6351    0.38972   4.69124 
 H                     6.83967   1.91945   4.763 
 O                     6.88626   8.72597  -2.71339 
 H                     7.41614   8.64956  -1.90257 
 H                     5.99567   8.43688  -2.46374 
 O                     9.94387   0.17957   5.15296 
 H                     9.03542   0.52085   5.11204 
 H                     9.89623  -0.69928   5.55607 
 C                    -1.8072    1.62571  -1.27797 
 O                    -2.43589   1.85999  -2.31027 
 C                    -1.80256   0.35311  -0.61445 
 C                    -0.98623   0.04812   0.41796 
 C                     0.05252   1.00946   0.92543 
 C                     0.30878   2.12811  -0.08848 
 C                    -1.00111   2.70316  -0.60521 
 C                    -1.16159  -1.22018   1.16246 
 C                     0.13615  -1.86076   1.64219 
 C                     1.01627  -0.82669   2.33615 
 C                     1.35409   0.28161   1.32635 
 C                     2.30607  -1.45009   2.84861 
 C                     3.25554  -0.42872   3.49341 
 C                     3.65124   0.58855   2.42798 
 C                     2.40023   1.26829   1.86482 
 C                     2.21181  -2.5532    3.90184 
 C                     3.6459   -2.63892   4.45265 
 C                     4.3873   -1.37476   3.94923 
 C                     2.66295   0.288     4.71291 
 O                     5.28381  -0.83857   4.89948 
 H                    -2.52821  -0.37276  -0.95688 
 H                    -0.37203   1.44703   1.83911 
 H                     0.88157   1.72949  -0.93047 
 H                     0.89504   2.92851   0.36463 
 H                    -1.6016    3.07278   0.23029 
 H                    -0.83916   3.53138  -1.29564 
 H                    -1.74682  -1.9323    0.57991 
 H                    -1.77052  -0.96498   2.04258 
 H                     0.67608  -2.29199   0.79319 
 H                    -0.10106  -2.67168   2.3287 
 H                     0.44936  -0.39795   3.16447 
 H                     1.77019  -0.19726   0.43095 
 H                     2.83728  -1.86752   1.98275 
 H                     4.1931    0.08195   1.62554 
 H                     4.31315   1.34857   2.84812 
 H                     1.94835   1.87665   2.64824 
 H                     2.71693   1.93563   1.06168 
 H                     1.88497  -3.50279   3.4844 
 H                     1.50191  -2.27073   4.67813 
 H                     4.14608  -3.53818   4.09722 
 H                     3.66118  -2.66558   5.54379 
 H                     5.01484  -1.62245   3.08846 
 H                     2.55976  -0.38578   5.56068 
 H                     3.30671   1.1206    4.99482 
 H                     1.67979   0.68851   4.49422 
 H                     4.76376  -0.53166   5.65221 
 
 Stoichiometry    C239H394N36O51S5(2-)
 Framework group  C1[X(C239H394N36O51S5)]
 Deg. of freedom  2169
 Full point group                 C1      NOp   1
 Largest Abelian subgroup         C1      NOp   1
 Largest concise Abelian subgroup C1      NOp   1
                         Standard orientation:                         
 ---------------------------------------------------------------------
 Center     Atomic      Atomic             Coordinates (Angstroms)
 Number     Number       Type             X           Y           Z
 ---------------------------------------------------------------------
      1          1           0       -3.299065    8.654925   -7.396478
      2          6           0       -3.193899    8.300364   -6.368537
      3          1           0       -3.258783    9.154961   -5.694157
      4          6           0       -4.313759    7.297598   -6.047249
      5          1           0       -5.268540    7.829501   -6.076907
      6          1           0       -4.344461    6.522866   -6.817464
      7          6           0       -4.137802    6.643844   -4.701863
      8          6           0       -4.552247    7.262482   -3.531291
      9          1           0       -4.974029    8.258046   -3.575638
     10          6           0       -4.441085    6.624684   -2.305145
     11          1           0       -4.763752    7.124025   -1.400688
     12          6           0       -3.896950    5.345926   -2.227342
     13          8           0       -3.792264    4.654312   -1.072708
     14          1           0       -4.327363    5.040234   -0.361626
     15          6           0       -3.433503    4.738450   -3.392964
     16          1           0       -2.999935    3.755487   -3.316921
     17          6           0       -3.558875    5.383105   -4.603751
     18          1           0       -3.208452    4.888612   -5.495173
     19          6           0       -1.802216    7.699938   -6.180200
     20          8           0       -1.012824    8.142849   -5.367139
     21          7           0       -1.497622    6.655410   -6.976430
     22          1           0       -2.142724    6.345303   -7.684471
     23          6           0       -0.194103    6.012587   -6.925175
     24          1           0        0.055769    5.857825   -5.873085
     25          6           0       -0.151023    4.694274   -7.698573
     26          1           0       -0.504931    4.893723   -8.719173
     27          6           0        1.297751    4.215948   -7.787285
     28          1           0        1.726806    4.109669   -6.795736
     29          1           0        1.345408    3.252588   -8.288428
     30          1           0        1.902969    4.925766   -8.347482
     31          6           0       -1.064684    3.609271   -7.109188
     32          1           0       -2.096229    3.964315   -7.143815
     33          1           0       -1.014840    2.734985   -7.761586
     34          6           0       -0.729955    3.178915   -5.686514
     35          1           0       -0.790732    4.015031   -4.996007
     36          1           0       -1.433878    2.419495   -5.355955
     37          1           0        0.265056    2.747146   -5.630539
     38          1           0        0.553364    6.700196   -7.343635
     39          1           0        1.371247    8.335606   -3.378518
     40          6           0        1.826509    7.652313   -2.659849
     41          1           0        1.571896    7.981137   -1.651675
     42          6           0        1.277378    6.235419   -2.894141
     43          1           0        1.531954    5.928546   -3.915662
     44          6           0        1.903101    5.236251   -1.924737
     45          1           0        1.626680    5.482646   -0.903261
     46          1           0        1.559143    4.228273   -2.145517
     47          1           0        2.987873    5.255305   -1.994839
     48          6           0       -0.242467    6.242183   -2.758944
     49          1           0       -0.685193    6.944393   -3.460625
     50          1           0       -0.650840    5.253265   -2.954733
     51          1           0       -0.534950    6.534054   -1.752883
     52          6           0        3.342869    7.691890   -2.799243
     53          8           0        4.102072    7.888886   -1.862476
     54          7           0        3.792186    7.453753   -4.044280
     55          1           0        3.129467    7.390980   -4.800197
     56          6           0        5.206901    7.387038   -4.391163
     57          1           0        5.694828    6.689611   -3.702718
     58          6           0        5.379667    6.929553   -5.832966
     59          1           0        4.946585    5.940882   -5.987736
     60          1           0        4.921068    7.649858   -6.511891
     61          6           0        6.899997    6.900801   -6.076356
     62          8           0        7.513722    5.844926   -5.847820
     63          8           0        7.408909    7.991492   -6.420058
     64          1           0        5.667002    8.372071   -4.265948
     65          1           0       -2.994185   12.254656   -0.934715
     66          6           0       -3.893896   11.660734   -0.790929
     67          1           0       -4.244992   11.331430   -1.766735
     68          6           0       -3.609191   10.453191    0.101091
     69          1           0       -3.230209   10.815868    1.064204
     70          6           0       -4.900737    9.678658    0.353232
     71          1           0       -5.318037    9.321537   -0.585694
     72          1           0       -4.721960    8.826852    1.003837
     73          1           0       -5.644118   10.315873    0.828678
     74          6           0       -2.529933    9.570435   -0.536402
     75          1           0       -2.932663    9.085967   -1.428002
     76          1           0       -1.704382   10.209610   -0.857509
     77          6           0       -1.979388    8.510864    0.410022
     78          1           0       -2.736978    7.780730    0.680659
     79          1           0       -1.156243    7.981832   -0.062501
     80          1           0       -1.609506    8.971081    1.324030
     81          1           0       -4.658112   12.295639   -0.346751
     82          1           0      -10.703112   10.637654   -1.355339
     83          6           0      -10.877855   10.603099   -0.282480
     84          1           0      -11.570771    9.790513   -0.075915
     85          6           0       -9.562163   10.378649    0.465920
     86          1           0       -8.886138   11.211766    0.257715
     87          1           0       -9.757354   10.358618    1.539838
     88          6           0       -8.918177    9.089071    0.041224
     89          6           0       -8.231175    9.015095   -1.163388
     90          1           0       -8.139488    9.898238   -1.779459
     91          6           0       -7.657841    7.832113   -1.587423
     92          1           0       -7.133691    7.783807   -2.531546
     93          6           0       -7.755621    6.691626   -0.799994
     94          8           0       -7.183274    5.511065   -1.163408
     95          1           0       -6.632013    5.637170   -1.949388
     96          6           0       -8.453790    6.749066    0.402025
     97          1           0       -8.557384    5.852096    0.994081
     98          6           0       -9.029510    7.937368    0.809250
     99          1           0       -9.572050    7.965956    1.743231
    100          1           0      -11.337797   11.539489    0.025751
    101          1           0      -11.206163    2.383794    4.267168
    102          6           0      -10.220068    2.116324    3.879904
    103          1           0      -10.305001    1.925658    2.810826
    104          6           0       -9.230990    3.250126    4.160781
    105          1           0       -9.126274    3.340746    5.247370
    106          6           0       -7.861696    2.923098    3.570782
    107          1           0       -7.933035    2.759914    2.497977
    108          1           0       -7.153826    3.729721    3.760601
    109          1           0       -7.468322    2.016538    4.021741
    110          6           0       -9.761169    4.568895    3.599927
    111          1           0      -10.713265    4.829256    4.057945
    112          1           0       -9.057565    5.379044    3.790437
    113          1           0       -9.915761    4.486160    2.524864
    114          6           0       -9.796403    0.825816    4.593564
    115          8           0       -9.414330    0.823459    5.754049
    116          7           0       -9.897506   -0.284374    3.845847
    117          1           0      -10.199297   -0.214593    2.879647
    118          6           0       -9.684744   -1.633514    4.350486
    119          1           0       -9.612560   -1.565113    5.440562
    120          6           0      -10.840681   -2.547475    3.922319
    121          1           0      -10.874952   -2.543134    2.829120
    122          1           0      -10.606719   -3.561635    4.256990
    123          6           0      -12.211048   -2.134673    4.446394
    124          1           0      -12.303978   -2.341383    5.513735
    125          1           0      -12.368619   -1.068372    4.268272
    126          6           0      -13.319561   -2.918799    3.662418
    127          8           0      -13.382419   -2.638499    2.438241
    128          8           0      -14.012673   -3.729669    4.273703
    129          6           0       -8.379149   -2.164227    3.754832
    130          8           0       -8.312634   -2.588054    2.607779
    131          7           0       -7.327118   -2.113697    4.580426
    132          1           0       -7.424043   -1.674583    5.484475
    133          6           0       -5.969581   -2.320647    4.118581
    134          1           0       -6.027106   -2.938080    3.222753
    135          6           0       -5.349846   -0.957861    3.777672
    136          1           0       -5.904071   -0.496312    2.955850
    137          1           0       -5.421302   -0.298832    4.645878
    138          6           0       -3.860230   -1.063479    3.377229
    139          8           0       -3.375459   -2.196553    3.240554
    140          8           0       -3.251432    0.017926    3.205756
    141          6           0       -5.132524   -2.980913    5.212515
    142          8           0       -4.773135   -2.351335    6.197702
    143          7           0       -4.806607   -4.269697    5.042643
    144          6           0       -4.050862   -4.967894    6.068715
    145          1           0       -4.411398   -4.668522    7.054862
    146          1           0       -2.992395   -4.698040    5.986286
    147          6           0       -4.273631   -6.442262    5.759433
    148          1           0       -5.202006   -6.778725    6.220632
    149          1           0       -3.449172   -7.067493    6.098636
    150          6           0       -4.428470   -6.438923    4.241526
    151          1           0       -4.940309   -7.324615    3.866302
    152          1           0       -3.452437   -6.360219    3.762301
    153          6           0       -5.243719   -5.161906    3.988854
    154          1           0       -5.039737   -4.753769    2.997250
    155          6           0       -6.737754   -5.504014    4.148730
    156          8           0       -7.264211   -5.592520    5.242379
    157          7           0       -7.345844   -5.779050    2.988551
    158          1           0       -6.859583   -5.604731    2.116410
    159          6           0       -8.695278   -6.287662    2.921816
    160          1           0       -9.193293   -6.025236    3.859269
    161          6           0       -9.482304   -5.739169    1.732137
    162          1           0       -9.584112   -4.659619    1.841333
    163          1           0       -8.938176   -5.955061    0.807631
    164          6           0      -10.825480   -6.414846    1.721815
    165          6           0      -11.919066   -5.834612    2.345085
    166          1           0      -11.838191   -4.851919    2.777292
    167          6           0      -13.129451   -6.500130    2.421182
    168          1           0      -13.951913   -6.018974    2.929388
    169          6           0      -13.262218   -7.758048    1.859980
    170          1           0      -14.207302   -8.282044    1.909723
    171          6           0      -12.176635   -8.347036    1.233075
    172          1           0      -12.274257   -9.327280    0.787717
    173          6           0      -10.964545   -7.684511    1.175431
    174          1           0      -10.117900   -8.151394    0.691249
    175          1           0       -8.663998   -7.385585    2.854119
    176          1           0       -3.330136    6.653360    9.014704
    177          6           0       -3.062452    5.683162    8.586662
    178          1           0       -2.736260    5.029386    9.396748
    179          6           0       -4.291454    5.072279    7.893509
    180          1           0       -5.120464    5.087241    8.605856
    181          1           0       -4.581170    5.679254    7.032582
    182          6           0       -4.056496    3.652088    7.449994
    183          6           0       -3.956542    2.641303    8.400333
    184          1           0       -4.035863    2.886493    9.451288
    185          6           0       -3.790682    1.322966    8.011510
    186          1           0       -3.732176    0.543329    8.756601
    187          6           0       -3.733660    0.997548    6.666006
    188          1           0       -3.652325   -0.037120    6.367839
    189          6           0       -3.821979    2.000035    5.713274
    190          1           0       -3.788341    1.744514    4.664533
    191          6           0       -3.970730    3.320732    6.105022
    192          1           0       -4.043114    4.097139    5.354822
    193          6           0       -1.893376    5.891598    7.643728
    194          8           0       -0.808203    5.342092    7.810304
    195          7           0       -2.102417    6.760302    6.649755
    196          1           0       -3.020546    7.153678    6.517328
    197          6           0       -1.098788    7.075996    5.648273
    198          1           0       -0.672212    6.135533    5.283488
    199          6           0       -1.707777    7.878273    4.505038
    200          1           0       -2.144592    8.799301    4.899630
    201          1           0       -0.897698    8.156133    3.826519
    202          6           0       -2.745897    7.110420    3.729981
    203          6           0       -4.058667    7.551138    3.656552
    204          1           0       -4.363735    8.435610    4.199560
    205          6           0       -4.990471    6.897257    2.865707
    206          1           0       -6.007447    7.262203    2.802932
    207          6           0       -4.606360    5.784683    2.131913
    208          8           0       -5.441715    5.157911    1.257751
    209          1           0       -6.344371    5.496175    1.322810
    210          6           0       -3.304835    5.299637    2.242784
    211          1           0       -3.036595    4.413488    1.691199
    212          6           0       -2.389178    5.959062    3.033224
    213          1           0       -1.382020    5.580460    3.105034
    214          1           0       -0.294550    7.649734    6.125061
    215          1           0        1.289173    6.369438    9.419498
    216          6           0        2.194662    5.833016    9.712540
    217          1           0        2.840099    6.501883   10.280714
    218          6           0        1.803886    4.611801   10.551836
    219          1           0        1.396097    3.836257    9.902485
    220          1           0        2.689948    4.208164   11.044644
    221          6           0        0.755078    4.986318   11.600760
    222          1           0        1.146370    5.758241   12.264705
    223          1           0       -0.135605    5.368765   11.098183
    224          6           0        0.361751    3.786789   12.451860
    225          8           0        0.639485    3.696375   13.631678
    226          7           0       -0.346099    2.853452   11.791643
    227          1           0       -0.579666    2.004102   12.278969
    228          1           0       -0.489246    2.880890   10.786458
    229          6           0        2.926522    5.404252    8.441640
    230          8           0        4.113090    5.627097    8.254049
    231          7           0        2.140524    4.789345    7.535174
    232          1           0        1.150102    4.728204    7.732889
    233          6           0        2.611753    3.945033    6.449276
    234          1           0        2.968841    2.986919    6.843606
    235          1           0        1.759655    3.750276    5.787254
    236          6           0        3.728699    4.518664    5.580920
    237          8           0        4.576283    3.800158    5.084739
    238          7           0        3.639414    5.840218    5.350241
    239          1           0        2.880591    6.347809    5.778634
    240          6           0        4.484033    6.571093    4.431277
    241          1           0        5.188804    5.851583    4.004903
    242          6           0        3.630035    7.221259    3.327336
    243          1           0        3.079012    8.053237    3.776414
    244          1           0        4.305778    7.644060    2.584038
    245          6           0        2.629847    6.280782    2.646800
    246          1           0        1.963898    5.862160    3.410769
    247          6           0        1.786058    7.080899    1.654452
    248          1           0        2.410648    7.445470    0.842077
    249          1           0        0.996060    6.460020    1.236424
    250          1           0        1.320857    7.936909    2.139596
    251          6           0        3.331586    5.131442    1.930379
    252          1           0        3.846177    4.487093    2.637133
    253          1           0        2.606975    4.527891    1.388294
    254          1           0        4.050851    5.518130    1.213022
    255          6           0        5.277805    7.697613    5.111361
    256          8           0        5.880248    8.521162    4.447334
    257          7           0        5.184467    7.748106    6.451174
    258          1           0        4.829630    6.953739    6.975676
    259          6           0        5.798838    8.813701    7.208034
    260          1           0        6.195886    9.538764    6.498873
    261          1           0        5.055332    9.290825    7.849011
    262          1           0        6.610401    8.432703    7.830530
    263          1           0        9.040328    4.708554    1.001461
    264          6           0        8.443823    4.017551    0.402963
    265          1           0        8.895019    3.026814    0.427201
    266          6           0        7.022085    3.943870    0.994255
    267          1           0        6.532735    4.911789    0.836426
    268          6           0        6.200232    2.858142    0.305720
    269          1           0        6.694174    1.893699    0.395460
    270          1           0        5.218826    2.783405    0.766485
    271          1           0        6.065819    3.073388   -0.751276
    272          6           0        7.111056    3.677821    2.495083
    273          1           0        7.663964    4.469094    2.996917
    274          1           0        6.119088    3.625459    2.936172
    275          1           0        7.616489    2.733937    2.682209
    276          6           0        8.415096    4.531682   -1.014245
    277          8           0        8.400553    5.745863   -1.256996
    278          7           0        8.431486    3.615052   -1.979750
    279          1           0        8.443089    2.631363   -1.715461
    280          6           0        8.210545    3.898922   -3.386456
    281          1           0        7.967963    4.957017   -3.495339
    282          6           0        9.420045    3.537509   -4.265145
    283          1           0        9.384061    2.472783   -4.506033
    284          1           0        9.314503    4.097109   -5.195060
    285          6           0       10.774235    3.818202   -3.611697
    286          1           0       10.883472    3.195739   -2.722556
    287          1           0       11.554756    3.528039   -4.319603
    288          6           0       10.987591    5.278023   -3.196175
    289          1           0       10.318503    5.546786   -2.384947
    290          1           0       12.015503    5.394988   -2.831720
    291          7           0       10.787024    6.190701   -4.296892
    292          1           0       11.344544    5.993586   -5.114412
    293          6           0        9.810130    7.106368   -4.456796
    294          7           0        8.944620    7.369077   -3.497693
    295          1           0        8.843847    6.800357   -2.658723
    296          1           0        8.243234    8.094268   -3.599518
    297          7           0        9.807957    7.836415   -5.571503
    298          1           0       10.457097    7.550288   -6.288549
    299          1           0        8.823655    8.058686   -5.970397
    300          6           0        7.014951    3.044005   -3.835169
    301          8           0        6.753847    1.990671   -3.259023
    302          7           0        6.333243    3.524243   -4.864990
    303          1           0        6.656512    4.404633   -5.296178
    304          6           0        5.166483    2.839313   -5.394035
    305          1           0        5.271949    1.769718   -5.207516
    306          6           0        3.877268    3.346495   -4.752630
    307          1           0        3.687178    4.383602   -5.018838
    308          1           0        3.041060    2.735307   -5.080643
    309          1           0        3.947353    3.282982   -3.670309
    310          1           0        5.139097    3.001135   -6.473739
    311          1           0       -6.262492   -1.594678   -9.848883
    312          6           0       -5.220821   -1.556800  -10.161215
    313          1           0       -5.154247   -1.919586  -11.183625
    314          6           0       -4.682352   -0.132690  -10.068416
    315          1           0       -3.637029   -0.110761  -10.383300
    316          1           0       -5.244136    0.517392  -10.742809
    317          6           0       -4.788695    0.421548   -8.656378
    318          1           0       -5.825801    0.409549   -8.315827
    319          1           0       -4.166292   -0.143810   -7.960160
    320         16           0       -4.229788    2.163326   -8.614511
    321          6           0       -4.854074    2.622833   -6.975051
    322          1           0       -4.303919    2.097720   -6.198906
    323          1           0       -4.708382    3.691818   -6.867466
    324          1           0       -5.917918    2.409457   -6.923316
    325          1           0       -4.645664   -2.224895   -9.522927
    326          1           0        0.012804   -2.551673   -8.140157
    327          6           0        0.967973   -2.028194   -8.221209
    328          1           0        1.299724   -2.088078   -9.263922
    329          6           0        0.767913   -0.557934   -7.830208
    330          1           0        1.713949   -0.013296   -7.795035
    331          1           0        0.148736   -0.089775   -8.600962
    332          6           0        0.061047   -0.480051   -6.508383
    333          6           0        0.745334   -0.242225   -5.325843
    334          1           0        1.809570   -0.048039   -5.350908
    335          6           0        0.071805   -0.260849   -4.116135
    336          1           0        0.605030   -0.081409   -3.193465
    337          6           0       -1.285091   -0.523589   -4.081016
    338          1           0       -1.807438   -0.565967   -3.141230
    339          6           0       -1.972977   -0.747599   -5.259716
    340          1           0       -3.030037   -0.962713   -5.227424
    341          6           0       -1.305271   -0.720926   -6.465767
    342          1           0       -1.835369   -0.905525   -7.389684
    343          6           0        1.956610   -2.828600   -7.403544
    344          8           0        1.796273   -3.989682   -7.091926
    345          7           0        3.101550   -2.167940   -7.139076
    346          1           0        3.192213   -1.179998   -7.333997
    347          6           0        4.109778   -2.662549   -6.242661
    348          1           0        3.706552   -3.514107   -5.688631
    349          6           0        5.355535   -3.062671   -7.061431
    350          1           0        5.007270   -3.713491   -7.866860
    351          1           0        5.750375   -2.145409   -7.507521
    352          6           0        6.457617   -3.753085   -6.254064
    353          1           0        6.514016   -3.327008   -5.251677
    354          1           0        6.233193   -4.817161   -6.156588
    355          6           0        7.832973   -3.564593   -6.888860
    356          1           0        8.078942   -2.495098   -6.916608
    357          1           0        8.595036   -4.069383   -6.291503
    358          7           0        7.889447   -4.126657   -8.226111
    359          1           0        7.009487   -4.130399   -8.718451
    360          6           0        8.992517   -3.973415   -9.004608
    361          7           0       10.110645   -3.590202   -8.515932
    362          1           0       10.658832   -3.223783   -7.003410
    363          1           0       10.862221   -3.552473   -9.194021
    364          7           0        8.789245   -4.260930  -10.344272
    365          1           0        7.990242   -4.824760  -10.585048
    366          1           0        9.613516   -4.453636  -10.890016
    367          6           0        4.485958   -1.477689   -5.354440
    368          8           0        4.524157   -0.352997   -5.823901
    369          7           0        4.750031   -1.766139   -4.078677
    370          1           0        4.754736   -2.728279   -3.773243
    371          6           0        5.443526   -0.846215   -3.212691
    372          1           0        5.587251    0.091447   -3.752781
    373          6           0        4.680652   -0.556069   -1.897659
    374          1           0        5.413684   -0.192370   -1.171127
    375          6           0        3.648545    0.539379   -2.131584
    376          1           0        2.961134    0.253345   -2.924026
    377          1           0        3.083448    0.722757   -1.221635
    378          1           0        4.151148    1.457895   -2.416919
    379          6           0        4.029853   -1.817106   -1.337335
    380          1           0        4.757732   -2.619760   -1.258102
    381          1           0        3.646246   -1.619864   -0.339773
    382          1           0        3.203901   -2.141566   -1.966930
    383          6           0        6.805296   -1.455692   -2.886300
    384          8           0        6.981912   -2.676829   -2.928671
    385          7           0        7.741708   -0.574058   -2.563104
    386          1           0        7.514983    0.419906   -2.612709
    387          6           0        9.073409   -0.937663   -2.130269
    388          1           0        9.049110   -1.995160   -1.851870
    389          6           0       10.103360   -0.770044   -3.259489
    390          1           0        9.782743    0.021867   -3.938825
    391          1           0       11.072988   -0.493059   -2.845187
    392          6           0       10.207057   -2.088864   -4.021994
    393          1           0       10.919127   -2.762178   -3.545771
    394          1           0        9.232975   -2.587406   -3.999935
    395          6           0       10.516559   -1.979081   -5.497302
    396          8           0       10.453868   -0.965892   -6.148082
    397          8           0       10.788623   -3.175043   -5.998826
    398          6           0        9.398520   -0.146561   -0.859685
    399          8           0        9.135585    1.043125   -0.748094
    400          7           0        9.924083   -0.891172    0.116013
    401          1           0       10.295860   -1.820060   -0.077193
    402          6           0       10.153932   -0.405650    1.462876
    403          1           0       10.675696    0.562588    1.401216
    404          6           0        8.834031   -0.163147    2.207382
    405          1           0        9.044461    0.340272    3.149572
    406          1           0        8.236585    0.522102    1.602904
    407          6           0        8.010977   -1.417931    2.479682
    408          1           0        8.631339   -2.304243    2.599299
    409          1           0        7.415052   -1.277711    3.379887
    410         16           0        6.815203   -1.760966    1.133390
    411          6           0        7.522317   -3.256650    0.395417
    412          1           0        7.219006   -4.128235    0.969827
    413          1           0        7.136414   -3.321016   -0.615462
    414          1           0        8.601975   -3.172521    0.373342
    415          6           0       11.114660   -1.383332    2.150099
    416          8           0       11.684159   -2.261684    1.523222
    417          7           0       11.337859   -1.135552    3.445543
    418          1           0       10.760913   -0.492547    3.995030
    419          6           0       12.290285   -1.909533    4.206709
    420          1           0       12.927045   -2.433610    3.485300
    421          6           0       13.135546   -0.967881    5.087532
    422          1           0       12.441963   -0.416298    5.729039
    423          6           0       14.105496   -1.758112    5.961993
    424          1           0       14.771677   -2.362138    5.347689
    425          1           0       14.712742   -1.075096    6.551349
    426          1           0       13.570608   -2.412389    6.645828
    427          6           0       13.893642    0.023938    4.209695
    428          1           0       13.202262    0.598909    3.600519
    429          1           0       14.463012    0.713448    4.828035
    430          1           0       14.582642   -0.500122    3.549730
    431          6           0       11.555203   -2.917294    5.095772
    432          8           0       10.587736   -2.604887    5.763990
    433          7           0       12.099472   -4.148640    5.108429
    434          1           0       12.862071   -4.355186    4.483749
    435          6           0       11.594760   -5.222625    5.932140
    436          1           0       10.749625   -4.801280    6.482035
    437          6           0       11.125785   -6.437862    5.117066
    438          1           0       10.930035   -6.088209    4.103234
    439          1           0       11.903920   -7.203002    5.082176
    440          6           0        9.860930   -7.017886    5.656884
    441          6           0        9.673282   -8.232925    6.245097
    442          1           0       10.389707   -9.006540    6.450364
    443          7           0        8.353909   -8.398276    6.576957
    444          1           0        7.955956   -9.219429    6.998487
    445          6           0        7.658420   -7.286385    6.195439
    446          6           0        6.303794   -6.991737    6.288680
    447          1           0        5.608291   -7.697009    6.720606
    448          6           0        5.882863   -5.769315    5.811388
    449          1           0        4.835651   -5.510798    5.861097
    450          6           0        6.786775   -4.850844    5.268743
    451          1           0        6.421570   -3.893772    4.929146
    452          6           0        8.129014   -5.138121    5.170530
    453          1           0        8.817417   -4.412996    4.766007
    454          6           0        8.579751   -6.379750    5.622363
    455          1           0       12.364789   -5.518533    6.653825
    456          1           0       12.317370   -4.773784    0.516096
    457          6           0       11.674264   -5.571711    0.140063
    458          1           0       12.277906   -6.316938   -0.382198
    459          6           0       10.922762   -6.214631    1.293566
    460          1           0       10.216074   -6.968700    0.952625
    461          1           0       11.617455   -6.667138    2.004179
    462         16           0        9.955182   -4.917841    2.167916
    463          1           0        8.935807   -5.703474    2.517371
    464          6           0       10.688558   -4.924468   -0.836487
    465          8           0       10.651359   -3.726736   -1.046210
    466          7           0        9.867198   -5.791964   -1.454013
    467          1           0        9.843433   -6.767113   -1.190230
    468          6           0        8.771205   -5.385790   -2.303972
    469          1           0        8.670509   -4.300950   -2.232677
    470          6           0        9.031387   -5.787148   -3.759479
    471          1           0        9.162277   -6.865112   -3.831787
    472          1           0        8.185588   -5.494529   -4.374229
    473          1           0        9.926062   -5.294875   -4.132783
    474          6           0        7.490203   -6.078600   -1.823003
    475          8           0        7.540306   -7.116580   -1.182706
    476          7           0        6.367614   -5.473932   -2.229243
    477          1           0        6.453624   -4.534188   -2.599393
    478          6           0        5.044457   -5.944664   -1.852177
    479          1           0        5.016469   -7.023010   -2.022603
    480          6           0        4.751831   -5.643171   -0.379346
    481          1           0        5.413111   -6.257822    0.234125
    482          1           0        4.992754   -4.596177   -0.186724
    483          6           0        3.299223   -5.885993    0.032800
    484          1           0        2.650341   -5.281554   -0.607734
    485          6           0        2.904446   -7.351586   -0.116427
    486          1           0        3.597889   -7.990231    0.425419
    487          1           0        1.908896   -7.504199    0.291208
    488          1           0        2.895587   -7.654077   -1.160642
    489          6           0        3.102475   -5.429398    1.476733
    490          1           0        3.383666   -4.385038    1.587254
    491          1           0        2.062834   -5.541062    1.773482
    492          1           0        3.716050   -6.023417    2.151373
    493          1           0        4.311839   -5.459137   -2.498458
    494          1           0        0.027296   -5.422995   -4.636133
    495          6           0       -0.869500   -5.101367   -4.104145
    496          1           0       -1.290783   -5.936627   -3.545286
    497          6           0       -0.514889   -3.936323   -3.168493
    498          1           0       -0.214891   -3.090152   -3.796667
    499          6           0       -1.728588   -3.529601   -2.338276
    500          1           0       -2.126662   -4.389335   -1.803879
    501          1           0       -1.445623   -2.773213   -1.610290
    502          1           0       -2.515186   -3.120534   -2.967527
    503          6           0        0.654415   -4.311313   -2.262635
    504          1           0        1.519964   -4.595848   -2.858635
    505          1           0        0.926683   -3.467263   -1.632168
    506          1           0        0.386005   -5.144419   -1.617579
    507          6           0       -1.856797   -4.596620   -5.143053
    508          8           0       -1.547172   -3.821799   -6.030318
    509          7           0       -3.123296   -5.054130   -5.008763
    510          1           0       -3.373706   -5.668136   -4.242807
    511          6           0       -4.186097   -4.598518   -5.884858
    512          1           0       -3.705570   -3.950660   -6.626090
    513          6           0       -4.885614   -5.781874   -6.583541
    514          1           0       -5.277477   -6.437927   -5.799406
    515          6           0       -6.052717   -5.269754   -7.425116
    516          1           0       -5.700769   -4.567109   -8.179511
    517          1           0       -6.549662   -6.094017   -7.929224
    518          1           0       -6.787575   -4.770927   -6.797706
    519          6           0       -3.875752   -6.565506   -7.426712
    520          1           0       -3.640247   -5.994892   -8.328267
    521          1           0       -2.952412   -6.672416   -6.854936
    522          6           0       -4.375485   -7.952916   -7.810887
    523          1           0       -5.268049   -7.895877   -8.429614
    524          1           0       -3.609721   -8.486530   -8.369763
    525          1           0       -4.612648   -8.528175   -6.918929
    526          6           0       -5.203521   -3.827188   -5.048876
[...]
 27\C,0,3.7959105284,3.1283835008,-4.9799367984\H,0,3.6103592426,4.1592
 879554,-5.2721656132\H,0,2.9474563338,2.5165093174,-5.2734032012\H,0,3
 .887265996,3.0952622447,-3.897845852\H,0,5.0193215614,2.7210292003,-6.
 7151691989\H,0,-6.4914538902,-1.8543719492,-9.727989644\C,0,-5.4560000
 282,-1.8359999895,-10.0620000135\H,0,-5.4135787396,-2.2286401357,-11.0
 746207808\C,0,-4.9022266246,-0.4153243685,-10.0211602289\H,0,-3.863325
 9222,-0.4130048187,-10.3573326156\H,0,-5.4713216332,0.2207715536,-10.7
 027223231\C,0,-4.9747029692,0.180266343,-8.6238926858\H,0,-6.004775849
 4,0.18852553,-8.2625193501\H,0,-4.343757291,-0.3711310173,-7.924176346
 \S,0,-4.3985025593,1.9167929308,-8.6435432019\C,0,-4.9850939663,2.4294
 580357,-7.0059238829\H,0,-4.4243780104,1.9213114368,-6.2260526292\H,0,
 -4.8270834542,3.4995640457,-6.9322097763\H,0,-6.0496579616,2.228412059
 8,-6.926835294\H,0,-4.8744376617,-2.4912715639,-9.4162663102\H,0,-0.19
 22763698,-2.8252615057,-8.1178168056\C,0,0.7660000034,-2.3140000048,-8
 .2329999998\H,0,1.0760061994,-2.4071406998,-9.2799562441\C,0,0.5878995
 24,-0.8311758874,-7.8807469903\H,0,1.5395975489,-0.2953367941,-7.88020
 67294\H,0,-0.0422551072,-0.3791044965,-8.6522078868\C,0,-0.0913104438,
 -0.7082430656,-6.5478895038\C,0,0.6189901989,-0.4434921175,-5.38660187
 77\H,0,1.6843021301,-0.2608659385,-5.4384899289\C,0,-0.0300781534,-0.4
 205766775,-4.1636682567\H,0,0.5233853303,-0.220119514,-3.257388878\C,0
 ,-1.3884262285,-0.6684800961,-4.0939130333\H,0,-1.8920365813,-0.678584
 3901,-3.1430632545\C,0,-2.1021161554,-0.9192747006,-5.2516918009\H,0,-
 3.1603068479,-1.1226843217,-5.1921190457\C,0,-1.4587190447,-0.93398111
 19,-6.471086591\H,0,-2.0091302822,-1.139662811,-7.3785258227\C,0,1.763
 3068691,-3.1005490633,-7.4124225735\O,0,1.5982563714,-4.2505283336,-7.
 0642397652\N,0,2.9196023032,-2.4441694644,-7.1900496442\H,0,3.01570701
 59,-1.4631962144,-7.4152145545\C,0,3.9409999802,-2.922999984,-6.299999
 9798\H,0,3.5409723139,-3.754186508,-5.7136565016\C,0,5.1660739218,-3.3
 590259761,-7.1315466543\H,0,4.7954065685,-4.029147397,-7.9107210867\H,
 0,5.5605262415,-2.4589831984,-7.6117491659\C,0,6.2776365122,-4.0370757
 722,-6.3267031341\H,0,6.3583548331,-3.5829902068,-5.3383742992\H,0,6.0
 451071185,-5.0955929573,-6.1940546346\C,0,7.6416038153,-3.8807868466,-
 6.9939871062\H,0,7.897133774,-2.8150685177,-7.0575366837\H,0,8.4107518
 525,-4.3758928551,-6.3976072519\N,0,7.6656619647,-4.4815495398,-8.3152
 93345\H,0,6.7759271756,-4.4905344572,-8.7896705385\C,0,8.7541675015,-4
 .3618695552,-9.1197406289\N,0,9.8855502893,-3.9761004646,-8.6647429457
 \H,0,10.4676848434,-3.5719691562,-7.1746784763\H,0,10.6235814631,-3.96
 54465821,-9.3584941935\N,0,8.5211107104,-4.6856555154,-10.4462132104\H
 ,0,7.7120672582,-5.2480650079,-10.6546082479\H,0,9.3323008427,-4.90226
 49204,-11.0024905617\C,0,4.3463354033,-1.7169913303,-5.4540775567\O,0,
 4.3857390114,-0.606683187,-5.9565190073\N,0,4.6334020909,-1.9713521835
 ,-4.1760307609\H,0,4.6351216945,-2.924326116,-3.8430692354\C,0,5.35300
 00126,-1.0339999773,-3.3510000033\H,0,5.4946938233,-0.113728251,-3.920
 7264034\C,0,4.6196797011,-0.6985315526,-2.0299499478\H,0,5.3706885103,
 -0.3215485465,-1.3289989967\C,0,3.5935307137,0.4001198047,-2.274808392
 2\H,0,2.8875385204,0.0984138084,-3.044784017\H,0,3.0487280379,0.615242
 8731,-1.359450822\H,0,4.0989834231,1.3049425966,-2.5965404265\C,0,3.96
 83689753,-1.9363246041,-1.4205430095\H,0,4.6900260325,-2.7436853289,-1
 .3326763303\H,0,3.6069144582,-1.7066620341,-0.4216457581\H,0,3.1267986
 202,-2.2703648835,-2.023897687\C,0,6.7152280981,-1.6475809825,-3.03435
 45703\O,0,6.8793148708,-2.871152434,-3.0449266439\N,0,7.6663394216,-0.
 7665359004,-2.7555176675\H,0,7.4481325094,0.2278341352,-2.8292992609\C
 ,0,9.0029999341,-1.1310001034,-2.3390000356\H,0,8.9742679923,-2.179769
 4933,-2.029722372\C,0,10.0114480567,-1.0062789564,-3.4929106762\H,0,9.
 6847114968,-0.2309972589,-4.188322355\H,0,10.9918521711,-0.7273232361,
 -3.1062097447\C,0,10.0871372048,-2.3474247561,-4.2188945596\H,0,10.802
 2498127,-3.0139491517,-3.737706059\H,0,9.1089968875,-2.8352629121,-4.1
 630111533\C,0,10.3677647472,-2.2831709171,-5.7026385445\O,0,10.3015742
 151,-1.2884995202,-6.3810519474\O,0,10.6182273,-3.4957239714,-6.174711
 4538\C,0,9.361264018,-0.3070735706,-1.0985508368\O,0,9.1119818002,0.88
 79207371,-1.0161709627\N,0,9.8993410904,-1.0286394352,-0.1124139213\H,
 0,10.2582721127,-1.9663986598,-0.2860680598\C,0,10.161000519,-0.507000
 2479,1.2150000428\H,0,10.6906073364,0.4537489644,1.114985597\C,0,8.858
 7981581,-0.2299034637,1.978363151\H,0,9.0930281256,0.2982040152,2.9012
 232883\H,0,8.2557999905,0.4437107593,1.3663668856\C,0,8.0295091113,-1.
 4679751617,2.3031790287\H,0,8.643695385,-2.3567100979,2.4359668128\H,0
 ,7.4532774497,-1.2959587816,3.2106617983\S,0,6.8035349419,-1.837420784
 3,0.9914822941\C,0,7.4813010356,-3.3607395556,0.2830918678\H,0,7.18138
 55695,-4.2123672382,0.8883900167\H,0,7.0744339754,-3.4501967322,-0.717
 6061165\H,0,8.561043879,-3.288189838,0.237065502\C,0,11.1260788196,-1.
 4742060578,1.9108963476\O,0,11.6743905128,-2.3758994364,1.2984350293\N
 ,0,11.3777848661,-1.1916074804,3.1939278845\H,0,10.8182213819,-0.52729
 80178,3.7359973376\C,0,12.3379999627,-1.95299998,3.9579999942\H,0,12.9
 550168401,-2.5039758997,3.2394832541\C,0,13.2098334797,-0.9950372,4.79
 42028587\H,0,12.5346521774,-0.4182871078,5.4332047979\C,0,14.189703801
 4,-1.7695964326,5.6716199249\H,0,14.8375409602,-2.3977066975,5.0618667
 802\H,0,14.8152236027,-1.0761122192,6.2287585613\H,0,13.6625511002,-2.
 398536345,6.3846128055\C,0,13.9594280295,-0.036535128,3.8731200232\H,0
 ,13.2613741429,0.5276658235,3.2614902527\H,0,14.5477294024,0.664654581
 8,4.4597923082\H,0,14.6299162968,-0.5862576694,3.2149671644\C,0,11.611
 4885115,-2.9273463855,4.8903036142\O,0,10.6607549735,-2.5861287643,5.5
 6837573\N,0,12.1441511873,-4.1632570188,4.9276888445\H,0,12.8919566558
 ,-4.3953428113,4.2941535904\C,0,11.6459999974,-5.2079999969,5.79200000
 58\H,0,10.8162117099,-4.7625269291,6.3462335492\C,0,11.1490830253,-6.4
 413346952,5.0219075265\H,0,10.9362034742,-6.1189697678,4.0024993329\H,
 0,11.9190309017,-7.2149820916,4.9936352195\C,0,9.8899400499,-6.9928168
 446,5.6033855384\C,0,9.7026660712,-8.1885119508,6.2300973819\H,0,10.41
 56973211,-8.9631125469,6.4433102533\N,0,8.3887607261,-8.3309315519,6.5
 928476649\H,0,7.9916150739,-9.1355837286,7.0457888176\C,0,7.696317494,
 -7.2234826251,6.1932977747\C,0,6.3467217128,-6.9126102387,6.3049828339
 \H,0,5.6534131091,-7.5981307483,6.7708994861\C,0,5.9278817909,-5.70020
 37566,5.8010473021\H,0,4.8843986972,-5.4298013579,5.8641399088\C,0,6.8
 29338027,-4.8068665246,5.2141608315\H,0,6.4664690849,-3.8562974836,4.8
 54394712\C,0,8.1665193742,-5.1103891781,5.0975412554\H,0,8.8534732614,
 -4.4041659313,4.6585790731\C,0,8.61445903,-6.3430248673,5.5759939836\H
 ,0,12.4276163758,-5.4908314544,6.5064347265\H,0,12.2631497512,-4.92214
 43617,0.3519114476\C,0,11.604999949,-5.7240000022,0.0119999498\H,0,12.
 1908305428,-6.4899716548,-0.5004384448\C,0,10.8708956495,-6.3259166864
 ,1.198363194\H,0,10.1503067975,-7.0822853691,0.8935228186\H,0,11.57548
 05148,-6.7648324604,1.9077618156\S,0,9.9335923799,-4.994854054,2.05398
 97157\H,0,8.9140601482,-5.7597940259,2.4462690594\C,0,10.6059505313,-5
 .0951334939,-0.962996053\O,0,10.5759239534,-3.9036005514,-1.2064664085
 \N,0,9.764043294,-5.9716580182,-1.5386848444\H,0,9.7363342021,-6.93854
 25746,-1.2464043689\C,0,8.6550001281,-5.5789999034,-2.3779999402\H,0,8
 .5661016961,-4.4915990694,-2.3360968095\C,0,8.8818529449,-6.0245834977
 ,-3.8261977044\H,0,9.0009825962,-7.1054462017,-3.8699142319\H,0,8.0266
 166946,-5.7412039916,-4.432156659\H,0,9.7734412115,-5.5522930051,-4.23
 13437243\C,0,7.3774495229,-6.2447418384,-1.8517529179\O,0,7.4306074699
 ,-7.2643668078,-1.1828481885\N,0,6.2526820659,-5.6406762269,-2.2528297
 308\H,0,6.3401315989,-4.7128619152,-2.6516294942\C,0,4.932999946,-6.08
 69999881,-1.8359999986\H,0,4.8913026809,-7.1694556314,-1.9745940235\C,
 0,4.6731097122,-5.7404104396,-0.3669553088\H,0,5.3407810739,-6.3438456
 664,0.2507141068\H,0,4.9278389392,-4.6908052997,-0.2095203462\C,0,3.22
 68891504,-5.9566147614,0.080927062\H,0,2.5709692592,-5.3642882992,-0.5
 637405328\C,0,2.8152365814,-7.4218245713,-0.0179731595\H,0,3.513384857
 4,-8.0516242345,0.5281683532\H,0,1.8267270484,-7.5526081473,0.41367848
 32\H,0,2.7823770997,-7.754062233,-1.0526232429\C,0,3.0637465878,-5.456
 7923735,1.5146958491\H,0,3.3570472248,-4.412583713,1.5893540165\H,0,2.
 0293046318,-5.5493841173,1.8352247287\H,0,3.6851574871,-6.0373674562,2
 .193851351\H,0,4.1921157171,-5.612849859,-2.4813039433\H,0,-0.13425198
 68,-5.5948102533,-4.5332503318\C,0,-1.0169999999,-5.2490000023,-3.9930
 000027\H,0,-1.4348275816,-6.0635749511,-3.4019407732\C,0,-0.6324578044
 ,-4.061218529,-3.0986726866\H,0,-0.3371829517,-3.2365024683,-3.7569008
 073\C,0,-1.8251863602,-3.6185911789,-2.2565161473\H,0,-2.2205388822,-4
 .4585655539,-1.6896596073\H,0,-1.5203637605,-2.8445143637,-1.556486523
 6\H,0,-2.6204209834,-3.219832094,-2.881515032\C,0,0.5513068296,-4.4218
 421277,-2.2058561983\H,0,1.4018740403,-4.7320979626,-2.810528287\H,0,0
 .8442969408,-3.5628345,-1.60560484\H,0,0.2880780354,-5.2333336187,-1.5
 317645454\C,0,-2.0202590344,-4.7643378104,-5.0261655024\O,0,-1.7212794
 85,-4.0184739904,-5.9414541396\N,0,-3.2880819444,-5.2049875224,-4.8534
 737289\H,0,-3.5287821453,-5.7941909829,-4.0652491121\C,0,-4.364000001,
 -4.7640000019,-5.7209999988\H,0,-3.8924162333,-4.142574455,-6.49008429
 78\C,0,-5.0887427774,-5.9597986983,-6.3710966918\H,0,-5.4708946071,-6.
 5890796638,-5.5606670893\C,0,-6.2677007804,-5.4602855326,-7.2036772244
 \H,0,-5.9244094907,-4.7831773482,-7.9849354437\H,0,-6.782567551,-6.293
 6178497,-7.6737380206\H,0,-6.9849335915,-4.9362552229,-6.576415381\C,0
 ,-4.1036513981,-6.7774735237,-7.2112390129\H,0,-3.8810079291,-6.235383
 7344,-8.1334277548\H,0,-3.1699946458,-6.8772481105,-6.6551412611\C,0,-
 4.6242424192,-8.1702214062,-7.5451084627\H,0,-5.5285555987,-8.12195468
 46,-8.1473000176\H,0,-3.8750564252,-8.7273675599,-8.1034892021\H,0,-4.
 8487817747,-8.7172129596,-6.6323423459\C,0,-5.3569139397,-3.9587515076
 ,-4.8875357908\O,0,-5.9488527471,-4.459692657,-3.9470738112\N,0,-5.537
 1531229,-2.688212174,-5.2729254969\H,0,-5.0310898599,-2.3357392648,-6.
 070746609\C,0,-6.5360000046,-1.8369999976,-4.6700000051\H,0,-6.7755775
 146,-2.241448302,-3.6829706917\C,0,-6.1013285674,-0.3889931361,-4.5402
 450068\H,0,-5.8467158973,0.0425302043,-5.5109117065\H,0,-6.9410736795,
 0.1770595667,-4.1315469463\C,0,-4.9269014036,-0.1653560001,-3.59852714
 48\O,0,-4.4760034313,-0.9850592136,-2.8443493025\O,0,-4.4769265633,1.0
 711343142,-3.7277631624\H,0,-3.6876524018,1.2682331944,-3.1315508053\H
 ,0,-7.4523972536,-1.8746792936,-5.2752713571\H,0,-11.5270190801,0.6889
 365251,-4.9808406104\C,0,-11.821000002,1.712,-5.2050000003\H,0,-12.173
 8301522,2.1760660376,-4.2863834636\C,0,-10.6477133422,2.4943324545,-5.
 7857057411\H,0,-10.319969935,2.0312184395,-6.7189041373\H,0,-10.962985
 7537,3.5142131852,-6.0171859495\C,0,-9.4714854283,2.5530230373,-4.8229
 61862\H,0,-9.759875948,3.0253206165,-3.8823181262\H,0,-9.0763177622,1.
 5554967897,-4.6231576878\S,0,-8.1260537333,3.5617498615,-5.54799294\C,
 0,-6.9686576554,3.5838002009,-4.1496762538\H,0,-6.4861044203,2.6177437
 126,-4.0372050466\H,0,-6.2155402215,4.3321110909,-4.3760547884\H,0,-7.
 5146622375,3.8486630285,-3.2495732488\H,0,-12.643619173,1.6851360475,-
 5.9146890597\H,0,-11.6075422,2.1336785786,-0.5354806455\C,0,-10.640999
 9966,1.7030000008,-0.8040000002\H,0,-10.6334219842,1.4920795385,-1.875
 2281733\C,0,-9.5370783213,2.7039633105,-0.4484365429\H,0,-9.737069377,
 3.6521441611,-0.9588802631\H,0,-9.5709365802,2.88668876,0.6271872724\C
 ,0,-8.1339447384,2.2389496755,-0.8248382205\H,0,-8.1354851356,1.727943
 9923,-1.7896790277\H,0,-7.4633190846,3.0962272824,-0.8698209043\S,0,-7
 .3995384939,1.0971661944,0.4139381684\C,0,-5.6713789934,1.6617882812,0
 .3308308684\H,0,-5.6217873472,2.7243180392,0.5506831748\H,0,-5.1193565
 56,1.1076111643,1.0840838626\H,0,-5.2608863306,1.4564980219,-0.6538219
 515\C,0,-10.4590159964,0.4214839087,0.0034576424\O,0,-10.5596481316,0.
 4263293633,1.2156648476\N,0,-10.2116209513,-0.6724313298,-0.7296218991
 \H,0,-10.0211803109,-0.5893117233,-1.7193350841\C,0,-9.7939999955,-1.9
 510000005,-0.1890000042\H,0,-9.7174614305,-1.8560921525,0.8962694589\C
 ,0,-10.768482485,-3.0628783699,-0.5811423891\H,0,-10.7662964059,-3.162
 5744989,-1.6694893025\H,0,-10.4103920174,-3.9999500198,-0.1530742017\C
 ,0,-12.1853566432,-2.7906081224,-0.0886499773\H,0,-12.1870320308,-2.45
 45894338,0.947990166\H,0,-12.6498052043,-2.0050908796,-0.689960924\C,0
 ,-13.0500426809,-4.0367469648,-0.1871793153\O,0,-12.9268394657,-4.8479
 66657,-1.1099315583\N,0,-13.9574545454,-4.1297704608,0.7736449118\H,0,
 -14.5217248798,-4.9634111635,0.825656118\H,0,-13.8749775453,-3.5014029
 737,1.6215440088\C,0,-8.4340805191,-2.2565418074,-0.8180659861\O,0,-8.
 237309241,-2.0082019324,-2.002047583\N,0,-7.5423686031,-2.8240952148,-
 0.0053184047\H,0,-7.724365448,-2.8611023376,0.9947707137\C,0,-6.208,-3
 .1490000013,-0.4629999955\H,0,-6.1868914852,-2.9573061382,-1.539789545
 8\C,0,-5.1487142541,-2.2908064621,0.2256447205\H,0,-5.0181810559,-2.58
 88025263,1.262572724\H,0,-4.2014577267,-2.3916824333,-0.2973839084\H,0
 ,-5.4508975788,-1.2485580444,0.193687282\C,0,-5.9443112371,-4.63136874
 18,-0.1941676454\O,0,-5.8181926929,-5.0899455229,0.9371295417\N,0,-5.8
 669945728,-5.398282871,-1.282426568\H,0,-5.9282719313,-4.9946492801,-2
 .2125140046\C,0,-5.7540000042,-6.838,-1.2069999994\H,0,-6.1702849103,-
 7.154400104,-0.2435912306\C,0,-6.5348512761,-7.4815686506,-2.367569328
 6\H,0,-6.2775192113,-6.9356286075,-3.2771136018\H,0,-6.1971218738,-8.5
 144025361,-2.4795063134\C,0,-8.0219451578,-7.4530224632,-2.1444199061\
 C,0,-8.7512102172,-6.2781316838,-2.2944032194\H,0,-8.2510534446,-5.371
 1725318,-2.5998177172\C,0,-10.1135750697,-6.2579233256,-2.0707945247\H
 ,0,-10.6804475476,-5.3481100759,-2.1864038371\C,0,-10.7944853123,-7.41
 34798801,-1.6933454219\O,0,-12.1200239862,-7.4289007382,-1.4685823597\
 H,0,-12.4650666779,-6.5083218275,-1.3974482345\C,0,-10.0697532084,-8.5
 994737818,-1.5687173329\H,0,-10.5933045432,-9.5025365202,-1.2933532099
 \C,0,-8.7050646979,-8.6076797527,-1.7816359643\H,0,-8.1585865232,-9.53
 52514435,-1.667007938\C,0,-4.2812053404,-7.2645430425,-1.2927531636\O,
 0,-3.6446767794,-7.2187469193,-2.3320349286\N,0,-3.7970476425,-7.75134
 78107,-0.1351399401\H,0,-4.2882030135,-7.518793589,0.714330333\C,0,-2.
 4469999983,-8.2620000004,-0.000000002\H,0,-2.2562127156,-8.913223044,-
 0.8578677948\C,0,-1.4003207605,-7.1373226462,0.0137501149\H,0,-0.40978
 24814,-7.5956575742,0.0368189698\H,0,-1.5026619962,-6.5916667988,-0.92
 56804476\C,0,-1.5430272927,-6.1910738437,1.162293522\C,0,-2.3478119644
 ,-5.0823591467,1.2294653845\H,0,-3.0563936029,-4.7222672609,0.50860995
 06\N,0,-2.1651318573,-4.4228167265,2.4032016603\H,0,-2.6285212284,-3.5
 605469366,2.6965562662\C,0,-1.2323203837,-5.087869503,3.1316962297\C,0
 ,-0.6921831008,-4.7920881453,4.3782588099\H,0,-1.0061949777,-3.9061477
 893,4.908505866\C,0,0.2476056462,-5.6570369186,4.8926284182\H,0,0.6892
 195352,-5.4574581811,5.8585724951\C,0,0.6451998184,-6.7978466069,4.186
 6609567\H,0,1.3802158496,-7.456636904,4.6283125924\C,0,0.1260594197,-7
 .0922465528,2.9461140401\H,0,0.4431641002,-7.9801443989,2.4159353429\C
 ,0,-0.8191246593,-6.2281339158,2.3906071123\H,0,-2.3985370316,-8.84644
 45163,0.9203396245\H,0,4.9491517897,-10.1752243327,-0.1629643903\C,0,5
 .9350000009,-9.9980000212,0.2620000105\H,0,6.3234845563,-9.0713855167,
 -0.1506841862\C,0,5.8511688332,-9.939272624,1.7825780384\H,0,5.1563876
 059,-9.1534027581,2.0864355213\H,0,5.4512301532,-10.8890627392,2.14886
 71954\C,0,7.2095181041,-9.6842015146,2.4444765692\H,0,7.9579283722,-10
 .3111893404,1.9450324553\C,0,7.6278332217,-8.2219202881,2.3066918561\H
 ,0,6.9223624315,-7.5792624311,2.8312529909\H,0,8.6123077867,-8.0744747
 125,2.750208787\H,0,7.6574894961,-7.9276252692,1.2600529214\C,0,7.1678
 15407,-10.0686206783,3.9219162417\H,0,6.8900270369,-11.1141430683,4.04
 30978526\H,0,8.1428238375,-9.9137918371,4.379199421\H,0,6.4398636446,-
 9.4527146385,4.4459909664\H,0,6.5893896788,-10.8105517348,-0.048919591
 5\O,0,-0.9904708937,1.1723755056,4.2242665743\H,0,-1.1329655754,0.9397
 078757,5.1436577435\H,0,-1.7814178319,0.7914469963,3.75957897\O,0,0.21
 39994942,3.6634621689,4.0959216429\H,0,0.6150725105,3.6057628571,3.225
 3696519\H,0,-0.2941144451,2.8331211718,4.1956770883\O,0,-0.566569026,3
 .0696006752,8.8353960814\H,0,-0.5888434065,3.9364853433,8.3897748217\H
 ,0,-1.3074331205,2.5676445078,8.4834333126\O,0,8.241794919,8.023026090
 7,-0.3540787281\H,0,8.2985728136,7.1181873063,-0.7085721506\H,0,7.6282
 436517,7.9937940993,0.3831021719\O,0,7.3133906382,1.0840720802,4.72467
 9422\H,0,6.63509941,0.3897229279,4.6912411811\H,0,6.8396651009,1.91944
 72282,4.763002689\O,0,6.8862643753,8.7259743817,-2.71338943\H,0,7.4161
 399151,8.6495638685,-1.9025656984\H,0,5.9956736468,8.4368844011,-2.463
 7448579\O,0,9.9438734444,0.1795674508,5.1529562024\H,0,9.0354212975,0.
 5208535364,5.1120389825\H,0,9.8962285437,-0.6992795816,5.5560666897\C,
 0,-1.8072005943,1.6257144532,-1.2779696928\O,0,-2.4358864096,1.8599875
 835,-2.310266629\C,0,-1.8025562246,0.3531141934,-0.614449361\C,0,-0.98
 62271622,0.0481229715,0.4179603434\C,0,0.0525215234,1.0094627158,0.925
 4326433\C,0,0.3087826495,2.1281149745,-0.0884785586\C,0,-1.0011101482,
 2.7031606607,-0.6052138473\C,0,-1.161588209,-1.2201783265,1.1624591801
 \C,0,0.1361463001,-1.8607635338,1.6421912842\C,0,1.0162705026,-0.82668
 54238,2.3361450284\C,0,1.3540911932,0.2816122237,1.3263461976\C,0,2.30
 60741913,-1.450093435,2.8486147083\C,0,3.2555386892,-0.4287202151,3.49
 34136112\C,0,3.6512420351,0.5885463536,2.4279832165\C,0,2.4002310151,1
 .2682925515,1.8648184293\C,0,2.2118110461,-2.5531969814,3.9018446421\C
 ,0,3.6459026318,-2.6389213776,4.4526483477\C,0,4.3872960343,-1.3747602
 145,3.9492279727\C,0,2.6629457471,0.2880019473,4.7129142943\O,0,5.2838
 110333,-0.8385696129,4.8994809362\H,0,-2.5282147354,-0.3727564471,-0.9
 568750551\H,0,-0.3720275353,1.4470257258,1.8391123031\H,0,0.8815703484
 ,1.7294895421,-0.9304733945\H,0,0.8950429595,2.9285074688,0.3646312099
 \H,0,-1.6015991835,3.0727768606,0.2302932081\H,0,-0.8391581764,3.53138
 00413,-1.2956441909\H,0,-1.7468155442,-1.9322979633,0.5799071667\H,0,-
 1.7705156949,-0.9649845523,2.0425811368\H,0,0.6760822955,-2.2919943853
 ,0.7931903927\H,0,-0.1010551262,-2.6716783964,2.3287030131\H,0,0.44935
 90015,-0.3979524059,3.1644701875\H,0,1.7701932591,-0.1972563957,0.4309
 500054\H,0,2.8372759195,-1.8675166287,1.9827515167\H,0,4.1930980478,0.
 0819532906,1.6255433524\H,0,4.3131509998,1.3485673623,2.8481160205\H,0
 ,1.9483486599,1.8766533178,2.648243057\H,0,2.7169269877,1.9356307483,1
 .0616762544\H,0,1.8849698682,-3.5027885091,3.4844011937\H,0,1.50191290
 73,-2.2707312396,4.6781251668\H,0,4.146083359,-3.5381846061,4.09721588
 21\H,0,3.6611783811,-2.6655843015,5.5437875336\H,0,5.0148442143,-1.622
 4499196,3.0884595129\H,0,2.5597603209,-0.38577615,5.5606789287\H,0,3.3
 067066208,1.1206031983,4.9948159156\H,0,1.6797923448,0.6885147954,4.49
 42232228\H,0,4.7637606156,-0.5316594563,5.652210854\\Version=ES64L-G16
 RevC.01\State=1-A\HF=-17140.1557684\RMSD=2.036e-10\Dipole=16.73474,2.7
 565131,-9.8260248\Quadrupole=-300.1066943,165.9854719,134.1212224,-356
 .1295696,115.0654375,41.4682688\PG=C01 [X(C239H394N36O51S5)]\\@
 The archive entry for this job was punched.


 There ain't no surer way to find out whether you
 like people or hate them than to travel with them.
                                     -- Mark Twain
 Job cpu time:       2 days  2 hours 28 minutes  1.9 seconds.
 Elapsed time:       0 days  0 hours 48 minutes 47.0 seconds.
 File lengths (MBytes):  RWF=  17843 Int=      0 D2E=      0 Chk=   1911 Scr=      1
 Normal termination of Gaussian 16 at Sat May  2 11:57:46 2026.
