 Entering Gaussian System, Link 0=g16
 Initial command:
 /cm/shared/apps/spack/cpu/opt/spack/linux-centos8-zen/gcc-8.3.1/gaussian-16.C.01-po5bqktfeugvmjyga3v7eigbecnokxng/g16/l1.exe "/scratch/hklem/job_32994859/Gau-3184315.inp" -scrdir="/scratch/hklem/job_32994859/"
 Entering Link 1 = /cm/shared/apps/spack/cpu/opt/spack/linux-centos8-zen/gcc-8.3.1/gaussian-16.C.01-po5bqktfeugvmjyga3v7eigbecnokxng/g16/l1.exe PID=   3184316.
  
 Copyright (c) 1988-2019, Gaussian, Inc.  All Rights Reserved.
  
 This is part of the Gaussian(R) 16 program.  It is based on
 the Gaussian(R) 09 system (copyright 2009, Gaussian, Inc.),
 the Gaussian(R) 03 system (copyright 2003, Gaussian, Inc.),
 the Gaussian(R) 98 system (copyright 1998, Gaussian, Inc.),
 the Gaussian(R) 94 system (copyright 1995, Gaussian, Inc.),
 the Gaussian 92(TM) system (copyright 1992, Gaussian, Inc.),
 the Gaussian 90(TM) system (copyright 1990, Gaussian, Inc.),
 the Gaussian 88(TM) system (copyright 1988, Gaussian, Inc.),
 the Gaussian 86(TM) system (copyright 1986, Carnegie Mellon
 University), and the Gaussian 82(TM) system (copyright 1983,
 Carnegie Mellon University). Gaussian is a federally registered
 trademark of Gaussian, Inc.
  
 This software contains proprietary and confidential information,
 including trade secrets, belonging to Gaussian, Inc.
  
 This software is provided under written license and may be
 used, copied, transmitted, or stored only in accord with that
 written license.
  
 The following legend is applicable only to US Government
 contracts under FAR:
  
                    RESTRICTED RIGHTS LEGEND
  
 Use, reproduction and disclosure by the US Government is
 subject to restrictions as set forth in subparagraphs (a)
 and (c) of the Commercial Computer Software - Restricted
 Rights clause in FAR 52.227-19.
  
 Gaussian, Inc.
 340 Quinnipiac St., Bldg. 40, Wallingford CT 06492
  
  
 ---------------------------------------------------------------
 Warning -- This program may not be used in any manner that
 competes with the business of Gaussian, Inc. or will provide
 assistance to any competitor of Gaussian, Inc.  The licensee
 of this program is prohibited from giving any competitor of
 Gaussian, Inc. access to this program.  By using this program,
 the user acknowledges that Gaussian, Inc. is engaged in the
 business of creating and licensing software in the field of
 computational chemistry and represents and warrants to the
 licensee that it is not a competitor of Gaussian, Inc. and that
 it will not use this program in any manner prohibited above.
 ---------------------------------------------------------------
  

 Cite this work as:
 Gaussian 16, Revision C.01,
 M. J. Frisch, G. W. Trucks, H. B. Schlegel, G. E. Scuseria, 
 M. A. Robb, J. R. Cheeseman, G. Scalmani, V. Barone, 
 G. A. Petersson, H. Nakatsuji, X. Li, M. Caricato, A. V. Marenich, 
 J. Bloino, B. G. Janesko, R. Gomperts, B. Mennucci, H. P. Hratchian, 
 J. V. Ortiz, A. F. Izmaylov, J. L. Sonnenberg, D. Williams-Young, 
 F. Ding, F. Lipparini, F. Egidi, J. Goings, B. Peng, A. Petrone, 
 T. Henderson, D. Ranasinghe, V. G. Zakrzewski, J. Gao, N. Rega, 
 G. Zheng, W. Liang, M. Hada, M. Ehara, K. Toyota, R. Fukuda, 
 J. Hasegawa, M. Ishida, T. Nakajima, Y. Honda, O. Kitao, H. Nakai, 
 T. Vreven, K. Throssell, J. A. Montgomery, Jr., J. E. Peralta, 
 F. Ogliaro, M. J. Bearpark, J. J. Heyd, E. N. Brothers, K. N. Kudin, 
 V. N. Staroverov, T. A. Keith, R. Kobayashi, J. Normand, 
 K. Raghavachari, A. P. Rendell, J. C. Burant, S. S. Iyengar, 
 J. Tomasi, M. Cossi, J. M. Millam, M. Klene, C. Adamo, R. Cammi, 
 J. W. Ochterski, R. L. Martin, K. Morokuma, O. Farkas, 
 J. B. Foresman, and D. J. Fox, Gaussian, Inc., Wallingford CT, 2019.
 
 ******************************************
 Gaussian 16:  ES64L-G16RevC.01  3-Jul-2019
                12-Aug-2024 
 ******************************************
 %nprocshared=24
 Will use up to   24 processors via shared memory.
 %mem=48GB
 --------------------------
 # wb97xd 6-31G(d) prop=efg
 --------------------------
 1/38=1,172=1/1;
 2/12=2,17=6,18=5,40=1/2;
 3/5=1,6=6,7=1,11=2,25=1,30=1,74=-58/1,2,3;
 4//1;
 5/5=2,38=5/2;
 6/7=2,8=2,9=2,10=2,14=1,28=1/1,2;
 99/5=1,9=1/99;
 -----------------------------------------
 19nt_xstal_distance_cutoff4_ligand_conf_1
 -----------------------------------------
 Symbolic Z-matrix:
 Charge =  0 Multiplicity = 1
 C                    -3.4149   -0.9471   -0.1878 
 O                    -4.5217   -1.0036    0.3919 
 C                    -2.6511    0.266    -0.3091 
 C                    -1.429     0.263    -0.9035 
 C                    -0.7104   -1.0068   -1.2935 
 C                    -1.3753   -2.2574   -0.7247 
 C                    -2.8848   -2.1775   -0.8498 
 C                    -0.7578    1.5395   -1.3036 
 C                     0.7578    1.5698   -1.0661 
 C                     1.4318    0.304    -1.6023 
 C                     0.7902   -0.9327   -0.9347 
 C                     2.9395    0.2705   -1.3829 
 C                     3.5868   -1.0196   -1.9255 
 C                     3.0153   -2.2049   -1.15 
 C                     1.491    -2.2614   -1.2745 
 C                     3.8179    1.3943   -1.9515 
 C                     5.2367    0.7676   -2.0077 
 C                     5.0672   -0.72     -1.63 
 C                     3.3923   -1.2082   -3.4382 
 O                     6.0183   -1.5089   -2.3196 
 H                    -3.1338    1.1902   -0.0001 
 H                    -0.7677   -1.0384   -2.3932 
 H                    -1.0986   -2.373     0.3334 
 H                    -1.0266   -3.154    -1.2448 
 H                    -3.168    -2.112    -1.9102 
 H                    -3.3674   -3.0603   -0.4313 
 H                    -1.2529    2.4004   -0.8438 
 H                    -0.9512    1.6191   -2.3871 
 H                     0.969     1.6713    0.01 
 H                     1.1691    2.4611   -1.5533 
 H                     1.2281    0.2501   -2.681 
 H                     0.8733   -0.7856    0.1574 
 H                     3.106     0.2594   -0.2918 
 H                     3.2963   -2.0984   -0.0906 
 H                     3.4489   -3.1478   -1.5017 
 H                     1.2222   -2.562    -2.2937 
 H                     1.1135   -3.05     -0.6114 
 H                     3.7868    2.292    -1.3312 
 H                     3.4697    1.6928   -2.9474 
 H                     5.9284    1.2684   -1.323 
 H                     5.6699    0.823    -3.0114 
 H                     5.2147   -0.8336   -0.5418 
 H                     3.7479   -0.3422   -4.0054 
 H                     3.9714   -2.0738   -3.7719 
 H                     2.3494   -1.382    -3.7116 
 H                     5.7269   -2.4359   -2.3122 
 
                          Input orientation:                          
 ---------------------------------------------------------------------
 Center     Atomic      Atomic             Coordinates (Angstroms)
 Number     Number       Type             X           Y           Z
 ---------------------------------------------------------------------
      1          6           0       -3.414900   -0.947100   -0.187800
      2          8           0       -4.521700   -1.003600    0.391900
      3          6           0       -2.651100    0.266000   -0.309100
      4          6           0       -1.429000    0.263000   -0.903500
      5          6           0       -0.710400   -1.006800   -1.293500
      6          6           0       -1.375300   -2.257400   -0.724700
      7          6           0       -2.884800   -2.177500   -0.849800
      8          6           0       -0.757800    1.539500   -1.303600
      9          6           0        0.757800    1.569800   -1.066100
     10          6           0        1.431800    0.304000   -1.602300
     11          6           0        0.790200   -0.932700   -0.934700
     12          6           0        2.939500    0.270500   -1.382900
     13          6           0        3.586800   -1.019600   -1.925500
     14          6           0        3.015300   -2.204900   -1.150000
     15          6           0        1.491000   -2.261400   -1.274500
     16          6           0        3.817900    1.394300   -1.951500
     17          6           0        5.236700    0.767600   -2.007700
     18          6           0        5.067200   -0.720000   -1.630000
     19          6           0        3.392300   -1.208200   -3.438200
     20          8           0        6.018300   -1.508900   -2.319600
     21          1           0       -3.133800    1.190200   -0.000100
     22          1           0       -0.767700   -1.038400   -2.393200
     23          1           0       -1.098600   -2.373000    0.333400
     24          1           0       -1.026600   -3.154000   -1.244800
     25          1           0       -3.168000   -2.112000   -1.910200
     26          1           0       -3.367400   -3.060300   -0.431300
     27          1           0       -1.252900    2.400400   -0.843800
     28          1           0       -0.951200    1.619100   -2.387100
     29          1           0        0.969000    1.671300    0.010000
     30          1           0        1.169100    2.461100   -1.553300
     31          1           0        1.228100    0.250100   -2.681000
     32          1           0        0.873300   -0.785600    0.157400
     33          1           0        3.106000    0.259400   -0.291800
     34          1           0        3.296300   -2.098400   -0.090600
     35          1           0        3.448900   -3.147800   -1.501700
     36          1           0        1.222200   -2.562000   -2.293700
     37          1           0        1.113500   -3.050000   -0.611400
     38          1           0        3.786800    2.292000   -1.331200
     39          1           0        3.469700    1.692800   -2.947400
     40          1           0        5.928400    1.268400   -1.323000
     41          1           0        5.669900    0.823000   -3.011400
     42          1           0        5.214700   -0.833600   -0.541800
     43          1           0        3.747900   -0.342200   -4.005400
     44          1           0        3.971400   -2.073800   -3.771900
     45          1           0        2.349400   -1.382000   -3.711600
     46          1           0        5.726900   -2.435900   -2.312200
 ---------------------------------------------------------------------
                    Distance matrix (angstroms):
                    1          2          3          4          5
     1  C    0.000000
     2  O    1.250700   0.000000
     3  C    1.438651   2.366945   0.000000
     4  C    2.433180   3.584289   1.358988   0.000000
     5  C    2.922406   4.167324   2.520988   1.510258   0.000000
     6  C    2.482965   3.566321   2.857960   2.527305   1.526311
     7  C    1.494367   2.366284   2.513496   2.842231   2.509068
     8  C    3.806359   4.848610   2.489060   1.496677   2.546761
     9  C    4.951527   6.051551   3.727404   2.552696   2.974254
    10  C    5.201592   6.413331   4.282976   2.945196   2.530331
    11  C    4.270941   5.475507   3.697405   2.521016   1.544678
    12  C    6.579454   7.774494   5.692791   4.394732   3.867978
    13  C    7.214476   8.433171   6.570914   5.277101   4.343445
    14  C    6.622338   7.786331   6.238634   5.089508   3.916232
    15  C    5.193858   6.364865   4.947397   3.877710   2.533879
    16  C    7.804242   8.988347   6.768936   5.468830   5.167567
    17  C    9.005688  10.203999   8.084197   6.775355   6.247125
    18  C    8.606831   9.803852   7.892346   6.610197   5.794493
    19  C    7.547930   8.794483   6.963276   5.642169   4.633837
    20  O    9.687386  10.894914   9.074738   7.785066   6.824983
    21  H    2.163862   2.625393   1.087486   2.140601   3.517465
    22  H    3.446708   4.674453   3.097116   2.085705   1.101645
    23  H    2.769492   3.687315   3.128479   2.930458   2.159631
    24  H    3.419303   4.418001   3.900120   3.457499   2.170903
    25  H    2.093947   2.891491   2.913004   3.110979   2.764341
    26  H    2.127713   2.498016   3.404745   3.876170   3.466973
    27  H    4.038606   4.878445   2.607016   2.145473   3.479303
    28  H    4.182358   5.229710   3.006430   2.066003   2.854697
    29  H    5.110159   6.119536   3.896385   2.927148   3.419315
    30  H    5.873114   6.940688   4.578256   3.464680   3.953017
    31  H    5.404330   6.638876   4.546906   3.196850   2.694946
    32  H    4.305102   5.404493   3.707409   2.743293   2.159200
    33  H    6.632390   7.761728   5.757130   4.576070   4.143860
    34  H    6.809930   7.909015   6.403881   5.344668   4.323448
    35  H    7.326743   8.468399   7.091285   5.982082   4.682628
    36  H    5.342791   6.529429   5.190248   4.116083   2.674694
    37  H    5.010792   6.078638   5.025878   4.186359   2.822506
    38  H    7.978948   9.102814   6.826120   5.612873   5.577482
    39  H    7.872876   9.071051   6.816200   5.497192   5.243707
    40  H    9.669249  10.830857   8.697162   7.437617   7.017911
    41  H    9.676754  10.898974   8.766511   7.426387   6.856207
    42  H    8.637604   9.782545   7.945696   6.743301   5.975103
    43  H    8.139145   9.389355   7.414833   6.065340   5.260469
    44  H    8.286896   9.519207   7.830910   6.546195   5.403722
    45  H    6.770041   8.012110   6.268805   4.986758   3.917953
    46  H    9.502742  10.695674   9.027932   7.776593   6.672249
                    6          7          8          9         10
     6  C    0.000000
     7  C    1.516781   0.000000
     8  C    3.890100   4.306524   0.000000
     9  C    4.394784   5.230447   1.534395   0.000000
    10  C    3.900098   5.035587   2.531804   1.531025   0.000000
    11  C    2.547218   3.881026   2.940096   2.506157   1.544917
    12  C    5.043908   6.340297   3.909818   2.558976   1.523948
    13  C    5.253238   6.661792   5.080482   3.930242   2.549588
    14  C    4.411463   5.907796   5.317933   4.399057   3.001104
    15  C    2.918556   4.397162   4.416423   3.906291   2.586935
    16  C    6.466009   7.674483   4.623623   3.190446   2.646539
    17  C    7.383445   8.716255   6.084868   4.646577   3.854418
    18  C    6.684981   8.122027   6.256397   4.912443   3.776967
    19  C    5.585151   6.858669   5.415690   4.503858   3.082343
    20  O    7.600610   9.048344   7.499369   6.222742   4.983684
    21  H    3.937425   3.482154   2.732489   4.052777   4.919055
    22  H    2.153841   2.856877   2.798731   3.300159   2.695433
    23  H    1.099774   2.151440   4.254829   4.577171   4.161272
    24  H    1.093612   2.135997   4.701559   5.052752   4.257852
    25  H    2.154141   1.099518   4.417067   5.447941   5.204807
    26  H    2.167763   1.089670   5.359951   6.233624   5.976795
    27  H    4.660930   4.860072   1.094390   2.186831   3.489675
    28  H    4.239185   4.529489   1.103500   2.160591   2.832682
    29  H    4.633596   5.514009   2.173650   1.101317   2.164071
    30  H    5.424462   6.200454   2.150498   1.095877   2.173590
    31  H    4.110031   5.114927   2.739267   2.137918   1.099087
    32  H    2.828515   4.132209   3.193916   2.656728   2.143757
    33  H    5.157881   6.491497   4.194204   2.798344   2.126581
    34  H    4.717119   6.228053   5.580449   4.566319   3.396045
    35  H    4.966835   6.440669   6.301297   5.448625   3.999217
    36  H    3.049844   4.370370   4.660794   4.335256   2.955659
    37  H    2.614417   4.099328   5.004440   4.655731   3.511768
    38  H    6.907399   8.044776   4.606561   3.125171   3.093811
    39  H    6.634644   7.730383   4.538429   3.302850   2.809109
    40  H    8.132236   9.474737   6.691722   5.185744   4.607330
    41  H    8.022014   9.319786   6.689191   5.335788   4.496267
    42  H    6.744535   8.216011   6.471684   5.090695   4.090125
    43  H    6.377943   7.570921   5.580488   4.608245   3.399527
    44  H    6.156812   7.453650   6.443118   5.560971   4.100081
    45  H    4.853997   6.018270   4.897787   4.271415   2.851970
    46  H    7.279647   8.738808   7.672836   6.503103   5.143821
                   11         12         13         14         15
    11  C    0.000000
    12  C    2.503610   0.000000
    13  C    2.968199   1.542002   0.000000
    14  C    2.572142   2.487487   1.527399   0.000000
    15  C    1.540139   2.918976   2.521556   1.530419   0.000000
    16  C    3.951680   1.535519   2.425077   3.773700   4.385993
    17  C    4.879929   2.431997   2.433724   3.808677   4.872647
    18  C    4.338365   2.359927   1.539047   2.577910   3.910435
    19  C    3.621372   2.572127   1.536770   2.524163   3.066883
    20  O    5.439024   3.677320   2.511359   3.297027   4.706903
    21  H    4.558284   6.296265   7.331906   7.117612   5.909857
    22  H    2.136691   4.059219   4.379585   4.149380   2.801597
    23  H    2.692602   5.122502   5.374690   4.376403   3.050217
    24  H    2.886364   5.241777   5.128594   4.152919   2.671316
    25  H    4.243783   6.576922   6.842580   6.230548   4.704542
    26  H    4.697417   7.195607   7.399864   6.479745   4.995326
    27  H    3.910508   4.733215   6.024049   6.286500   5.426497
    28  H    3.413740   4.238477   5.269654   5.646815   4.718103
    29  H    2.775832   2.790212   4.223740   4.534079   4.169958
    30  H    3.470462   2.821716   4.254301   5.034150   4.741662
    31  H    2.154144   2.148108   2.783233   3.400745   2.890500
    32  H    1.105091   2.785149   3.428748   2.883032   2.147062
    33  H    2.682788   1.103787   2.129785   2.611036   3.150930
    34  H    2.889965   2.721954   2.148269   1.101196   2.165016
    35  H    3.506685   3.458089   2.174364   1.095793   2.161180
    36  H    2.165207   3.435365   2.847087   2.156566   1.096076
    37  H    2.166104   3.867196   3.459277   2.149681   1.097314
    38  H    4.419900   2.192499   3.370443   4.566197   5.099742
    39  H    4.257221   2.179842   2.900880   4.316155   4.727531
    40  H    5.603277   3.151653   3.328820   4.536507   5.670305
    41  H    5.586290   3.226818   2.985575   4.436202   5.476637
    42  H    4.443016   2.665149   2.144593   2.662279   4.054800
    43  H    4.304170   2.811835   2.193355   3.487071   4.029236
    44  H    4.412692   3.502554   2.160659   2.793864   3.524852
    45  H    3.216232   2.915788   2.202872   2.771711   2.729405
    46  H    5.341172   3.994721   2.595279   2.959197   4.364644
                   16         17         18         19         20
    16  C    0.000000
    17  C    1.552065   0.000000
    18  C    2.476767   1.544131   0.000000
    19  C    3.027279   3.058092   2.512611   0.000000
    20  O    3.661397   2.427063   1.415098   2.870115   0.000000
    21  H    7.223278   8.618255   8.576820   7.756471   9.819682
    22  H    5.209689   6.281964   5.893209   4.292605   6.802689
    23  H    6.601916   7.448499   6.678655   5.979123   7.644301
    24  H    6.682487   7.428990   6.573213   5.303189   7.313834
    25  H    7.816562   8.884851   8.356716   6.796262   9.215175
    26  H    8.589703   9.548214   8.834951   7.626616   9.698654
    27  H    5.286989   6.792320   7.092156   6.428903   8.386356
    28  H    4.794225   6.257723   6.501210   5.288140   7.639560
    29  H    3.469934   4.806355   5.020275   5.104311   6.405946
    30  H    2.883187   4.429423   5.031944   4.686068   6.313704
    31  H    2.923769   4.097562   4.096875   2.717306   5.115731
    32  H    4.227303   5.112665   4.559375   4.410475   5.755842
    33  H    2.132933   2.782528   2.568328   3.483626   3.964890
    34  H    3.991738   3.956562   2.721365   3.465270   3.567245
    35  H    4.579209   4.333892   2.920543   2.741402   3.155435
    36  H    4.744162   5.223432   4.314799   2.802140   4.910424
    37  H    5.372285   5.790035   4.700871   4.071358   5.417564
    38  H    1.091606   2.209900   3.286465   4.104446   4.517009
    39  H    1.096432   2.204840   3.179489   2.943242   4.140094
    40  H    2.205691   1.094561   2.188527   4.127883   2.952065
    41  H    2.208999   1.094598   2.156934   3.081460   2.457179
    42  H    2.983596   2.170988   1.104011   3.442470   2.064552
    43  H    2.690509   2.727451   2.743321   1.094588   3.059057
    44  H    3.919839   3.575883   2.760668   1.093607   2.572564
    45  H    3.600317   3.982531   3.486795   1.092060   3.926142
    46  H    4.294743   3.255062   1.960845   2.868010   0.971750
                   21         22         23         24         25
    21  H    0.000000
    22  H    4.036337   0.000000
    23  H    4.116996   3.053686   0.000000
    24  H    4.986145   2.421077   1.762345   0.000000
    25  H    3.814994   2.673452   3.063377   2.472674   0.000000
    26  H    4.278698   3.833480   2.490904   2.479901   1.768100
    27  H    2.390439   3.802815   4.918837   5.573452   5.016629
    28  H    3.262739   2.663835   4.833188   4.908464   4.366090
    29  H    4.130923   4.016711   4.553671   5.370332   5.925816
    30  H    4.747901   4.086946   5.663093   6.037021   6.312769
    31  H    5.205496   2.392964   4.623937   4.328307   5.049688
    32  H    4.470508   3.043411   2.537559   3.344414   4.729314
    33  H    6.315582   4.594096   4.999907   5.444069   6.899698
    34  H    7.222830   4.789746   4.423836   4.597166   6.715527
    35  H    8.025272   4.798339   4.964641   4.482871   6.709927
    36  H    6.189858   2.508178   3.510483   2.551031   4.429834
    37  H    6.032623   3.280283   2.498872   2.234287   4.571430
    38  H    7.133056   5.741331   6.957029   7.268783   8.252254
    39  H    7.248820   5.071701   6.940010   6.826934   7.720839
    40  H    9.158583   7.162710   8.085925   8.242315   9.721955
    41  H    9.311708   6.729760   8.198457   7.986271   9.377385
    42  H    8.607361   6.265679   6.556942   6.695692   8.589324
    43  H    8.108543   4.845052   6.814536   6.190556   7.439874
    44  H    8.681246   5.043009   6.530537   5.703777   7.378240
    45  H    7.103304   3.401845   5.406737   4.541196   5.849756
    46  H    9.849183   6.643749   7.320560   6.874938   8.909869
                   26         27         28         29         30
    26  H    0.000000
    27  H    5.870308   0.000000
    28  H    5.617825   1.755912   0.000000
    29  H    6.433284   2.489458   3.071804   0.000000
    30  H    7.233573   2.524512   2.428962   1.762876   0.000000
    31  H    6.094138   3.762241   2.590345   3.054247   2.482682
    32  H    4.848130   3.959005   3.947893   2.463177   3.681719
    33  H    7.276316   4.887596   4.764445   2.579014   3.192248
    34  H    6.741382   6.442184   6.093847   4.431375   5.239610
    35  H    6.900388   7.302211   6.547377   5.626621   6.054743
    36  H    4.978078   5.731819   4.713172   4.826176   5.077652
    37  H    4.484530   5.946488   5.405237   4.764209   5.591287
    38  H    8.979951   5.064374   4.900649   3.181836   2.632542
    39  H    8.698773   5.218120   4.456874   3.873006   2.797599
    40  H   10.292943   7.285748   6.970236   5.151200   4.911874
    41  H   10.169057   7.423735   6.697947   5.652162   5.006658
    42  H    8.866952   7.237390   6.887612   4.960340   5.314608
    43  H    8.413665   6.521163   5.342952   5.282036   4.530066
    44  H    8.123471   7.475664   6.307707   6.110888   5.774114
    45  H    6.801387   5.958808   4.653478   5.007839   4.562980
    46  H    9.307736   8.617633   7.813172   6.700695   6.732762
                   31         32         33         34         35
    31  H    0.000000
    32  H    3.042215   0.000000
    33  H    3.038893   2.505744   0.000000
    34  H    4.062398   2.766926   2.374009   0.000000
    35  H    4.227106   3.868632   3.631866   1.765143   0.000000
    36  H    2.838652   3.047166   3.939112   3.061122   2.434875
    37  H    3.897055   2.403384   3.876123   2.437497   2.501258
    38  H    3.540941   4.491774   2.382290   4.588604   5.452951
    39  H    2.679015   4.745897   3.039593   4.750218   5.051919
    40  H    4.997391   5.653719   3.169763   4.447708   5.067808
    41  H    4.490765   5.969611   3.779875   4.764413   4.793672
    42  H    4.652264   4.397606   2.388256   2.341700   3.065123
    43  H    2.907619   5.078271   3.816384   4.314376   3.772175
    44  H    3.757162   5.166922   4.278298   3.742771   2.565208
    45  H    2.232308   4.183745   3.868032   3.810707   3.034898
    46  H    5.252600   5.690329   4.267994   3.310171   2.520515
                   36         37         38         39         40
    36  H    0.000000
    37  H    1.755019   0.000000
    38  H    5.573589   6.016777   0.000000
    39  H    4.856120   5.788154   1.752625   0.000000
    40  H    6.145123   6.506782   2.373663   2.977246   0.000000
    41  H    5.635189   6.443672   2.920120   2.366755   1.765191
    42  H    4.690051   4.662308   3.525823   3.900594   2.353305
    43  H    3.773141   5.078531   3.753914   2.310408   3.813644
    44  H    3.159354   4.371421   5.005128   3.888287   4.582277
    45  H    2.161809   3.731074   4.607678   3.360576   5.053639
    46  H    4.506503   4.955129   5.203786   4.748115   3.839395
                   41         42         43         44         45
    41  H    0.000000
    42  H    3.008397   0.000000
    43  H    2.457603   3.793350   0.000000
    44  H    3.443067   3.676607   1.761509   0.000000
    45  H    4.046977   4.307937   1.767287   1.764400   0.000000
    46  H    3.333550   2.442136   3.341698   2.311627   3.804804
                   46
    46  H    0.000000
 Stoichiometry    C18H26O2
 Framework group  C1[X(C18H26O2)]
 Deg. of freedom   132
 Full point group                 C1      NOp   1
 Largest Abelian subgroup         C1      NOp   1
 Largest concise Abelian subgroup C1      NOp   1
                         Standard orientation:                         
 ---------------------------------------------------------------------
 Center     Atomic      Atomic             Coordinates (Angstroms)
 Number     Number       Type             X           Y           Z
 ---------------------------------------------------------------------
      1          6           0        4.656904   -0.178923   -0.134987
      2          8           0        5.864807   -0.180987   -0.459356
      3          6           0        3.833070    0.999775   -0.176031
      4          6           0        2.512129    0.937435    0.137146
      5          6           0        1.781669   -0.366661    0.353109
      6          6           0        2.608212   -1.579991   -0.064364
      7          6           0        4.049253   -1.440105    0.387806
      8          6           0        1.715078    2.178980    0.388774
      9          6           0        0.287794    2.150670   -0.173745
     10          6           0       -0.431211    0.850149    0.194651
     11          6           0        0.393538   -0.348729   -0.324239
     12          6           0       -1.851965    0.758146   -0.348867
     13          6           0       -2.545276   -0.565653    0.031456
     14          6           0       -1.767597   -1.714397   -0.607723
     15          6           0       -0.306070   -1.710163   -0.153735
     16          6           0       -2.881120    1.836034    0.021022
     17          6           0       -4.249480    1.150807   -0.237742
     18          6           0       -3.937300   -0.322583   -0.578341
     19          6           0       -2.677055   -0.769386    1.548950
     20          8           0       -4.980620   -1.160405   -0.117861
     21          1           0        4.330889    1.947668   -0.366558
     22          1           0        1.599290   -0.412818    1.438571
     23          1           0        2.574004   -1.690543   -1.158032
     24          1           0        2.193847   -2.498059    0.361592
     25          1           0        4.091473   -1.379373    1.484834
     26          1           0        4.649326   -2.295791    0.079431
     27          1           0        2.260595    3.066466    0.053412
     28          1           0        1.664097    2.249755    1.488821
     29          1           0        0.311941    2.259975   -1.269358
     30          1           0       -0.258100    3.016716    0.217292
     31          1           0       -0.465305    0.788050    1.291452
     32          1           0        0.544089   -0.188360   -1.407218
     33          1           0       -1.776076    0.757027   -1.450041
     34          1           0       -1.815361   -1.603219   -1.702250
     35          1           0       -2.226035   -2.679613   -0.364920
     36          1           0       -0.253010   -2.015136    0.897721
     37          1           0        0.240736   -2.472287   -0.723181
     38          1           0       -2.754631    2.743702   -0.572057
     39          1           0       -2.771591    2.133204    1.070715
     40          1           0       -4.796452    1.633267   -1.053902
     41          1           0       -4.892960    1.172902    0.647465
     42          1           0       -3.839065   -0.425368   -1.673159
     43          1           0       -3.184974    0.072440    2.030063
     44          1           0       -3.276792   -1.663075    1.742887
     45          1           0       -1.712245   -0.904403    2.042414
     46          1           0       -4.654624   -2.074432   -0.067082
 ---------------------------------------------------------------------
 Rotational constants (GHZ):           0.9132172           0.1763887           0.1559156
 Standard basis: 6-31G(d) (6D, 7F)
 There are   352 symmetry adapted cartesian basis functions of A   symmetry.
 There are   352 symmetry adapted basis functions of A   symmetry.
   352 basis functions,   664 primitive gaussians,   352 cartesian basis functions
    75 alpha electrons       75 beta electrons
       nuclear repulsion energy      1665.9878781780 Hartrees.
 NAtoms=   46 NActive=   46 NUniq=   46 SFac= 1.00D+00 NAtFMM=   60 NAOKFM=F Big=F
 Integral buffers will be    131072 words long.
 Raffenetti 2 integral format.
 Two-electron integral symmetry is turned on.
 Nuclear repulsion after empirical dispersion term =     1665.9388522801 Hartrees.
 One-electron integrals computed using PRISM.
 NBasis=   352 RedAO= T EigKep=  1.27D-03  NBF=   352
 NBsUse=   352 1.00D-06 EigRej= -1.00D+00 NBFU=   352
 ExpMin= 1.61D-01 ExpMax= 5.48D+03 ExpMxC= 8.25D+02 IAcc=3 IRadAn=         5 AccDes= 0.00D+00
 Harris functional with IExCor= 4639 and IRadAn=       5 diagonalized for initial guess.
 HarFok:  IExCor= 4639 AccDes= 0.00D+00 IRadAn=         5 IDoV= 1 UseB2=F ITyADJ=14
 ICtDFT=  3500011 ScaDFX=  1.000000  1.000000  1.000000  1.000000
 FoFCou: FMM=F IPFlag=           0 FMFlag=      100000 FMFlg1=           0
         NFxFlg=           0 DoJE=T BraDBF=F KetDBF=T FulRan=T
         wScrn=  0.000000 ICntrl=       500 IOpCl=  0 I1Cent=   200000004 NGrid=           0
         NMat0=    1 NMatS0=      1 NMatT0=    0 NMatD0=    1 NMtDS0=    0 NMtDT0=    0
 Petite list used in FoFCou.
 Requested convergence on RMS density matrix=1.00D-08 within 128 cycles.
 Requested convergence on MAX density matrix=1.00D-06.
 Requested convergence on             energy=1.00D-06.
 No special actions if energy rises.
 Integral accuracy reduced to 1.0D-05 until final iterations.
 Initial convergence to 1.0D-05 achieved.  Increase integral accuracy.
 SCF Done:  E(RwB97XD) =  -851.792291756     A.U. after   15 cycles
            NFock= 15  Conv=0.42D-08     -V/T= 2.0093

 **********************************************************************

            Population analysis using the SCF Density.

 **********************************************************************

 Orbital symmetries:
       Occupied  (A) (A) (A) (A) (A) (A) (A) (A) (A) (A) (A) (A)
                 (A) (A) (A) (A) (A) (A) (A) (A) (A) (A) (A) (A)
                 (A) (A) (A) (A) (A) (A) (A) (A) (A) (A) (A) (A)
                 (A) (A) (A) (A) (A) (A) (A) (A) (A) (A) (A) (A)
                 (A) (A) (A) (A) (A) (A) (A) (A) (A) (A) (A) (A)
                 (A) (A) (A) (A) (A) (A) (A) (A) (A) (A) (A) (A)
                 (A) (A) (A)
       Virtual   (A) (A) (A) (A) (A) (A) (A) (A) (A) (A) (A) (A)
                 (A) (A) (A) (A) (A) (A) (A) (A) (A) (A) (A) (A)
                 (A) (A) (A) (A) (A) (A) (A) (A) (A) (A) (A) (A)
                 (A) (A) (A) (A) (A) (A) (A) (A) (A) (A) (A) (A)
                 (A) (A) (A) (A) (A) (A) (A) (A) (A) (A) (A) (A)
                 (A) (A) (A) (A) (A) (A) (A) (A) (A) (A) (A) (A)
                 (A) (A) (A) (A) (A) (A) (A) (A) (A) (A) (A) (A)
                 (A) (A) (A) (A) (A) (A) (A) (A) (A) (A) (A) (A)
                 (A) (A) (A) (A) (A) (A) (A) (A) (A) (A) (A) (A)
                 (A) (A) (A) (A) (A) (A) (A) (A) (A) (A) (A) (A)
                 (A) (A) (A) (A) (A) (A) (A) (A) (A) (A) (A) (A)
                 (A) (A) (A) (A) (A) (A) (A) (A) (A) (A) (A) (A)
                 (A) (A) (A) (A) (A) (A) (A) (A) (A) (A) (A) (A)
                 (A) (A) (A) (A) (A) (A) (A) (A) (A) (A) (A) (A)
                 (A) (A) (A) (A) (A) (A) (A) (A) (A) (A) (A) (A)
                 (A) (A) (A) (A) (A) (A) (A) (A) (A) (A) (A) (A)
                 (A) (A) (A) (A) (A) (A) (A) (A) (A) (A) (A) (A)
                 (A) (A) (A) (A) (A) (A) (A) (A) (A) (A) (A) (A)
                 (A) (A) (A) (A) (A) (A) (A) (A) (A) (A) (A) (A)
                 (A) (A) (A) (A) (A) (A) (A) (A) (A) (A) (A) (A)
                 (A) (A) (A) (A) (A) (A) (A) (A) (A) (A) (A) (A)
                 (A) (A) (A) (A) (A) (A) (A) (A) (A) (A) (A) (A)
                 (A) (A) (A) (A) (A) (A) (A) (A) (A) (A) (A) (A)
                 (A)
 The electronic state is 1-A.
 Alpha  occ. eigenvalues --  -19.26828 -19.23476 -10.36789 -10.34188 -10.33285
 Alpha  occ. eigenvalues --  -10.31738 -10.31175 -10.31078 -10.30643 -10.30487
 Alpha  occ. eigenvalues --  -10.30483 -10.30320 -10.30182 -10.30068 -10.30039
 Alpha  occ. eigenvalues --  -10.29630 -10.29548 -10.29353 -10.28989 -10.28928
 Alpha  occ. eigenvalues --   -1.12062  -1.10096  -0.98262  -0.95752  -0.90886
 Alpha  occ. eigenvalues --   -0.90270  -0.87313  -0.84504  -0.82737  -0.81615
 Alpha  occ. eigenvalues --   -0.78001  -0.77560  -0.73758  -0.72251  -0.69638
 Alpha  occ. eigenvalues --   -0.67735  -0.65612  -0.65266  -0.63198  -0.60916
 Alpha  occ. eigenvalues --   -0.59908  -0.58153  -0.57055  -0.55702  -0.55556
 Alpha  occ. eigenvalues --   -0.54137  -0.53493  -0.52868  -0.51881  -0.50727
 Alpha  occ. eigenvalues --   -0.50345  -0.49819  -0.48778  -0.47886  -0.47600
 Alpha  occ. eigenvalues --   -0.47008  -0.46791  -0.46534  -0.45286  -0.44685
 Alpha  occ. eigenvalues --   -0.44211  -0.43466  -0.42940  -0.42566  -0.41902
 Alpha  occ. eigenvalues --   -0.41561  -0.40792  -0.40144  -0.39410  -0.38570
 Alpha  occ. eigenvalues --   -0.37152  -0.36460  -0.34367  -0.32691  -0.30855
 Alpha virt. eigenvalues --    0.02296   0.12982   0.14051   0.14925   0.16373
 Alpha virt. eigenvalues --    0.16955   0.17575   0.18231   0.19413   0.20186
 Alpha virt. eigenvalues --    0.20478   0.20701   0.22246   0.22604   0.23362
 Alpha virt. eigenvalues --    0.23958   0.24180   0.24510   0.24817   0.24943
 Alpha virt. eigenvalues --    0.25181   0.26034   0.26313   0.26572   0.26841
 Alpha virt. eigenvalues --    0.27237   0.28388   0.28961   0.29390   0.30503
 Alpha virt. eigenvalues --    0.30752   0.31155   0.31651   0.32461   0.32923
 Alpha virt. eigenvalues --    0.33524   0.34592   0.34869   0.35415   0.35950
 Alpha virt. eigenvalues --    0.36263   0.37441   0.38587   0.38981   0.40537
 Alpha virt. eigenvalues --    0.41746   0.41892   0.44651   0.45508   0.49177
 Alpha virt. eigenvalues --    0.52259   0.57856   0.58405   0.59145   0.60106
 Alpha virt. eigenvalues --    0.61210   0.61628   0.62084   0.62869   0.65220
 Alpha virt. eigenvalues --    0.65385   0.66117   0.66470   0.68148   0.69259
 Alpha virt. eigenvalues --    0.70077   0.70896   0.72305   0.72607   0.72923
 Alpha virt. eigenvalues --    0.73306   0.74370   0.75035   0.75280   0.76609
 Alpha virt. eigenvalues --    0.77633   0.77906   0.78708   0.79425   0.81355
 Alpha virt. eigenvalues --    0.82087   0.82797   0.84302   0.85041   0.85579
 Alpha virt. eigenvalues --    0.86827   0.87385   0.88954   0.89725   0.90281
 Alpha virt. eigenvalues --    0.91434   0.92646   0.93153   0.93639   0.94423
 Alpha virt. eigenvalues --    0.94998   0.95586   0.95689   0.96326   0.96477
 Alpha virt. eigenvalues --    0.97248   0.97578   0.97894   0.98368   0.98726
 Alpha virt. eigenvalues --    0.99123   1.00247   1.00535   1.01259   1.02036
 Alpha virt. eigenvalues --    1.02699   1.03049   1.03705   1.04186   1.04748
 Alpha virt. eigenvalues --    1.05086   1.05541   1.06171   1.06666   1.07484
 Alpha virt. eigenvalues --    1.08521   1.09905   1.10722   1.11744   1.13015
 Alpha virt. eigenvalues --    1.13969   1.15865   1.16806   1.19142   1.20609
 Alpha virt. eigenvalues --    1.21720   1.22645   1.25378   1.26508   1.27590
 Alpha virt. eigenvalues --    1.29256   1.30612   1.34556   1.36261   1.39003
 Alpha virt. eigenvalues --    1.40487   1.42187   1.44496   1.47829   1.48932
 Alpha virt. eigenvalues --    1.50102   1.52765   1.53374   1.55590   1.58447
 Alpha virt. eigenvalues --    1.61100   1.61722   1.63719   1.65374   1.66349
 Alpha virt. eigenvalues --    1.69950   1.70607   1.73330   1.74496   1.76299
 Alpha virt. eigenvalues --    1.77568   1.78548   1.79770   1.81488   1.82748
 Alpha virt. eigenvalues --    1.84976   1.85313   1.87311   1.87899   1.88050
 Alpha virt. eigenvalues --    1.89749   1.91986   1.93501   1.94160   1.95119
 Alpha virt. eigenvalues --    1.95916   1.96367   1.97346   1.98367   1.99532
 Alpha virt. eigenvalues --    2.00519   2.01126   2.01729   2.02465   2.03236
 Alpha virt. eigenvalues --    2.04828   2.05481   2.06250   2.06802   2.07797
 Alpha virt. eigenvalues --    2.08691   2.10117   2.10656   2.10951   2.11953
 Alpha virt. eigenvalues --    2.12688   2.13564   2.15068   2.16461   2.18734
 Alpha virt. eigenvalues --    2.19733   2.20416   2.21895   2.22326   2.24730
 Alpha virt. eigenvalues --    2.25810   2.27429   2.29390   2.30220   2.32455
 Alpha virt. eigenvalues --    2.34105   2.35689   2.37000   2.38845   2.40224
 Alpha virt. eigenvalues --    2.40609   2.41344   2.42690   2.44218   2.46465
 Alpha virt. eigenvalues --    2.48563   2.49097   2.50388   2.50864   2.53063
 Alpha virt. eigenvalues --    2.53515   2.56028   2.58452   2.60607   2.62341
 Alpha virt. eigenvalues --    2.62927   2.63661   2.64862   2.65864   2.67651
 Alpha virt. eigenvalues --    2.68477   2.70368   2.71881   2.75015   2.75984
 Alpha virt. eigenvalues --    2.78966   2.80266   2.80917   2.82460   2.83609
 Alpha virt. eigenvalues --    2.86353   2.89870   2.94017   2.97005   2.98068
 Alpha virt. eigenvalues --    3.00601   3.01285   3.06976   3.07756   3.09192
 Alpha virt. eigenvalues --    3.19798   3.26401   4.00590   4.08334   4.23747
 Alpha virt. eigenvalues --    4.26039   4.31190   4.33483   4.35923   4.38628
 Alpha virt. eigenvalues --    4.42001   4.42762   4.47939   4.53655   4.56052
 Alpha virt. eigenvalues --    4.64745   4.66937   4.74100   4.77217   4.81410
 Alpha virt. eigenvalues --    4.86008   4.90143
          Condensed to atoms (all electrons):
               1          2          3          4          5          6
     1  C    4.445434   0.526654   0.355605   0.000949  -0.022097  -0.025345
     2  O    0.526654   8.115015  -0.060358   0.004816   0.000419   0.002065
     3  C    0.355605  -0.060358   5.300678   0.521456  -0.043257   0.002181
     4  C    0.000949   0.004816   0.521456   4.863421   0.381367  -0.043709
     5  C   -0.022097   0.000419  -0.043257   0.381367   5.093416   0.343165
     6  C   -0.025345   0.002065   0.002181  -0.043709   0.343165   5.155674
     7  C    0.346237  -0.079603  -0.134228   0.003779  -0.037490   0.289045
     8  C    0.003608  -0.000088  -0.034432   0.357161  -0.068687   0.005398
     9  C   -0.000126   0.000000   0.001930  -0.033134  -0.010627  -0.000262
    10  C   -0.000018   0.000000   0.000429  -0.014730  -0.038101   0.004105
    11  C   -0.000211   0.000002   0.001982  -0.032890   0.366851  -0.047661
    12  C   -0.000000   0.000000   0.000003   0.000198   0.003824  -0.000137
    13  C   -0.000000   0.000000   0.000000   0.000000   0.000043  -0.000001
    14  C    0.000000  -0.000000   0.000001  -0.000086   0.003780   0.000244
    15  C   -0.000001  -0.000000  -0.000097   0.004436  -0.044035  -0.005539
    16  C   -0.000000  -0.000000  -0.000000  -0.000002  -0.000100   0.000001
    17  C   -0.000000  -0.000000  -0.000000   0.000000   0.000001  -0.000000
    18  C    0.000000   0.000000  -0.000000  -0.000000   0.000004   0.000000
    19  C   -0.000000   0.000000  -0.000000   0.000000   0.000037   0.000001
    20  O   -0.000000   0.000000   0.000000   0.000000  -0.000000   0.000000
    21  H   -0.028648   0.000579   0.360135  -0.042096   0.004363  -0.000357
    22  H    0.000710   0.000001  -0.001667  -0.045022   0.364062  -0.033813
    23  H   -0.003138   0.000157   0.003834  -0.004316  -0.043277   0.386408
    24  H    0.003701  -0.000078  -0.000429   0.004254  -0.027274   0.377252
    25  H   -0.030985  -0.000020   0.003431  -0.002753  -0.002749  -0.038911
    26  H   -0.026701   0.003794   0.005793  -0.000134   0.004189  -0.030584
    27  H    0.000216  -0.000000  -0.002519  -0.038114   0.004233  -0.000135
    28  H   -0.000090   0.000002  -0.005952  -0.042688  -0.000766   0.000148
    29  H   -0.000001  -0.000000  -0.000039  -0.002910   0.000227   0.000010
    30  H    0.000001  -0.000000  -0.000075   0.004066  -0.000022   0.000011
    31  H    0.000003  -0.000000  -0.000156  -0.003418  -0.002724   0.000162
    32  H    0.000052  -0.000000   0.000327  -0.002812  -0.042815  -0.004104
    33  H    0.000000   0.000000  -0.000002  -0.000066   0.000184  -0.000001
    34  H    0.000000   0.000000  -0.000000   0.000003   0.000047  -0.000030
    35  H    0.000000  -0.000000  -0.000000   0.000001  -0.000109   0.000005
    36  H   -0.000000  -0.000000  -0.000006   0.000232  -0.002754  -0.002662
    37  H   -0.000013  -0.000000   0.000019  -0.000183  -0.007406   0.004260
    38  H    0.000000  -0.000000   0.000000  -0.000000   0.000001  -0.000000
    39  H    0.000000   0.000000  -0.000000  -0.000001   0.000001   0.000000
    40  H    0.000000  -0.000000   0.000000   0.000000  -0.000000   0.000000
    41  H    0.000000  -0.000000   0.000000  -0.000000  -0.000000   0.000000
    42  H    0.000000  -0.000000  -0.000000   0.000000  -0.000000   0.000000
    43  H   -0.000000   0.000000   0.000000   0.000000  -0.000004  -0.000000
    44  H    0.000000  -0.000000  -0.000000  -0.000000  -0.000003   0.000000
    45  H    0.000000  -0.000000  -0.000000  -0.000001   0.000075   0.000002
    46  H   -0.000000  -0.000000   0.000000   0.000000  -0.000000   0.000000
               7          8          9         10         11         12
     1  C    0.346237   0.003608  -0.000126  -0.000018  -0.000211  -0.000000
     2  O   -0.079603  -0.000088   0.000000   0.000000   0.000002   0.000000
     3  C   -0.134228  -0.034432   0.001930   0.000429   0.001982   0.000003
     4  C    0.003779   0.357161  -0.033134  -0.014730  -0.032890   0.000198
     5  C   -0.037490  -0.068687  -0.010627  -0.038101   0.366851   0.003824
     6  C    0.289045   0.005398  -0.000262   0.004105  -0.047661  -0.000137
     7  C    5.343946  -0.000220   0.000040  -0.000091   0.004616   0.000002
     8  C   -0.000220   5.154064   0.335407  -0.041542  -0.014505   0.003732
     9  C    0.000040   0.335407   5.095657   0.369968  -0.043313  -0.040678
    10  C   -0.000091  -0.041542   0.369968   5.008948   0.371675   0.365255
    11  C    0.004616  -0.014505  -0.043313   0.371675   5.047020  -0.037804
    12  C    0.000002   0.003732  -0.040678   0.365255  -0.037804   5.103456
    13  C    0.000000  -0.000122   0.004239  -0.027088  -0.012002   0.349453
    14  C   -0.000004  -0.000010  -0.000044  -0.011428  -0.038443  -0.048732
    15  C    0.000327   0.000302   0.004169  -0.038795   0.366002  -0.017219
    16  C   -0.000000   0.000055  -0.003366  -0.032187   0.004132   0.358166
    17  C    0.000000  -0.000001   0.000089   0.004036  -0.000157  -0.060502
    18  C   -0.000000   0.000001  -0.000105   0.004008   0.000152  -0.062765
    19  C    0.000000  -0.000001   0.000110  -0.005938  -0.002316  -0.056698
    20  O    0.000000  -0.000000   0.000000  -0.000063  -0.000003   0.003647
    21  H    0.005979  -0.007101   0.000168  -0.000003  -0.000076  -0.000000
    22  H   -0.004216  -0.000185  -0.000836  -0.006134  -0.044121   0.000065
    23  H   -0.041439  -0.000059  -0.000030   0.000179  -0.002634  -0.000002
    24  H   -0.031914  -0.000109  -0.000006  -0.000103  -0.007743  -0.000002
    25  H    0.366870  -0.000080  -0.000002   0.000003   0.000064   0.000000
    26  H    0.369190   0.000008   0.000000   0.000001  -0.000066  -0.000000
    27  H    0.000012   0.378623  -0.029716   0.003841  -0.000113  -0.000095
    28  H   -0.000090   0.378428  -0.040478  -0.004095  -0.000901  -0.000027
    29  H   -0.000003  -0.035504   0.378772  -0.038527  -0.007268  -0.004142
    30  H   -0.000000  -0.032532   0.378543  -0.031303   0.004785  -0.006242
    31  H   -0.000010  -0.000125  -0.048323   0.380326  -0.050540  -0.042795
    32  H   -0.000165  -0.000166  -0.006011  -0.046217   0.375071  -0.004315
    33  H   -0.000000   0.000048  -0.005456  -0.045345  -0.006393   0.380983
    34  H   -0.000000   0.000000  -0.000029  -0.000324  -0.003635  -0.007056
    35  H   -0.000000  -0.000000   0.000010  -0.000114   0.004133   0.006628
    36  H   -0.000082  -0.000015  -0.000020  -0.003237  -0.044925  -0.000416
    37  H    0.000148  -0.000009  -0.000116   0.004023  -0.029290   0.000093
    38  H    0.000000  -0.000005   0.001494  -0.001231  -0.000089  -0.026203
    39  H   -0.000000  -0.000033  -0.000781  -0.004010   0.000078  -0.039311
    40  H   -0.000000  -0.000000  -0.000004  -0.000064   0.000003   0.001811
    41  H   -0.000000  -0.000000   0.000002  -0.000128   0.000002   0.003152
    42  H   -0.000000  -0.000000   0.000007  -0.000232  -0.000011  -0.002406
    43  H    0.000000   0.000000  -0.000037  -0.000298   0.000070  -0.005753
    44  H    0.000000  -0.000000   0.000000   0.000043   0.000033   0.005919
    45  H   -0.000000   0.000008  -0.000018   0.000997  -0.000358  -0.004629
    46  H    0.000000   0.000000   0.000000  -0.000005   0.000001   0.000403
              13         14         15         16         17         18
     1  C   -0.000000   0.000000  -0.000001  -0.000000  -0.000000   0.000000
     2  O    0.000000  -0.000000  -0.000000  -0.000000  -0.000000   0.000000
     3  C    0.000000   0.000001  -0.000097  -0.000000  -0.000000  -0.000000
     4  C    0.000000  -0.000086   0.004436  -0.000002   0.000000  -0.000000
     5  C    0.000043   0.003780  -0.044035  -0.000100   0.000001   0.000004
     6  C   -0.000001   0.000244  -0.005539   0.000001  -0.000000   0.000000
     7  C    0.000000  -0.000004   0.000327  -0.000000   0.000000  -0.000000
     8  C   -0.000122  -0.000010   0.000302   0.000055  -0.000001   0.000001
     9  C    0.004239  -0.000044   0.004169  -0.003366   0.000089  -0.000105
    10  C   -0.027088  -0.011428  -0.038795  -0.032187   0.004036   0.004008
    11  C   -0.012002  -0.038443   0.366002   0.004132  -0.000157   0.000152
    12  C    0.349453  -0.048732  -0.017219   0.358166  -0.060502  -0.062765
    13  C    5.115355   0.372915  -0.037341  -0.061264  -0.056806   0.369333
    14  C    0.372915   5.123297   0.353208   0.005873   0.006935  -0.046304
    15  C   -0.037341   0.353208   5.095978   0.000237  -0.000237   0.004328
    16  C   -0.061264   0.005873   0.000237   5.115205   0.335927  -0.059412
    17  C   -0.056806   0.006935  -0.000237   0.335927   5.177008   0.355685
    18  C    0.369333  -0.046304   0.004328  -0.059412   0.355685   4.797591
    19  C    0.342509  -0.069069  -0.004172  -0.003028  -0.011294  -0.056910
    20  O   -0.045700  -0.000367   0.000018   0.002388  -0.049201   0.253530
    21  H   -0.000000  -0.000000   0.000002  -0.000000  -0.000000  -0.000000
    22  H   -0.000034   0.000022  -0.006395  -0.000002   0.000000  -0.000000
    23  H   -0.000002  -0.000068  -0.003013   0.000000   0.000000  -0.000000
    24  H   -0.000003   0.000103   0.003843  -0.000000   0.000000   0.000000
    25  H   -0.000000  -0.000000  -0.000033   0.000000   0.000000  -0.000000
    26  H   -0.000000  -0.000000   0.000000   0.000000  -0.000000   0.000000
    27  H    0.000001  -0.000000   0.000008  -0.000001  -0.000000  -0.000000
    28  H    0.000003   0.000001  -0.000016  -0.000008  -0.000000  -0.000000
    29  H   -0.000008  -0.000004   0.000035  -0.000539  -0.000017  -0.000003
    30  H   -0.000006  -0.000003  -0.000120   0.003662   0.000003  -0.000005
    31  H   -0.009906   0.000391  -0.002796  -0.003610  -0.000017   0.000078
    32  H   -0.001099  -0.000527  -0.044839  -0.000050   0.000004  -0.000060
    33  H   -0.054155  -0.006566  -0.001099  -0.044456  -0.001762  -0.002150
    34  H   -0.037641   0.377282  -0.036418   0.000054   0.000075  -0.005865
    35  H   -0.037755   0.370472  -0.033111  -0.000230  -0.000004  -0.003587
    36  H   -0.007132  -0.035991   0.380853  -0.000016   0.000003  -0.000051
    37  H    0.004541  -0.033449   0.380032   0.000008   0.000003  -0.000077
    38  H    0.005212  -0.000138  -0.000004   0.378325  -0.028059   0.002279
    39  H   -0.004118  -0.000016  -0.000020   0.383887  -0.032717   0.002161
    40  H    0.004231  -0.000142   0.000003  -0.030785   0.378559  -0.027195
    41  H   -0.003979  -0.000131   0.000004  -0.025721   0.371001  -0.031812
    42  H   -0.068118  -0.011121   0.000112   0.003921  -0.054277   0.389046
    43  H   -0.029062   0.004920   0.000004   0.002662   0.003396  -0.004508
    44  H   -0.031655  -0.004566  -0.000173  -0.000234  -0.000129  -0.008990
    45  H   -0.031526  -0.006418   0.001987  -0.000023  -0.000308   0.005052
    46  H   -0.005639   0.002296  -0.000086  -0.000342   0.007073  -0.029886
              19         20         21         22         23         24
     1  C   -0.000000  -0.000000  -0.028648   0.000710  -0.003138   0.003701
     2  O    0.000000   0.000000   0.000579   0.000001   0.000157  -0.000078
     3  C   -0.000000   0.000000   0.360135  -0.001667   0.003834  -0.000429
     4  C    0.000000   0.000000  -0.042096  -0.045022  -0.004316   0.004254
     5  C    0.000037  -0.000000   0.004363   0.364062  -0.043277  -0.027274
     6  C    0.000001   0.000000  -0.000357  -0.033813   0.386408   0.377252
     7  C    0.000000   0.000000   0.005979  -0.004216  -0.041439  -0.031914
     8  C   -0.000001  -0.000000  -0.007101  -0.000185  -0.000059  -0.000109
     9  C    0.000110   0.000000   0.000168  -0.000836  -0.000030  -0.000006
    10  C   -0.005938  -0.000063  -0.000003  -0.006134   0.000179  -0.000103
    11  C   -0.002316  -0.000003  -0.000076  -0.044121  -0.002634  -0.007743
    12  C   -0.056698   0.003647  -0.000000   0.000065  -0.000002  -0.000002
    13  C    0.342509  -0.045700  -0.000000  -0.000034  -0.000002  -0.000003
    14  C   -0.069069  -0.000367  -0.000000   0.000022  -0.000068   0.000103
    15  C   -0.004172   0.000018   0.000002  -0.006395  -0.003013   0.003843
    16  C   -0.003028   0.002388  -0.000000  -0.000002   0.000000  -0.000000
    17  C   -0.011294  -0.049201  -0.000000   0.000000   0.000000   0.000000
    18  C   -0.056910   0.253530  -0.000000  -0.000000  -0.000000   0.000000
    19  C    5.216354   0.000980   0.000000  -0.000076  -0.000000  -0.000002
    20  O    0.000980   8.276745   0.000000  -0.000000  -0.000000   0.000000
    21  H    0.000000   0.000000   0.526336  -0.000183  -0.000056   0.000012
    22  H   -0.000076  -0.000000  -0.000183   0.594404   0.005331  -0.004259
    23  H   -0.000000  -0.000000  -0.000056   0.005331   0.556099  -0.031411
    24  H   -0.000002   0.000000   0.000012  -0.004259  -0.031411   0.551417
    25  H   -0.000000  -0.000000  -0.000165   0.004217   0.005077  -0.005009
    26  H    0.000000  -0.000000  -0.000097  -0.000181  -0.003015  -0.002766
    27  H    0.000000   0.000000   0.004944  -0.000100   0.000002   0.000002
    28  H   -0.000004   0.000000   0.000192   0.002639   0.000001   0.000010
    29  H   -0.000001  -0.000000  -0.000002   0.000105  -0.000004   0.000001
    30  H   -0.000005  -0.000000  -0.000007  -0.000028   0.000000   0.000000
    31  H    0.003262  -0.000001  -0.000001   0.006470   0.000007   0.000001
    32  H    0.000048   0.000000  -0.000023   0.006131   0.004906   0.000080
    33  H    0.006571   0.000038  -0.000000   0.000004  -0.000002  -0.000000
    34  H    0.005998  -0.000093  -0.000000   0.000003   0.000005   0.000007
    35  H   -0.005584   0.001271   0.000000  -0.000001   0.000001   0.000003
    36  H    0.001961  -0.000002  -0.000000   0.005020   0.000278   0.001627
    37  H    0.000098   0.000000   0.000000   0.000032   0.001556  -0.000835
    38  H    0.000115  -0.000035  -0.000000   0.000000   0.000000   0.000000
    39  H    0.001357  -0.000018   0.000000  -0.000001  -0.000000  -0.000000
    40  H    0.000126   0.001811   0.000000  -0.000000  -0.000000   0.000000
    41  H    0.002124   0.003784   0.000000  -0.000000   0.000000   0.000000
    42  H    0.007831  -0.042114   0.000000  -0.000000  -0.000000   0.000000
    43  H    0.379692  -0.000356   0.000000   0.000001   0.000000   0.000000
    44  H    0.371382   0.009547   0.000000   0.000001   0.000000   0.000000
    45  H    0.375462   0.000362  -0.000000   0.000128   0.000000  -0.000005
    46  H   -0.001275   0.241324   0.000000  -0.000000   0.000000   0.000000
              25         26         27         28         29         30
     1  C   -0.030985  -0.026701   0.000216  -0.000090  -0.000001   0.000001
     2  O   -0.000020   0.003794  -0.000000   0.000002  -0.000000  -0.000000
     3  C    0.003431   0.005793  -0.002519  -0.005952  -0.000039  -0.000075
     4  C   -0.002753  -0.000134  -0.038114  -0.042688  -0.002910   0.004066
     5  C   -0.002749   0.004189   0.004233  -0.000766   0.000227  -0.000022
     6  C   -0.038911  -0.030584  -0.000135   0.000148   0.000010   0.000011
     7  C    0.366870   0.369190   0.000012  -0.000090  -0.000003  -0.000000
     8  C   -0.000080   0.000008   0.378623   0.378428  -0.035504  -0.032532
     9  C   -0.000002   0.000000  -0.029716  -0.040478   0.378772   0.378543
    10  C    0.000003   0.000001   0.003841  -0.004095  -0.038527  -0.031303
    11  C    0.000064  -0.000066  -0.000113  -0.000901  -0.007268   0.004785
    12  C    0.000000  -0.000000  -0.000095  -0.000027  -0.004142  -0.006242
    13  C   -0.000000  -0.000000   0.000001   0.000003  -0.000008  -0.000006
    14  C   -0.000000  -0.000000  -0.000000   0.000001  -0.000004  -0.000003
    15  C   -0.000033   0.000000   0.000008  -0.000016   0.000035  -0.000120
    16  C    0.000000   0.000000  -0.000001  -0.000008  -0.000539   0.003662
    17  C    0.000000  -0.000000  -0.000000  -0.000000  -0.000017   0.000003
    18  C   -0.000000   0.000000  -0.000000  -0.000000  -0.000003  -0.000005
    19  C   -0.000000   0.000000   0.000000  -0.000004  -0.000001  -0.000005
    20  O   -0.000000  -0.000000   0.000000   0.000000  -0.000000  -0.000000
    21  H   -0.000165  -0.000097   0.004944   0.000192  -0.000002  -0.000007
    22  H    0.004217  -0.000181  -0.000100   0.002639   0.000105  -0.000028
    23  H    0.005077  -0.003015   0.000002   0.000001  -0.000004   0.000000
    24  H   -0.005009  -0.002766   0.000002   0.000010   0.000001   0.000000
    25  H    0.542029  -0.021619   0.000000   0.000012  -0.000000   0.000000
    26  H   -0.021619   0.507214  -0.000000  -0.000001  -0.000000   0.000000
    27  H    0.000000  -0.000000   0.529695  -0.026679  -0.003186  -0.001593
    28  H    0.000012  -0.000001  -0.026679   0.557775   0.004857  -0.005229
    29  H   -0.000000  -0.000000  -0.003186   0.004857   0.564892  -0.031239
    30  H    0.000000   0.000000  -0.001593  -0.005229  -0.031239   0.552902
    31  H   -0.000001   0.000000  -0.000003   0.004421   0.005569  -0.003373
    32  H    0.000009  -0.000002  -0.000054   0.000149   0.005518   0.000036
    33  H   -0.000000   0.000000   0.000002   0.000003   0.004385  -0.000061
    34  H    0.000000   0.000000  -0.000000  -0.000000  -0.000007   0.000001
    35  H    0.000000   0.000000   0.000000  -0.000000   0.000000  -0.000000
    36  H    0.000007   0.000001  -0.000000  -0.000002  -0.000000   0.000003
    37  H    0.000007   0.000000  -0.000000   0.000000  -0.000003   0.000002
    38  H    0.000000  -0.000000   0.000000   0.000002   0.000267   0.000153
    39  H   -0.000000   0.000000   0.000001  -0.000000   0.000084   0.000789
    40  H    0.000000   0.000000   0.000000   0.000000  -0.000000   0.000002
    41  H   -0.000000   0.000000   0.000000  -0.000000  -0.000000   0.000000
    42  H   -0.000000   0.000000   0.000000  -0.000000  -0.000002  -0.000000
    43  H    0.000000  -0.000000  -0.000000   0.000000   0.000000  -0.000000
    44  H    0.000000  -0.000000   0.000000   0.000000   0.000000  -0.000000
    45  H    0.000000   0.000000  -0.000000  -0.000003  -0.000001   0.000002
    46  H   -0.000000   0.000000   0.000000   0.000000   0.000000  -0.000000
              31         32         33         34         35         36
     1  C    0.000003   0.000052   0.000000   0.000000   0.000000  -0.000000
     2  O   -0.000000  -0.000000   0.000000   0.000000  -0.000000  -0.000000
     3  C   -0.000156   0.000327  -0.000002  -0.000000  -0.000000  -0.000006
     4  C   -0.003418  -0.002812  -0.000066   0.000003   0.000001   0.000232
     5  C   -0.002724  -0.042815   0.000184   0.000047  -0.000109  -0.002754
     6  C    0.000162  -0.004104  -0.000001  -0.000030   0.000005  -0.002662
     7  C   -0.000010  -0.000165  -0.000000  -0.000000  -0.000000  -0.000082
     8  C   -0.000125  -0.000166   0.000048   0.000000  -0.000000  -0.000015
     9  C   -0.048323  -0.006011  -0.005456  -0.000029   0.000010  -0.000020
    10  C    0.380326  -0.046217  -0.045345  -0.000324  -0.000114  -0.003237
    11  C   -0.050540   0.375071  -0.006393  -0.003635   0.004133  -0.044925
    12  C   -0.042795  -0.004315   0.380983  -0.007056   0.006628  -0.000416
    13  C   -0.009906  -0.001099  -0.054155  -0.037641  -0.037755  -0.007132
    14  C    0.000391  -0.000527  -0.006566   0.377282   0.370472  -0.035991
    15  C   -0.002796  -0.044839  -0.001099  -0.036418  -0.033111   0.380853
    16  C   -0.003610  -0.000050  -0.044456   0.000054  -0.000230  -0.000016
    17  C   -0.000017   0.000004  -0.001762   0.000075  -0.000004   0.000003
    18  C    0.000078  -0.000060  -0.002150  -0.005865  -0.003587  -0.000051
    19  C    0.003262   0.000048   0.006571   0.005998  -0.005584   0.001961
    20  O   -0.000001   0.000000   0.000038  -0.000093   0.001271  -0.000002
    21  H   -0.000001  -0.000023  -0.000000  -0.000000   0.000000  -0.000000
    22  H    0.006470   0.006131   0.000004   0.000003  -0.000001   0.005020
    23  H    0.000007   0.004906  -0.000002   0.000005   0.000001   0.000278
    24  H    0.000001   0.000080  -0.000000   0.000007   0.000003   0.001627
    25  H   -0.000001   0.000009  -0.000000   0.000000   0.000000   0.000007
    26  H    0.000000  -0.000002   0.000000   0.000000   0.000000   0.000001
    27  H   -0.000003  -0.000054   0.000002  -0.000000   0.000000  -0.000000
    28  H    0.004421   0.000149   0.000003  -0.000000  -0.000000  -0.000002
    29  H    0.005569   0.005518   0.004385  -0.000007   0.000000  -0.000000
    30  H   -0.003373   0.000036  -0.000061   0.000001  -0.000000   0.000003
    31  H    0.611720   0.006078   0.006128   0.000040  -0.000011   0.001661
    32  H    0.006078   0.604395   0.005077   0.002862  -0.000079   0.005488
    33  H    0.006128   0.005077   0.621157   0.005517   0.000038   0.000083
    34  H    0.000040   0.002862   0.005517   0.574002  -0.032439   0.004939
    35  H   -0.000011  -0.000079   0.000038  -0.032439   0.590081  -0.004496
    36  H    0.001661   0.005488   0.000083   0.004939  -0.004496   0.577029
    37  H   -0.000077  -0.005493  -0.000102  -0.004636  -0.001784  -0.032744
    38  H   -0.000125  -0.000001  -0.006773  -0.000004   0.000003   0.000000
    39  H    0.003833   0.000005   0.005267  -0.000005   0.000005  -0.000003
    40  H    0.000001  -0.000000   0.000336  -0.000014   0.000001  -0.000000
    41  H   -0.000014  -0.000000  -0.000056   0.000000  -0.000000  -0.000000
    42  H   -0.000014  -0.000010   0.004970   0.006888  -0.000026  -0.000003
    43  H    0.000360   0.000001  -0.000016  -0.000136  -0.000036  -0.000047
    44  H   -0.000027   0.000002  -0.000113  -0.000005   0.004063   0.000226
    45  H    0.002269  -0.000012  -0.000035  -0.000002  -0.000213   0.002682
    46  H   -0.000000  -0.000000  -0.000002  -0.000048   0.003236  -0.000001
              37         38         39         40         41         42
     1  C   -0.000013   0.000000   0.000000   0.000000   0.000000   0.000000
     2  O   -0.000000  -0.000000   0.000000  -0.000000  -0.000000  -0.000000
     3  C    0.000019   0.000000  -0.000000   0.000000   0.000000  -0.000000
     4  C   -0.000183  -0.000000  -0.000001   0.000000  -0.000000   0.000000
     5  C   -0.007406   0.000001   0.000001  -0.000000  -0.000000  -0.000000
     6  C    0.004260  -0.000000   0.000000   0.000000   0.000000   0.000000
     7  C    0.000148   0.000000  -0.000000  -0.000000  -0.000000  -0.000000
     8  C   -0.000009  -0.000005  -0.000033  -0.000000  -0.000000  -0.000000
     9  C   -0.000116   0.001494  -0.000781  -0.000004   0.000002   0.000007
    10  C    0.004023  -0.001231  -0.004010  -0.000064  -0.000128  -0.000232
    11  C   -0.029290  -0.000089   0.000078   0.000003   0.000002  -0.000011
    12  C    0.000093  -0.026203  -0.039311   0.001811   0.003152  -0.002406
    13  C    0.004541   0.005212  -0.004118   0.004231  -0.003979  -0.068118
    14  C   -0.033449  -0.000138  -0.000016  -0.000142  -0.000131  -0.011121
    15  C    0.380032  -0.000004  -0.000020   0.000003   0.000004   0.000112
    16  C    0.000008   0.378325   0.383887  -0.030785  -0.025721   0.003921
    17  C    0.000003  -0.028059  -0.032717   0.378559   0.371001  -0.054277
    18  C   -0.000077   0.002279   0.002161  -0.027195  -0.031812   0.389046
    19  C    0.000098   0.000115   0.001357   0.000126   0.002124   0.007831
    20  O    0.000000  -0.000035  -0.000018   0.001811   0.003784  -0.042114
    21  H    0.000000  -0.000000   0.000000   0.000000   0.000000   0.000000
    22  H    0.000032   0.000000  -0.000001  -0.000000  -0.000000  -0.000000
    23  H    0.001556   0.000000  -0.000000  -0.000000   0.000000  -0.000000
    24  H   -0.000835   0.000000  -0.000000   0.000000   0.000000   0.000000
    25  H    0.000007   0.000000  -0.000000   0.000000  -0.000000  -0.000000
    26  H    0.000000  -0.000000   0.000000   0.000000   0.000000   0.000000
    27  H   -0.000000   0.000000   0.000001   0.000000   0.000000   0.000000
    28  H    0.000000   0.000002  -0.000000   0.000000  -0.000000  -0.000000
    29  H   -0.000003   0.000267   0.000084  -0.000000  -0.000000  -0.000002
    30  H    0.000002   0.000153   0.000789   0.000002   0.000000  -0.000000
    31  H   -0.000077  -0.000125   0.003833   0.000001  -0.000014  -0.000014
    32  H   -0.005493  -0.000001   0.000005  -0.000000  -0.000000  -0.000010
    33  H   -0.000102  -0.006773   0.005267   0.000336  -0.000056   0.004970
    34  H   -0.004636  -0.000004  -0.000005  -0.000014   0.000000   0.006888
    35  H   -0.001784   0.000003   0.000005   0.000001  -0.000000  -0.000026
    36  H   -0.032744   0.000000  -0.000003  -0.000000  -0.000000  -0.000003
    37  H    0.553779  -0.000000  -0.000000  -0.000000  -0.000000  -0.000005
    38  H   -0.000000   0.549581  -0.033819  -0.006484   0.002521  -0.000125
    39  H   -0.000000  -0.033819   0.565211   0.003391  -0.008886  -0.000159
    40  H   -0.000000  -0.006484   0.003391   0.539141  -0.027171  -0.006710
    41  H   -0.000000   0.002521  -0.008886  -0.027171   0.529635   0.005180
    42  H   -0.000005  -0.000125  -0.000159  -0.006710   0.005180   0.639950
    43  H   -0.000000   0.000003   0.001494  -0.000009   0.000312  -0.000050
    44  H   -0.000023  -0.000001  -0.000006  -0.000006   0.000187   0.000305
    45  H    0.000015  -0.000010   0.000035   0.000000   0.000039  -0.000067
    46  H    0.000003   0.000004   0.000005  -0.000209  -0.000066  -0.000825
              43         44         45         46
     1  C   -0.000000   0.000000   0.000000  -0.000000
     2  O    0.000000  -0.000000  -0.000000  -0.000000
     3  C    0.000000  -0.000000  -0.000000   0.000000
     4  C    0.000000  -0.000000  -0.000001   0.000000
     5  C   -0.000004  -0.000003   0.000075  -0.000000
     6  C   -0.000000   0.000000   0.000002   0.000000
     7  C    0.000000   0.000000  -0.000000   0.000000
     8  C    0.000000  -0.000000   0.000008   0.000000
     9  C   -0.000037   0.000000  -0.000018   0.000000
    10  C   -0.000298   0.000043   0.000997  -0.000005
    11  C    0.000070   0.000033  -0.000358   0.000001
    12  C   -0.005753   0.005919  -0.004629   0.000403
    13  C   -0.029062  -0.031655  -0.031526  -0.005639
    14  C    0.004920  -0.004566  -0.006418   0.002296
    15  C    0.000004  -0.000173   0.001987  -0.000086
    16  C    0.002662  -0.000234  -0.000023  -0.000342
    17  C    0.003396  -0.000129  -0.000308   0.007073
    18  C   -0.004508  -0.008990   0.005052  -0.029886
    19  C    0.379692   0.371382   0.375462  -0.001275
    20  O   -0.000356   0.009547   0.000362   0.241324
    21  H    0.000000   0.000000  -0.000000   0.000000
    22  H    0.000001   0.000001   0.000128  -0.000000
    23  H    0.000000   0.000000   0.000000   0.000000
    24  H    0.000000   0.000000  -0.000005   0.000000
    25  H    0.000000   0.000000   0.000000  -0.000000
    26  H   -0.000000  -0.000000   0.000000   0.000000
    27  H   -0.000000   0.000000  -0.000000   0.000000
    28  H    0.000000   0.000000  -0.000003   0.000000
    29  H    0.000000   0.000000  -0.000001   0.000000
    30  H   -0.000000  -0.000000   0.000002  -0.000000
    31  H    0.000360  -0.000027   0.002269  -0.000000
    32  H    0.000001   0.000002  -0.000012  -0.000000
    33  H   -0.000016  -0.000113  -0.000035  -0.000002
    34  H   -0.000136  -0.000005  -0.000002  -0.000048
    35  H   -0.000036   0.004063  -0.000213   0.003236
    36  H   -0.000047   0.000226   0.002682  -0.000001
    37  H   -0.000000  -0.000023   0.000015   0.000003
    38  H    0.000003  -0.000001  -0.000010   0.000004
    39  H    0.001494  -0.000006   0.000035   0.000005
    40  H   -0.000009  -0.000006   0.000000  -0.000209
    41  H    0.000312   0.000187   0.000039  -0.000066
    42  H   -0.000050   0.000305  -0.000067  -0.000825
    43  H    0.529666  -0.025893  -0.028400   0.000078
    44  H   -0.025893   0.550838  -0.028621   0.002792
    45  H   -0.028400  -0.028621   0.551039  -0.000152
    46  H    0.000078   0.002792  -0.000152   0.375102
 Mulliken charges:
               1
     1  C    0.454205
     2  O   -0.513356
     3  C   -0.274588
     4  C    0.162925
     5  C   -0.175990
     6  C   -0.336885
     7  C   -0.400636
     8  C   -0.381315
     9  C   -0.307092
    10  C   -0.126485
    11  C   -0.119204
    12  C   -0.118858
    13  C   -0.005673
    14  C   -0.308111
    15  C   -0.320330
    16  C   -0.329127
    17  C   -0.344309
    18  C    0.156436
    19  C   -0.499647
    20  O   -0.657492
    21  H    0.176104
    22  H    0.157911
    23  H    0.168624
    24  H    0.169638
    25  H    0.180602
    26  H    0.194975
    27  H    0.180727
    28  H    0.178389
    29  H    0.158689
    30  H    0.166885
    31  H    0.135287
    32  H    0.142616
    33  H    0.133819
    34  H    0.150663
    35  H    0.139631
    36  H    0.152514
    37  H    0.167627
    38  H    0.163146
    39  H    0.156299
    40  H    0.169378
    41  H    0.180022
    42  H    0.128064
    43  H    0.171947
    44  H    0.155108
    45  H    0.160649
    46  H    0.406218
 Sum of Mulliken charges =  -0.00000
 Mulliken charges with hydrogens summed into heavy atoms:
               1
     1  C    0.454205
     2  O   -0.513356
     3  C   -0.098484
     4  C    0.162925
     5  C   -0.018079
     6  C    0.001377
     7  C   -0.025059
     8  C   -0.022199
     9  C    0.018482
    10  C    0.008803
    11  C    0.023412
    12  C    0.014961
    13  C   -0.005673
    14  C   -0.017817
    15  C   -0.000189
    16  C   -0.009682
    17  C    0.005091
    18  C    0.284501
    19  C   -0.011944
    20  O   -0.251273
 Electronic spatial extent (au):  <R**2>=           6858.8813
 Charge=             -0.0000 electrons
 Dipole moment (field-independent basis, Debye):
    X=             -3.3125    Y=             -0.1944    Z=              0.9681  Tot=              3.4565
 Quadrupole moment (field-independent basis, Debye-Ang):
   XX=           -172.5376   YY=           -111.8176   ZZ=           -119.4611
   XY=              1.4131   XZ=              6.5093   YZ=             -0.1415
 Traceless Quadrupole moment (field-independent basis, Debye-Ang):
   XX=            -37.9322   YY=             22.7878   ZZ=             15.1443
   XY=              1.4131   XZ=              6.5093   YZ=             -0.1415
 Octapole moment (field-independent basis, Debye-Ang**2):
  XXX=           -176.2718  YYY=            -13.8584  ZZZ=             -1.6280  XYY=             -5.6564
  XXY=              4.6247  XXZ=             30.6979  XZZ=             -3.0856  YZZ=             -1.3793
  YYZ=             -0.9262  XYZ=             -0.5733
 Hexadecapole moment (field-independent basis, Debye-Ang**3):
 XXXX=          -9466.9701 YYYY=          -1396.9775 ZZZZ=           -413.6745 XXXY=             15.6364
 XXXZ=            182.3999 YYYX=             84.4508 YYYZ=             -3.2531 ZZZX=              5.0545
 ZZZY=              3.9530 XXYY=          -1287.3900 XXZZ=          -1245.3132 YYZZ=           -310.8880
 XXYZ=            -15.5045 YYXZ=             -5.7088 ZZXY=             -6.3147
 N-N= 1.665938852280D+03 E-N=-5.308664127955D+03  KE= 8.439338612625D+02

 **********************************************************************

            Electrostatic Properties Using The SCF Density.

 **********************************************************************

       Atomic Center    1 is at   4.656904 -0.178923 -0.134987
       Atomic Center    2 is at   5.864807 -0.180987 -0.459356
       Atomic Center    3 is at   3.833070  0.999775 -0.176031
       Atomic Center    4 is at   2.512129  0.937435  0.137146
       Atomic Center    5 is at   1.781669 -0.366661  0.353109
       Atomic Center    6 is at   2.608212 -1.579991 -0.064364
       Atomic Center    7 is at   4.049253 -1.440105  0.387806
       Atomic Center    8 is at   1.715078  2.178980  0.388774
       Atomic Center    9 is at   0.287794  2.150670 -0.173745
       Atomic Center   10 is at  -0.431211  0.850149  0.194651
       Atomic Center   11 is at   0.393538 -0.348729 -0.324239
       Atomic Center   12 is at  -1.851965  0.758146 -0.348867
       Atomic Center   13 is at  -2.545276 -0.565653  0.031456
       Atomic Center   14 is at  -1.767597 -1.714397 -0.607723
       Atomic Center   15 is at  -0.306070 -1.710163 -0.153735
       Atomic Center   16 is at  -2.881120  1.836034  0.021022
       Atomic Center   17 is at  -4.249480  1.150807 -0.237742
       Atomic Center   18 is at  -3.937300 -0.322583 -0.578341
       Atomic Center   19 is at  -2.677055 -0.769386  1.548950
       Atomic Center   20 is at  -4.980620 -1.160405 -0.117861
       Atomic Center   21 is at   4.330889  1.947668 -0.366558
       Atomic Center   22 is at   1.599290 -0.412818  1.438571
       Atomic Center   23 is at   2.574004 -1.690543 -1.158032
       Atomic Center   24 is at   2.193847 -2.498059  0.361592
       Atomic Center   25 is at   4.091473 -1.379373  1.484834
       Atomic Center   26 is at   4.649326 -2.295791  0.079431
       Atomic Center   27 is at   2.260595  3.066466  0.053412
       Atomic Center   28 is at   1.664097  2.249755  1.488821
       Atomic Center   29 is at   0.311941  2.259975 -1.269358
       Atomic Center   30 is at  -0.258100  3.016716  0.217292
       Atomic Center   31 is at  -0.465305  0.788050  1.291452
       Atomic Center   32 is at   0.544089 -0.188360 -1.407218
       Atomic Center   33 is at  -1.776076  0.757027 -1.450041
       Atomic Center   34 is at  -1.815361 -1.603219 -1.702250
       Atomic Center   35 is at  -2.226035 -2.679613 -0.364920
       Atomic Center   36 is at  -0.253010 -2.015136  0.897721
       Atomic Center   37 is at   0.240736 -2.472287 -0.723181
       Atomic Center   38 is at  -2.754631  2.743702 -0.572057
       Atomic Center   39 is at  -2.771591  2.133204  1.070715
       Atomic Center   40 is at  -4.796452  1.633267 -1.053902
       Atomic Center   41 is at  -4.892960  1.172902  0.647465
       Atomic Center   42 is at  -3.839065 -0.425368 -1.673159
       Atomic Center   43 is at  -3.184974  0.072440  2.030063
       Atomic Center   44 is at  -3.276792 -1.663075  1.742887
       Atomic Center   45 is at  -1.712245 -0.904403  2.042414
       Atomic Center   46 is at  -4.654624 -2.074432 -0.067082
 -----------------------------------------------------------------

              Electrostatic Properties (Atomic Units)

 -----------------------------------------------------------------
    Center     Electric         -------- Electric Field --------
               Potential          X             Y             Z
 -----------------------------------------------------------------
    1 Atom    -14.672897      0.004905     -0.003150     -0.001690
    2 Atom    -22.353590      0.099903     -0.000779     -0.027139
    3 Atom    -14.743967     -0.009356     -0.000286      0.002514
    4 Atom    -14.707880      0.011716      0.000691     -0.003300
    5 Atom    -14.717654     -0.002232     -0.003289     -0.001836
    6 Atom    -14.731192     -0.000213     -0.001201      0.000004
    7 Atom    -14.742586      0.001396     -0.001383     -0.002404
    8 Atom    -14.723608     -0.001147      0.001962     -0.000730
    9 Atom    -14.729324     -0.002655     -0.001387     -0.000690
   10 Atom    -14.728338     -0.000777     -0.000433     -0.001155
   11 Atom    -14.723152     -0.001962      0.001171      0.000336
   12 Atom    -14.735305     -0.000649     -0.001365      0.002556
   13 Atom    -14.730873     -0.000876      0.002190     -0.002355
   14 Atom    -14.734493     -0.001369      0.004036      0.000673
   15 Atom    -14.732429      0.000160     -0.000118     -0.000296
   16 Atom    -14.738535      0.001316     -0.000064      0.000102
   17 Atom    -14.744649     -0.002673     -0.001452      0.000914
   18 Atom    -14.692065      0.019003      0.013765     -0.006109
   19 Atom    -14.745140     -0.000602      0.000498     -0.001406
   20 Atom    -22.312361     -0.104585      0.038723      0.026470
   21 Atom     -1.102642      0.015327      0.027927     -0.005977
   22 Atom     -1.103004     -0.006129     -0.005913      0.032586
   23 Atom     -1.115810     -0.000814     -0.003772     -0.029059
   24 Atom     -1.116133     -0.013254     -0.025350      0.010176
   25 Atom     -1.105522      0.002225     -0.002195      0.031011
   26 Atom     -1.118957      0.022231     -0.021517     -0.009254
   27 Atom     -1.108172      0.014879      0.024420     -0.009636
   28 Atom     -1.100633     -0.003514      0.007271      0.028993
   29 Atom     -1.115964      0.000593      0.003949     -0.028024
   30 Atom     -1.116169     -0.016568      0.023383      0.009206
   31 Atom     -1.118497     -0.003617     -0.001092      0.032211
   32 Atom     -1.117413      0.004835      0.003551     -0.028766
   33 Atom     -1.122836      0.002454      0.000565     -0.030277
   34 Atom     -1.118001     -0.001751      0.000941     -0.028534
   35 Atom     -1.115580     -0.010805     -0.029641      0.005583
   36 Atom     -1.117358      0.002344     -0.010637      0.029386
   37 Atom     -1.117961      0.014221     -0.019998     -0.013345
   38 Atom     -1.124826      0.003129      0.026174     -0.016833
   39 Atom     -1.123961      0.001716      0.008214      0.028540
   40 Atom     -1.128261     -0.016407      0.012461     -0.020155
   41 Atom     -1.127732     -0.019144     -0.000917      0.022475
   42 Atom     -1.132316      0.000247     -0.003945     -0.030424
   43 Atom     -1.118250     -0.014790      0.020355      0.014355
   44 Atom     -1.118522     -0.017658     -0.022333      0.009873
   45 Atom     -1.116517      0.025413     -0.003710      0.015017
   46 Atom     -0.995438      0.009519     -0.037094      0.000960
 -----------------------------------------------------------------
 -----------------------------------------------------
    Center         ---- Electric Field Gradient ----
                     XX            YY            ZZ
 -----------------------------------------------------
    1 Atom     -493.333315   -493.245620   -493.898329
    2 Atom    -1217.243307  -1214.702691  -1217.526206
    3 Atom     -493.078746   -493.134440   -493.359609
    4 Atom     -493.188905   -493.263304   -493.804387
    5 Atom     -492.752215   -492.791955   -492.772228
    6 Atom     -492.621373   -492.602191   -492.588455
    7 Atom     -492.719166   -492.729403   -492.740725
    8 Atom     -492.579591   -492.607052   -492.589230
    9 Atom     -492.652357   -492.597992   -492.601933
   10 Atom     -492.751369   -492.773734   -492.751454
   11 Atom     -492.833729   -492.802837   -492.805490
   12 Atom     -492.898206   -492.915954   -492.897148
   13 Atom     -492.930075   -492.936757   -492.977910
   14 Atom     -492.717282   -492.687949   -492.696568
   15 Atom     -492.634780   -492.630986   -492.600263
   16 Atom     -492.644411   -492.586418   -492.565237
   17 Atom     -492.654114   -492.677123   -492.598146
   18 Atom     -492.839888   -492.783414   -492.649765
   19 Atom     -492.540553   -492.549117   -492.588513
   20 Atom    -1214.459156  -1215.832458  -1212.875022
   21 Atom       -1.692634     -1.943839     -1.600598
   22 Atom       -1.633577     -1.625990     -2.022602
   23 Atom       -1.620921     -1.620064     -2.031551
   24 Atom       -1.695088     -1.934001     -1.693185
   25 Atom       -1.601073     -1.602699     -2.022485
   26 Atom       -1.743362     -1.885289     -1.644991
   27 Atom       -1.728872     -1.902612     -1.655078
   28 Atom       -1.605705     -1.608401     -2.014360
   29 Atom       -1.618537     -1.620739     -2.029281
   30 Atom       -1.732872     -1.892086     -1.677592
   31 Atom       -1.641025     -1.640940     -2.054680
   32 Atom       -1.638293     -1.640324     -2.016109
   33 Atom       -1.646956     -1.640547     -2.043094
   34 Atom       -1.623871     -1.625952     -2.032546
   35 Atom       -1.712032     -1.966541     -1.649468
   36 Atom       -1.631810     -1.660824     -2.024501
   37 Atom       -1.734662     -1.831050     -1.738632
   38 Atom       -1.635774     -1.934239     -1.761156
   39 Atom       -1.628924     -1.654025     -2.020389
   40 Atom       -1.731010     -1.710724     -1.867177
   41 Atom       -1.757480     -1.609564     -1.896722
   42 Atom       -1.677457     -1.676309     -2.065329
   43 Atom       -1.692252     -1.862733     -1.690302
   44 Atom       -1.734432     -1.904275     -1.627183
   45 Atom       -1.962494     -1.616172     -1.703786
   46 Atom       -1.523865     -2.012830     -1.412353
 -----------------------------------------------------
 -----------------------------------------------------
    Center         ---- Electric Field Gradient ----
                     XY            XZ            YZ
 -----------------------------------------------------
    1 Atom       -0.048305     -0.159174     -0.176265
    2 Atom       -0.134848     -0.070126     -0.719480
    3 Atom       -0.011234     -0.065005     -0.024675
    4 Atom       -0.001554     -0.130056     -0.005490
    5 Atom       -0.024139     -0.012954      0.000626
    6 Atom        0.020671     -0.004272     -0.022511
    7 Atom       -0.012935     -0.038349      0.003961
    8 Atom        0.026576     -0.021510     -0.013383
    9 Atom       -0.008555     -0.023830      0.018800
   10 Atom       -0.001600      0.007655     -0.004745
   11 Atom       -0.009415     -0.020668     -0.008176
   12 Atom        0.012168     -0.009639      0.006716
   13 Atom        0.000946      0.008798      0.003697
   14 Atom       -0.014456     -0.004528     -0.012038
   15 Atom       -0.020475     -0.009531      0.013108
   16 Atom       -0.003817     -0.002132     -0.016423
   17 Atom       -0.020411     -0.016955     -0.035564
   18 Atom       -0.195965      0.105347      0.109224
   19 Atom       -0.001964     -0.000114      0.009486
   20 Atom       -0.275830      0.650318      0.641141
   21 Atom       -0.173278      0.038029      0.068933
   22 Atom       -0.002790      0.069111      0.019638
   23 Atom        0.000653     -0.014000     -0.042422
   24 Atom       -0.138017      0.064677      0.142039
   25 Atom       -0.002888     -0.014237     -0.021635
   26 Atom        0.190591      0.067869     -0.099570
   27 Atom       -0.172219      0.067056      0.109410
   28 Atom        0.004284      0.021688     -0.028054
   29 Atom       -0.003236      0.008713      0.040325
   30 Atom        0.168404      0.075977     -0.122472
   31 Atom       -0.002120      0.012675      0.024219
   32 Atom       -0.008095      0.053492      0.057220
   33 Atom       -0.000158      0.027735     -0.001055
   34 Atom        0.003645     -0.017978      0.042297
   35 Atom       -0.159819      0.041664      0.085219
   36 Atom        0.003401     -0.020811      0.114176
   37 Atom        0.145672      0.109812     -0.153868
   38 Atom       -0.043005      0.027432      0.201211
   39 Atom       -0.011756     -0.039885     -0.110482
   40 Atom        0.094738     -0.162554      0.142985
   41 Atom        0.006776      0.204478     -0.010129
   42 Atom       -0.001832      0.037918     -0.037338
   43 Atom        0.158078      0.088794     -0.145963
   44 Atom       -0.200955      0.041635      0.061392
   45 Atom        0.048869     -0.175187      0.024572
   46 Atom        0.197754      0.003882      0.038665
 -----------------------------------------------------
 -----------------------------------------------------
    Center         ---- Electric Field Gradient ----
                   ----       Eigenvalues       ----
 -----------------------------------------------------
    1 Atom     -493.985242   -493.291600   -493.200422
    2 Atom    -1217.719994  -1217.227133  -1214.525077
    3 Atom     -493.376826   -493.132009   -493.063960
    4 Atom     -493.830798   -493.263249   -493.162550
    5 Atom     -492.804180   -492.775485   -492.736733
    6 Atom     -492.636453   -492.608664   -492.566901
    7 Atom     -492.770337   -492.732616   -492.686340
    8 Atom     -492.623237   -492.604750   -492.547886
    9 Atom     -492.661854   -492.616025   -492.574402
   10 Atom     -492.774702   -492.758760   -492.743094
   11 Atom     -492.847921   -492.800773   -492.793361
   12 Atom     -492.925980   -492.897929   -492.887399
   13 Atom     -492.979758   -492.936776   -492.928208
   14 Atom     -492.726005   -492.698743   -492.677052
   15 Atom     -492.653514   -492.623455   -492.589060
   16 Atom     -492.644798   -492.594983   -492.556286
   17 Atom     -492.703678   -492.642330   -492.583375
   18 Atom     -493.064742   -492.620043   -492.588283
   19 Atom     -492.590680   -492.547494   -492.540009
   20 Atom    -1216.072444  -1214.534302  -1212.559890
   21 Atom       -2.046146     -1.604575     -1.586350
   22 Atom       -2.035475     -1.625129     -1.621565
   23 Atom       -2.036342     -1.621237     -1.614958
   24 Atom       -2.062953     -1.632019     -1.627302
   25 Atom       -2.024085     -1.603296     -1.598876
   26 Atom       -2.053262     -1.611470     -1.608910
   27 Atom       -2.050296     -1.622860     -1.613406
   28 Atom       -2.017458     -1.608449     -1.602560
   29 Atom       -2.033418     -1.620065     -1.615074
   30 Atom       -2.053940     -1.626585     -1.622025
   31 Atom       -2.056486     -1.641564     -1.638595
   32 Atom       -2.032062     -1.631821     -1.630843
   33 Atom       -2.045030     -1.645036     -1.640533
   34 Atom       -2.037705     -1.624261     -1.620404
   35 Atom       -2.065222     -1.635029     -1.627789
   36 Atom       -2.058403     -1.632228     -1.626504
   37 Atom       -2.050771     -1.629580     -1.623992
   38 Atom       -2.072685     -1.630177     -1.628308
   39 Atom       -2.055182     -1.625091     -1.623065
   40 Atom       -2.059646     -1.626431     -1.622833
   41 Atom       -2.043448     -1.611172     -1.609146
   42 Atom       -2.072455     -1.678740     -1.667901
   43 Atom       -2.040448     -1.607124     -1.597716
   44 Atom       -2.050512     -1.614231     -1.601147
   45 Atom       -2.057684     -1.615373     -1.609394
   46 Atom       -2.084636     -1.459480     -1.404932
 -----------------------------------------------------
 -----------------------------------------------------
    Center         ---- Electric Field Gradient ----
                       ( tensor representation )
                   3XX-RR        3YY-RR        3ZZ-RR
 -----------------------------------------------------
    1 Atom        0.159106      0.246801     -0.405908
    2 Atom       -0.752572      1.788043     -1.035471
    3 Atom        0.112186      0.056491     -0.168677
    4 Atom        0.229960      0.155561     -0.385522
    5 Atom        0.019917     -0.019822     -0.000095
    6 Atom       -0.017367      0.001816      0.015551
    7 Atom        0.010599      0.000362     -0.010960
    8 Atom        0.012367     -0.015094      0.002727
    9 Atom       -0.034930      0.019435      0.015495
   10 Atom        0.007484     -0.014882      0.007398
   11 Atom       -0.019711      0.011182      0.008529
   12 Atom        0.005563     -0.012185      0.006622
   13 Atom        0.018172      0.011490     -0.029663
   14 Atom       -0.016683      0.012651      0.004032
   15 Atom       -0.012770     -0.008977      0.021747
   16 Atom       -0.045722      0.012270      0.033452
   17 Atom       -0.010986     -0.033995      0.044981
   18 Atom       -0.082199     -0.025725      0.107924
   19 Atom        0.018841      0.010278     -0.029119
   20 Atom       -0.070278     -1.443579      1.513857
   21 Atom        0.053056     -0.198149      0.145092
   22 Atom        0.127146      0.134733     -0.261879
   23 Atom        0.136591      0.137448     -0.274039
   24 Atom        0.079003     -0.159910      0.080907
   25 Atom        0.141013      0.139386     -0.280399
   26 Atom        0.014518     -0.127408      0.112890
   27 Atom        0.033315     -0.140425      0.107110
   28 Atom        0.137117      0.134421     -0.271538
   29 Atom        0.137648      0.135447     -0.273095
   30 Atom        0.034645     -0.124569      0.089924
   31 Atom        0.137857      0.137942     -0.275798
   32 Atom        0.126615      0.124585     -0.251200
   33 Atom        0.129910      0.136319     -0.266229
   34 Atom        0.136918      0.134838     -0.271756
   35 Atom        0.063982     -0.190527      0.126545
   36 Atom        0.140569      0.111554     -0.252123
   37 Atom        0.033453     -0.062935      0.029483
   38 Atom        0.141282     -0.157182      0.015900
   39 Atom        0.138855      0.113754     -0.252609
   40 Atom        0.038627      0.058913     -0.097541
   41 Atom       -0.002892      0.145025     -0.142133
   42 Atom        0.128908      0.130056     -0.258963
   43 Atom        0.056177     -0.114304      0.058127
   44 Atom        0.020865     -0.148978      0.128114
   45 Atom       -0.201677      0.144645      0.057032
   46 Atom        0.125818     -0.363147      0.237329
 -----------------------------------------------------
 -----------------------------------------------------
    Center         ---- Electric Field Gradient ----
                       ( tensor representation )
                   ----       Eigenvalues       ----
 -----------------------------------------------------
    1 Atom       -0.492821      0.200821      0.291999
    2 Atom       -1.229259     -0.736399      1.965658
    3 Atom       -0.185894      0.058922      0.126972
    4 Atom       -0.411932      0.155617      0.256315
    5 Atom       -0.032047     -0.003352      0.035400
    6 Atom       -0.032447     -0.004658      0.037105
    7 Atom       -0.040573     -0.002851      0.043424
    8 Atom       -0.031280     -0.012792      0.044072
    9 Atom       -0.044427      0.001402      0.043025
   10 Atom       -0.015850      0.000092      0.015758
   11 Atom       -0.033903      0.013246      0.020657
   12 Atom       -0.022211      0.005840      0.016370
   13 Atom       -0.031510      0.011471      0.020039
   14 Atom       -0.025405      0.001857      0.023548
   15 Atom       -0.031504     -0.001446      0.032950
   16 Atom       -0.046109      0.003706      0.042403
   17 Atom       -0.060551      0.000798      0.059753
   18 Atom       -0.307053      0.137646      0.169407
   19 Atom       -0.031286      0.011900      0.019385
   20 Atom       -1.683565     -0.145423      1.828988
   21 Atom       -0.300455      0.141115      0.159340
   22 Atom       -0.274752      0.135594      0.139158
   23 Atom       -0.278830      0.136276      0.142554
   24 Atom       -0.288862      0.142072      0.146790
   25 Atom       -0.281999      0.138790      0.143209
   26 Atom       -0.295381      0.146410      0.148971
   27 Atom       -0.288109      0.139327      0.148781
   28 Atom       -0.274636      0.134373      0.140263
   29 Atom       -0.277232      0.136121      0.141112
   30 Atom       -0.286423      0.140932      0.145492
   31 Atom       -0.277604      0.137317      0.140287
   32 Atom       -0.267153      0.133088      0.134065
   33 Atom       -0.268164      0.131830      0.136333
   34 Atom       -0.276915      0.136529      0.140386
   35 Atom       -0.289209      0.140984      0.148225
   36 Atom       -0.286025      0.140151      0.145874
   37 Atom       -0.282657      0.138535      0.144122
   38 Atom       -0.295628      0.146880      0.148749
   39 Atom       -0.287403      0.142689      0.144714
   40 Atom       -0.290010      0.143205      0.146804
   41 Atom       -0.288859      0.143417      0.145443
   42 Atom       -0.266090      0.127625      0.138464
   43 Atom       -0.292019      0.141305      0.150713
   44 Atom       -0.295215      0.141065      0.154150
   45 Atom       -0.296867      0.145444      0.151423
   46 Atom       -0.434953      0.190203      0.244750
 -----------------------------------------------------
 Unable to Open any file for archive entry.
 1\1\GINC-EXP-1-56\SP\RwB97XD\6-31G(d)\C18H26O2\HKLEM\12-Aug-2024\0\\# 
 wb97xd 6-31G(d) prop=efg\\19nt_xstal_distance_cutoff4_ligand_conf_1\\0
 ,1\C,0,-3.4149,-0.9471,-0.1878\O,0,-4.5217,-1.0036,0.3919\C,0,-2.6511,
 0.266,-0.3091\C,0,-1.429,0.263,-0.9035\C,0,-0.7104,-1.0068,-1.2935\C,0
 ,-1.3753,-2.2574,-0.7247\C,0,-2.8848,-2.1775,-0.8498\C,0,-0.7578,1.539
 5,-1.3036\C,0,0.7578,1.5698,-1.0661\C,0,1.4318,0.304,-1.6023\C,0,0.790
 2,-0.9327,-0.9347\C,0,2.9395,0.2705,-1.3829\C,0,3.5868,-1.0196,-1.9255
 \C,0,3.0153,-2.2049,-1.15\C,0,1.491,-2.2614,-1.2745\C,0,3.8179,1.3943,
 -1.9515\C,0,5.2367,0.7676,-2.0077\C,0,5.0672,-0.72,-1.63\C,0,3.3923,-1
 .2082,-3.4382\O,0,6.0183,-1.5089,-2.3196\H,0,-3.1338,1.1902,-0.0001\H,
 0,-0.7677,-1.0384,-2.3932\H,0,-1.0986,-2.373,0.3334\H,0,-1.0266,-3.154
 ,-1.2448\H,0,-3.168,-2.112,-1.9102\H,0,-3.3674,-3.0603,-0.4313\H,0,-1.
 2529,2.4004,-0.8438\H,0,-0.9512,1.6191,-2.3871\H,0,0.969,1.6713,0.01\H
 ,0,1.1691,2.4611,-1.5533\H,0,1.2281,0.2501,-2.681\H,0,0.8733,-0.7856,0
 .1574\H,0,3.106,0.2594,-0.2918\H,0,3.2963,-2.0984,-0.0906\H,0,3.4489,-
 3.1478,-1.5017\H,0,1.2222,-2.562,-2.2937\H,0,1.1135,-3.05,-0.6114\H,0,
 3.7868,2.292,-1.3312\H,0,3.4697,1.6928,-2.9474\H,0,5.9284,1.2684,-1.32
 3\H,0,5.6699,0.823,-3.0114\H,0,5.2147,-0.8336,-0.5418\H,0,3.7479,-0.34
 22,-4.0054\H,0,3.9714,-2.0738,-3.7719\H,0,2.3494,-1.382,-3.7116\H,0,5.
 7269,-2.4359,-2.3122\\Version=ES64L-G16RevC.01\State=1-A\HF=-851.79229
 18\RMSD=4.225e-09\Dipole=1.1906319,-0.0174959,-0.6568351\Quadrupole=-2
 4.1011617,16.761794,7.3393677,-2.8856649,12.7251653,1.0030192\PG=C01 [
 X(C18H26O2)]\\@
 The archive entry for this job was punched.


 "WHERE SHALL I START, PLEASE YOUR MAJESTY?" HE ASKED.
 "BEGIN AT THE BEGINNING," THE KING SAID GRAVELY,
 "AND GO ON TILL YOU COME TO THE END: THEN STOP." 

                                      -- LEWIS CARROLL
 Job cpu time:       0 days  0 hours 10 minutes 40.6 seconds.
 Elapsed time:       0 days  0 hours  0 minutes 27.6 seconds.
 File lengths (MBytes):  RWF=     71 Int=      0 D2E=      0 Chk=      8 Scr=      1
 Normal termination of Gaussian 16 at Mon Aug 12 07:11:05 2024.
