 Entering Gaussian System, Link 0=g16
 Initial command:
 /cm/shared/apps/spack/cpu/opt/spack/linux-centos8-zen/gcc-8.3.1/gaussian-16.C.01-po5bqktfeugvmjyga3v7eigbecnokxng/g16/l1.exe "/scratch/hklem/job_32994911/Gau-1760069.inp" -scrdir="/scratch/hklem/job_32994911/"
 Entering Link 1 = /cm/shared/apps/spack/cpu/opt/spack/linux-centos8-zen/gcc-8.3.1/gaussian-16.C.01-po5bqktfeugvmjyga3v7eigbecnokxng/g16/l1.exe PID=   1760072.
  
 Copyright (c) 1988-2019, Gaussian, Inc.  All Rights Reserved.
  
 This is part of the Gaussian(R) 16 program.  It is based on
 the Gaussian(R) 09 system (copyright 2009, Gaussian, Inc.),
 the Gaussian(R) 03 system (copyright 2003, Gaussian, Inc.),
 the Gaussian(R) 98 system (copyright 1998, Gaussian, Inc.),
 the Gaussian(R) 94 system (copyright 1995, Gaussian, Inc.),
 the Gaussian 92(TM) system (copyright 1992, Gaussian, Inc.),
 the Gaussian 90(TM) system (copyright 1990, Gaussian, Inc.),
 the Gaussian 88(TM) system (copyright 1988, Gaussian, Inc.),
 the Gaussian 86(TM) system (copyright 1986, Carnegie Mellon
 University), and the Gaussian 82(TM) system (copyright 1983,
 Carnegie Mellon University). Gaussian is a federally registered
 trademark of Gaussian, Inc.
  
 This software contains proprietary and confidential information,
 including trade secrets, belonging to Gaussian, Inc.
  
 This software is provided under written license and may be
 used, copied, transmitted, or stored only in accord with that
 written license.
  
 The following legend is applicable only to US Government
 contracts under FAR:
  
                    RESTRICTED RIGHTS LEGEND
  
 Use, reproduction and disclosure by the US Government is
 subject to restrictions as set forth in subparagraphs (a)
 and (c) of the Commercial Computer Software - Restricted
 Rights clause in FAR 52.227-19.
  
 Gaussian, Inc.
 340 Quinnipiac St., Bldg. 40, Wallingford CT 06492
  
  
 ---------------------------------------------------------------
 Warning -- This program may not be used in any manner that
 competes with the business of Gaussian, Inc. or will provide
 assistance to any competitor of Gaussian, Inc.  The licensee
 of this program is prohibited from giving any competitor of
 Gaussian, Inc. access to this program.  By using this program,
 the user acknowledges that Gaussian, Inc. is engaged in the
 business of creating and licensing software in the field of
 computational chemistry and represents and warrants to the
 licensee that it is not a competitor of Gaussian, Inc. and that
 it will not use this program in any manner prohibited above.
 ---------------------------------------------------------------
  

 Cite this work as:
 Gaussian 16, Revision C.01,
 M. J. Frisch, G. W. Trucks, H. B. Schlegel, G. E. Scuseria, 
 M. A. Robb, J. R. Cheeseman, G. Scalmani, V. Barone, 
 G. A. Petersson, H. Nakatsuji, X. Li, M. Caricato, A. V. Marenich, 
 J. Bloino, B. G. Janesko, R. Gomperts, B. Mennucci, H. P. Hratchian, 
 J. V. Ortiz, A. F. Izmaylov, J. L. Sonnenberg, D. Williams-Young, 
 F. Ding, F. Lipparini, F. Egidi, J. Goings, B. Peng, A. Petrone, 
 T. Henderson, D. Ranasinghe, V. G. Zakrzewski, J. Gao, N. Rega, 
 G. Zheng, W. Liang, M. Hada, M. Ehara, K. Toyota, R. Fukuda, 
 J. Hasegawa, M. Ishida, T. Nakajima, Y. Honda, O. Kitao, H. Nakai, 
 T. Vreven, K. Throssell, J. A. Montgomery, Jr., J. E. Peralta, 
 F. Ogliaro, M. J. Bearpark, J. J. Heyd, E. N. Brothers, K. N. Kudin, 
 V. N. Staroverov, T. A. Keith, R. Kobayashi, J. Normand, 
 K. Raghavachari, A. P. Rendell, J. C. Burant, S. S. Iyengar, 
 J. Tomasi, M. Cossi, J. M. Millam, M. Klene, C. Adamo, R. Cammi, 
 J. W. Ochterski, R. L. Martin, K. Morokuma, O. Farkas, 
 J. B. Foresman, and D. J. Fox, Gaussian, Inc., Wallingford CT, 2019.
 
 ******************************************
 Gaussian 16:  ES64L-G16RevC.01  3-Jul-2019
                12-Aug-2024 
 ******************************************
 %nprocshared=24
 Will use up to   24 processors via shared memory.
 %mem=48GB
 --------------------------
 # wb97xd 6-31G(d) prop=efg
 --------------------------
 1/38=1,172=1/1;
 2/12=2,17=6,18=5,40=1/2;
 3/5=1,6=6,7=1,11=2,25=1,30=1,74=-58/1,2,3;
 4//1;
 5/5=2,38=5/2;
 6/7=2,8=2,9=2,10=2,14=1,28=1/1,2;
 99/5=1,9=1/99;
 ---------------------------------------------
 19nt_xstal_distance_cutoff6_xtb_ligand_conf_1
 ---------------------------------------------
 Symbolic Z-matrix:
 Charge =  0 Multiplicity = 1
 C                     43.7844   42.2424   31.5135 
 O                     43.745    41.2379   32.2316 
 C                     43.4989   43.563    31.982 
 C                     43.5909   44.6694   31.2078 
 C                     44.103    44.6061   29.7968 
 C                     44.9016   43.3185   29.5749 
 C                     44.094    42.1207   30.0481 
 C                     43.0555   45.9583   31.6922 
 C                     43.8143   47.1912   31.2179 
 C                     44.0621   47.1209   29.7147 
 C                     44.9043   45.8682   29.419 
 C                     44.806    48.355    29.2226 
 C                     45.1776   48.2968   27.7342 
 C                     46.0831   47.0911   27.5074 
 C                     45.3719   45.8143   27.9588 
 C                     44.137    49.7234   29.3482 
 C                     45.0057   50.6178   28.4449 
 C                     45.8713   49.6676   27.59 
 C                     43.9714   48.2414   26.7898 
 O                     45.975    50.1547   26.2691 
 H                     43.1429   43.6491   32.9999 
 H                     43.2098   44.5669   29.1578 
 H                     45.8428   43.3714   30.1293 
 H                     45.1396   43.1916   28.5187 
 H                     43.1332   42.1069   29.5245 
 H                     44.5992   41.1742   29.855 
 H                     42.9642   45.9541   32.7782 
 H                     42.0277   45.9994   31.2887 
 H                     44.7711   47.2623   31.7433 
 H                     43.2374   48.083    31.4595 
 H                     43.0939   47.0364   29.2132 
 H                     45.7958   45.9085   30.0567 
 H                     45.7507   48.4049   29.7787 
 H                     47.0098   47.2166   28.0727 
 H                     46.342    46.9964   26.4503 
 H                     44.5108   45.6411   27.311 
 H                     46.0623   44.9797   27.8257 
 H                     44.1178   50.0872   30.3733 
 H                     43.1097   49.6743   28.9886 
 H                     45.6424   51.2692   29.0404 
 H                     44.4081   51.2444   27.7839 
 H                     46.8778   49.5924   28.0264 
 H                     43.1884   47.595    27.1728 
 H                     43.5538   49.2325   26.6417 
 H                     44.2923   47.8595   25.8238 
 H                     46.4516   49.4946   25.749 
 
                          Input orientation:                          
 ---------------------------------------------------------------------
 Center     Atomic      Atomic             Coordinates (Angstroms)
 Number     Number       Type             X           Y           Z
 ---------------------------------------------------------------------
      1          6           0       43.784400   42.242400   31.513500
      2          8           0       43.745000   41.237900   32.231600
      3          6           0       43.498900   43.563000   31.982000
      4          6           0       43.590900   44.669400   31.207800
      5          6           0       44.103000   44.606100   29.796800
      6          6           0       44.901600   43.318500   29.574900
      7          6           0       44.094000   42.120700   30.048100
      8          6           0       43.055500   45.958300   31.692200
      9          6           0       43.814300   47.191200   31.217900
     10          6           0       44.062100   47.120900   29.714700
     11          6           0       44.904300   45.868200   29.419000
     12          6           0       44.806000   48.355000   29.222600
     13          6           0       45.177600   48.296800   27.734200
     14          6           0       46.083100   47.091100   27.507400
     15          6           0       45.371900   45.814300   27.958800
     16          6           0       44.137000   49.723400   29.348200
     17          6           0       45.005700   50.617800   28.444900
     18          6           0       45.871300   49.667600   27.590000
     19          6           0       43.971400   48.241400   26.789800
     20          8           0       45.975000   50.154700   26.269100
     21          1           0       43.142900   43.649100   32.999900
     22          1           0       43.209800   44.566900   29.157800
     23          1           0       45.842800   43.371400   30.129300
     24          1           0       45.139600   43.191600   28.518700
     25          1           0       43.133200   42.106900   29.524500
     26          1           0       44.599200   41.174200   29.855000
     27          1           0       42.964200   45.954100   32.778200
     28          1           0       42.027700   45.999400   31.288700
     29          1           0       44.771100   47.262300   31.743300
     30          1           0       43.237400   48.083000   31.459500
     31          1           0       43.093900   47.036400   29.213200
     32          1           0       45.795800   45.908500   30.056700
     33          1           0       45.750700   48.404900   29.778700
     34          1           0       47.009800   47.216600   28.072700
     35          1           0       46.342000   46.996400   26.450300
     36          1           0       44.510800   45.641100   27.311000
     37          1           0       46.062300   44.979700   27.825700
     38          1           0       44.117800   50.087200   30.373300
     39          1           0       43.109700   49.674300   28.988600
     40          1           0       45.642400   51.269200   29.040400
     41          1           0       44.408100   51.244400   27.783900
     42          1           0       46.877800   49.592400   28.026400
     43          1           0       43.188400   47.595000   27.172800
     44          1           0       43.553800   49.232500   26.641700
     45          1           0       44.292300   47.859500   25.823800
     46          1           0       46.451600   49.494600   25.749000
 ---------------------------------------------------------------------
                    Distance matrix (angstroms):
                    1          2          3          4          5
     1  C    0.000000
     2  O    1.235411   0.000000
     3  C    1.430030   2.351373   0.000000
     4  C    2.453818   3.584286   1.353503   0.000000
     5  C    2.938646   4.171473   2.495615   1.502390   0.000000
     6  C    2.482800   3.567166   2.796691   2.491832   1.531312
     7  C    1.502684   2.380926   2.484822   2.844975   2.498088
     8  C    3.790929   4.800889   2.453171   1.477349   2.553085
     9  C    4.957711   6.039385   3.721177   2.531696   2.964054
    10  C    5.206972   6.406639   4.256348   2.908819   2.516472
    11  C    4.334459   5.540250   3.722642   2.522290   1.541983
    12  C    6.607251   7.799546   5.682083   4.359029   3.857223
    13  C    7.271855   8.491585   6.578047   5.267024   4.362379
    14  C    6.696473   7.876848   6.256806   5.076283   3.916296
    15  C    5.283419   6.468930   4.976205   3.877984   2.539311
    16  C    7.796038   8.970584   6.730126   5.412878   5.137038
    17  C    9.003066  10.193674   8.034409   6.709600   6.227603
    18  C    8.653473   9.855224   7.885689   6.578047   5.797899
    19  C    7.637821   8.872060   7.004971   5.694092   4.719616
    20  O    9.742020  10.955986   9.067459   7.756494   6.836374
    21  H    2.144694   2.601287   1.081790   2.110293   3.478145
    22  H    3.358986   4.562557   3.011229   2.087641   1.098938
    23  H    2.725374   3.656809   2.993840   2.814075   2.159154
    24  H    3.421458   4.421253   3.850231   3.437095   2.169998
    25  H    2.097270   2.908238   2.879804   3.099902   2.694561
    26  H    2.134379   2.526251   3.382478   3.881129   3.468074
    27  H    4.006109   4.811545   2.576276   2.123526   3.464494
    28  H    4.153502   5.148792   2.929358   2.054030   2.911000
    29  H    5.121111   6.130637   3.919221   2.898752   3.360152
    30  H    5.866407   6.907184   4.557608   3.441073   3.950021
    31  H    5.361959   6.569419   4.460357   3.134984   2.695409
    32  H    4.428124   5.545311   3.805772   2.778846   2.151596
    33  H    6.697184   7.836162   5.776602   4.545440   4.140788
    34  H    6.854559   7.981242   6.399831   5.292065   4.270447
    35  H    7.401204   8.563186   7.104306   5.968022   4.682491
    36  H    5.453423   6.647325   5.211591   4.120130   2.723367
    37  H    5.126549   6.227592   5.084574   4.200322   2.804223
    38  H    7.934236   9.049993   6.748047   5.506957   5.511355
    39  H    7.878038   9.060546   6.816151   5.495946   5.227474
    40  H    9.542091  10.696301   8.522507   7.243179   6.880319
    41  H    9.763960  10.970496   8.800829   7.457984   6.943477
    42  H    8.703533   9.863864   7.963504   6.720189   5.974698
    43  H    6.917168   8.143340   6.283458   5.000237   4.081102
    44  H    8.523445   9.756904   7.788777   6.455426   5.626709
    45  H    8.011396   9.230657   7.550684   6.297313   5.138597
    46  H    9.640426  10.840797   9.096846   7.827174   6.767425
                    6          7          8          9         10
     6  C    0.000000
     7  C    1.520152   0.000000
     8  C    3.854814   4.302176   0.000000
     9  C    4.345052   5.211203   1.523411   0.000000
    10  C    3.896479   5.011404   2.505073   1.525109   0.000000
    11  C    2.554463   3.885371   2.931487   2.484848   1.538180
    12  C    5.049712   6.328893   3.861003   2.513786   1.522679
    13  C    5.314868   6.683751   5.063364   3.900911   2.559192
    14  C    4.461279   5.925922   5.287925   4.350320   2.992909
    15  C    3.010312   4.431804   4.395989   3.865709   2.550679
    16  C    6.454359   7.634969   4.565080   3.164167   2.629247
    17  C    7.386983   8.694950   6.004929   4.566240   3.838109
    18  C    6.722441   8.133680   6.206100   4.850306   3.777994
    19  C    5.732102   6.935021   5.484974   4.553644   3.133494
    20  O    7.669037   9.075470   7.452736   6.159674   4.973458
    21  H    3.864317   3.457415   2.655207   4.021539   4.867326
    22  H    2.143516   2.749243   2.895339   3.390632   2.749449
    23  H    1.093625   2.151545   4.111417   4.459903   4.171515
    24  H    1.090095   2.139900   4.697787   5.003889   4.246271
    25  H    2.144237   1.094296   4.420208   5.402000   5.102865
    26  H    2.183558   1.090127   5.352189   6.219152   5.972554
    27  H    4.578323   4.839922   1.089839   2.165092   3.457143
    28  H    4.287614   4.566508   1.104932   2.148800   2.806069
    29  H    4.502505   5.456026   2.155530   1.093877   2.153577
    30  H    5.387183   6.186666   2.145131   1.089262   2.156408
    31  H    4.149866   5.085407   2.703556   2.135828   1.093642
    32  H    2.782054   4.152545   3.191643   2.630598   2.143034
    33  H    5.160811   6.504491   4.112352   2.700742   2.122292
    34  H    4.679348   6.194537   5.506413   4.483765   3.375538
    35  H    5.036350   6.462981   6.273456   5.399743   3.983686
    36  H    3.266870   4.478689   4.627464   4.260492   2.858131
    37  H    2.677034   4.121547   4.994830   4.631550   3.486238
    38  H    6.860546   7.973170   4.462711   3.031877   3.039045
    39  H    6.629543   7.690791   4.595764   3.410576   2.820308
    40  H    8.003006   9.333170   6.475319   4.971271   4.490036
    41  H    8.140707   9.405698   6.711720   5.345408   4.566285
    42  H    6.757591   8.225759   6.422986   5.033534   4.109360
    43  H    5.195536   6.249434   4.808474   4.113106   2.729355
    44  H    6.737627   7.903991   6.039556   5.017606   3.763051
    45  H    5.921375   7.128665   6.291451   5.456320   3.967068
    46  H    7.428608   8.855221   7.704579   6.493833   5.202974
                   11         12         13         14         15
    11  C    0.000000
    12  C    2.496480   0.000000
    13  C    2.968390   1.535190   0.000000
    14  C    2.557199   2.484017   1.524822   0.000000
    15  C    1.534190   2.893543   2.500201   1.529636   0.000000
    16  C    3.931454   1.528350   2.392286   3.755643   4.328565
    17  C    4.849521   2.401033   2.433451   3.804906   4.841901
    18  C    4.326173   2.350142   1.543083   2.586510   3.902990
    19  C    3.662659   2.574486   1.532931   2.509465   3.036244
    20  O    5.426081   3.650841   2.496829   3.306164   4.696583
    21  H    4.566156   6.259344   7.312231   7.117563   5.921927
    22  H    2.152426   4.111174   4.450958   4.165484   2.769167
    23  H    2.760311   5.170428   5.517115   4.557222   3.301602
    24  H    2.833742   5.221826   5.165264   4.137514   2.691841
    25  H    4.158762   6.475196   6.760148   6.132932   4.605215
    26  H    4.724068   7.211559   7.454111   6.536275   5.071801
    27  H    3.880154   4.668923   5.985760   6.229096   5.389172
    28  H    3.433339   4.187669   5.275830   5.651222   4.722941
    29  H    2.713600   2.747570   4.160326   4.437736   4.096353
    30  H    3.442025   2.745580   4.205704   4.970007   4.685935
    31  H    2.164392   2.161037   2.849185   3.442101   2.873383
    32  H    1.096840   2.767813   3.388238   2.824892   2.142370
    33  H    2.698263   1.097358   2.126055   2.644875   3.188532
    34  H    2.839690   2.734037   2.153688   1.092743   2.159198
    35  H    3.486115   3.448295   2.166856   1.092455   2.148029
    36  H    2.156405   3.332658   2.770643   2.147836   1.091392
    37  H    2.160787   3.862935   3.434271   2.135359   1.091295
    38  H    4.396502   2.190490   3.360589   4.588290   5.065595
    39  H    4.229921   2.161653   2.783386   4.208085   4.591039
    40  H    5.464333   3.037322   3.279841   4.472228   5.567671
    41  H    5.641214   3.252201   3.046793   4.486867   5.517743
    42  H    4.438885   2.693401   2.157462   2.675334   4.067720
    43  H    3.312335   2.719542   2.182799   2.957222   2.925126
    44  H    4.566811   2.999843   2.169290   3.425257   4.089539
    45  H    4.155151   3.472931   2.150492   2.575250   3.147476
    46  H    5.386447   4.009063   2.645528   3.000762   4.426463
                   16         17         18         19         20
    16  C    0.000000
    17  C    1.539656   0.000000
    18  C    2.470259   1.543696   0.000000
    19  C    2.961276   3.075128   2.506788   0.000000
    20  O    3.611803   2.426543   1.411665   2.818911   0.000000
    21  H    7.156834   8.531168   8.540113   7.767945   9.779943
    22  H    5.242656   6.351919   5.963113   4.437275   6.871276
    23  H    6.623275   7.486538   6.789035   6.194457   7.805881
    24  H    6.660157   7.427774   6.583042   5.463906   7.365009
    25  H    7.684385   8.781071   8.270651   6.768549   9.134579
    26  H    8.576672   9.556945   8.881796   7.728836   9.767338
    27  H    5.229530   6.685455   7.011329   6.489001   8.311338
    28  H    4.699241   6.187512   6.473742   5.389307   7.618667
    29  H    3.492220   4.711036   4.924003   5.112271   6.307315
    30  H    2.820954   4.317396   4.941803   4.729688   6.223074
    31  H    2.885524   4.131790   4.155953   2.845154   5.166455
    32  H    4.219840   5.039808   4.496792   4.409478   5.692824
    33  H    2.127863   2.689047   2.529696   3.482264   3.928028
    34  H    4.020439   3.965238   2.745284   3.453682   3.599474
    35  H    4.549327   4.344959   2.942071   2.699079   3.184711
    36  H    4.577672   5.128177   4.259284   2.706319   4.858191
    37  H    5.341112   5.769574   4.697706   4.010441   5.404743
    38  H    1.087910   2.188294   3.316261   4.033594   4.505353
    39  H    1.089527   2.186462   3.095571   2.762327   3.979499
    40  H    2.179557   1.088269   2.172827   4.126138   3.005468
    41  H    2.198629   1.089346   2.159826   3.193266   2.436645
    42  H    3.045702   2.175166   1.099610   3.435337   2.054101
    43  H    3.187835   3.749418   3.415798   1.085178   3.890228
    44  H    2.811805   2.697888   2.541533   1.085635   2.617536
    45  H    3.989942   3.871346   2.980257   1.087189   2.880575
    46  H    4.285320   3.258847   1.938029   2.967350   0.966118
                   21         22         23         24         25
    21  H    0.000000
    22  H    3.950768   0.000000
    23  H    3.950560   3.050528   0.000000
    24  H    4.927197   2.454389   1.766593   0.000000
    25  H    3.802220   2.488360   3.050684   2.492759   0.000000
    26  H    4.258678   3.731881   2.539581   2.479442   1.768704
    27  H    2.322522   3.884835   4.687574   5.523324   5.041436
    28  H    3.113806   2.826686   4.775519   5.023999   4.414305
    29  H    4.157559   4.048166   4.346566   5.206192   5.846703
    30  H    4.694809   4.202564   5.545874   6.016017   6.282424
    31  H    5.080876   2.472839   4.672035   4.410182   4.939476
    32  H    4.561271   3.048821   2.538574   3.190233   4.671706
    33  H    6.308279   4.644560   5.046536   5.398105   6.825008
    34  H    7.208139   4.757978   4.514095   4.460627   6.576077
    35  H    8.020967   4.800386   5.188918   4.494502   6.607141
    36  H    6.180841   2.501435   3.855979   2.802495   4.391803
    37  H    6.088164   3.175161   2.818046   2.128127   4.440555
    38  H    7.021295   5.724999   6.938093   7.213384   8.085486
    39  H    7.238416   5.111182   6.964020   6.809310   7.586388
    40  H    8.943772   7.131069   7.975030   8.110031   9.512002
    41  H    9.300321   6.921888   8.339268   8.119274   9.388768
    42  H    8.602790   6.323760   6.647876   6.650860   8.502884
    43  H    7.037563   3.620783   5.798752   5.000856   5.970995
    44  H    8.471712   5.311960   7.194120   6.521531   7.698157
    45  H    8.399107   4.809218   6.409713   5.456161   6.937658
    46  H    9.883973   6.812592   7.553227   7.008594   8.935563
                   26         27         28         29         30
    26  H    0.000000
    27  H    5.836589   0.000000
    28  H    5.652492   1.760027   0.000000
    29  H    6.376534   2.459124   3.054148   0.000000
    30  H    7.222218   2.519092   2.415354   1.762477   0.000000
    31  H    6.086314   3.727924   2.553400   3.043918   2.482303
    32  H    4.887344   3.927671   3.965434   2.393200   3.638916
    33  H    7.322213   4.771583   4.682655   2.474834   3.040622
    34  H    6.745234   6.332655   6.053557   4.299671   5.143157
    35  H    6.966157   7.248327   6.558758   5.527592   5.992606
    36  H    5.141298   5.690362   4.702793   4.726661   4.979405
    37  H    4.554179   5.922410   5.413885   4.714345   5.551129
    38  H    8.941026   4.919030   4.681515   3.206830   2.443717
    39  H    8.673002   5.312450   4.468341   4.020742   2.941749
    40  H   10.181398   7.028100   6.774341   4.911220   4.667755
    41  H   10.282748   7.417220   6.742400   5.627232   4.987487
    42  H    8.910774   7.150741   6.861175   4.866508   5.226564
    43  H    7.100086   5.844940   4.564405   4.848206   4.314666
    44  H    8.738098   6.982275   5.863150   5.602663   4.963130
    45  H    7.812682   7.331990   6.201090   5.968784   5.737933
    46  H    9.461484   8.608528   7.904150   6.613537   6.703246
                   31         32         33         34         35
    31  H    0.000000
    32  H    3.046952   0.000000
    33  H    3.041573   2.512236   0.000000
    34  H    4.082583   2.668553   2.430602   0.000000
    35  H    4.264431   3.806308   3.662206   1.768227   0.000000
    36  H    2.751878   3.043287   3.907107   3.050801   2.435351
    37  H    3.868665   2.431266   3.955161   2.441820   2.457038
    38  H    3.420758   4.514139   2.418687   4.679398   5.467178
    39  H    2.647491   4.747338   3.034883   4.699994   4.905291
    40  H    4.943815   5.458342   2.959904   4.385179   5.045283
    41  H    4.634359   5.963486   3.720828   4.803688   4.854273
    42  H    4.718001   4.343266   2.398138   2.379915   3.083892
    43  H    2.117592   4.237888   3.743265   3.944123   3.290216
    44  H    3.412767   5.266665   3.918171   4.249182   3.579223
    45  H    3.688047   4.897383   4.250368   3.585482   2.310566
    46  H    5.414571   5.643267   4.232870   3.301583   2.597082
                   36         37         38         39         40
    36  H    0.000000
    37  H    1.763383   0.000000
    38  H    5.412941   6.029751   0.000000
    39  H    4.587388   5.666520   1.761859   0.000000
    40  H    5.995569   6.419472   2.344814   2.993486   0.000000
    41  H    5.624158   6.479552   2.851031   2.366930   1.761506
    42  H    4.661251   4.688531   3.656551   3.889873   2.316477
    43  H    2.363380   3.940225   4.161496   2.761668   4.796852
    44  H    3.776502   5.077473   3.869554   2.429064   3.776792
    45  H    2.679702   3.928581   5.068634   3.835101   4.878047
    46  H    4.588683   4.984833   5.213631   4.657853   3.825876
                   41         42         43         44         45
    41  H    0.000000
    42  H    2.981162   0.000000
    43  H    3.896053   4.281345   0.000000
    44  H    2.466210   3.618826   1.759827   0.000000
    45  H    3.913176   3.813030   1.763053   1.760532   0.000000
    46  H    3.373205   2.319000   4.035364   3.043494   2.709562
                   46
    46  H    0.000000
 Stoichiometry    C18H26O2
 Framework group  C1[X(C18H26O2)]
 Deg. of freedom   132
 Full point group                 C1      NOp   1
 Largest Abelian subgroup         C1      NOp   1
 Largest concise Abelian subgroup C1      NOp   1
                         Standard orientation:                         
 ---------------------------------------------------------------------
 Center     Atomic      Atomic             Coordinates (Angstroms)
 Number     Number       Type             X           Y           Z
 ---------------------------------------------------------------------
      1          6           0        4.696872   -0.152926   -0.062250
      2          8           0        5.909442   -0.095759   -0.291697
      3          6           0        3.829188    0.983208   -0.098481
      4          6           0        2.492691    0.912610    0.103412
      5          6           0        1.789940   -0.402291    0.288756
      6          6           0        2.652301   -1.549560   -0.245118
      7          6           0        4.055612   -1.453649    0.331406
      8          6           0        1.705151    2.149382    0.284337
      9          6           0        0.279863    2.090630   -0.250343
     10          6           0       -0.412376    0.812862    0.212336
     11          6           0        0.377194   -0.391062   -0.329090
     12          6           0       -1.844384    0.747455   -0.301111
     13          6           0       -2.562533   -0.564794    0.043960
     14          6           0       -1.792557   -1.719425   -0.587740
     15          6           0       -0.348782   -1.719925   -0.082469
     16          6           0       -2.845345    1.808069    0.156086
     17          6           0       -4.200382    1.208692   -0.262443
     18          6           0       -3.939594   -0.277113   -0.590114
     19          6           0       -2.740940   -0.803820    1.547595
     20          8           0       -5.001064   -1.077178   -0.114746
     21          1           0        4.298813    1.946430   -0.246554
     22          1           0        1.684672   -0.532662    1.374843
     23          1           0        2.697196   -1.496490   -1.336532
     24          1           0        2.221243   -2.512914    0.027727
     25          1           0        3.995021   -1.455594    1.424021
     26          1           0        4.690233   -2.285496    0.025358
     27          1           0        2.236839    3.008284   -0.124740
     28          1           0        1.665874    2.293958    1.379065
     29          1           0        0.292559    2.124327   -1.343627
     30          1           0       -0.271697    2.961788    0.100880
     31          1           0       -0.400181    0.795325    1.305770
     32          1           0        0.481208   -0.260413   -1.413142
     33          1           0       -1.796733    0.798846   -1.396229
     34          1           0       -1.802577   -1.615652   -1.675498
     35          1           0       -2.255625   -2.676062   -0.335012
     36          1           0       -0.348328   -1.937537    0.987008
     37          1           0        0.183932   -2.527661   -0.587149
     38          1           0       -2.673106    2.775103   -0.311598
     39          1           0       -2.786165    1.940495    1.235914
     40          1           0       -4.597639    1.720138   -1.137050
     41          1           0       -4.944374    1.271725    0.530764
     42          1           0       -3.851522   -0.404945   -1.678711
     43          1           0       -1.860603   -0.510209    2.110098
     44          1           0       -3.590648   -0.244765    1.927143
     45          1           0       -2.924391   -1.861280    1.721100
     46          1           0       -4.762533   -2.001302   -0.264687
 ---------------------------------------------------------------------
 Rotational constants (GHZ):           0.9367508           0.1755575           0.1555591
 Standard basis: 6-31G(d) (6D, 7F)
 There are   352 symmetry adapted cartesian basis functions of A   symmetry.
 There are   352 symmetry adapted basis functions of A   symmetry.
   352 basis functions,   664 primitive gaussians,   352 cartesian basis functions
    75 alpha electrons       75 beta electrons
       nuclear repulsion energy      1670.5701908669 Hartrees.
 NAtoms=   46 NActive=   46 NUniq=   46 SFac= 1.00D+00 NAtFMM=   60 NAOKFM=F Big=F
 Integral buffers will be    131072 words long.
 Raffenetti 2 integral format.
 Two-electron integral symmetry is turned on.
 Nuclear repulsion after empirical dispersion term =     1670.5211196501 Hartrees.
 One-electron integrals computed using PRISM.
 NBasis=   352 RedAO= T EigKep=  1.23D-03  NBF=   352
 NBsUse=   352 1.00D-06 EigRej= -1.00D+00 NBFU=   352
 ExpMin= 1.61D-01 ExpMax= 5.48D+03 ExpMxC= 8.25D+02 IAcc=3 IRadAn=         5 AccDes= 0.00D+00
 Harris functional with IExCor= 4639 and IRadAn=       5 diagonalized for initial guess.
 HarFok:  IExCor= 4639 AccDes= 0.00D+00 IRadAn=         5 IDoV= 1 UseB2=F ITyADJ=14
 ICtDFT=  3500011 ScaDFX=  1.000000  1.000000  1.000000  1.000000
 FoFCou: FMM=F IPFlag=           0 FMFlag=      100000 FMFlg1=           0
         NFxFlg=           0 DoJE=T BraDBF=F KetDBF=T FulRan=T
         wScrn=  0.000000 ICntrl=       500 IOpCl=  0 I1Cent=   200000004 NGrid=           0
         NMat0=    1 NMatS0=      1 NMatT0=    0 NMatD0=    1 NMtDS0=    0 NMtDT0=    0
 Petite list used in FoFCou.
 Requested convergence on RMS density matrix=1.00D-08 within 128 cycles.
 Requested convergence on MAX density matrix=1.00D-06.
 Requested convergence on             energy=1.00D-06.
 No special actions if energy rises.
 Integral accuracy reduced to 1.0D-05 until final iterations.
 Initial convergence to 1.0D-05 achieved.  Increase integral accuracy.
 SCF Done:  E(RwB97XD) =  -851.790983983     A.U. after   15 cycles
            NFock= 15  Conv=0.52D-08     -V/T= 2.0088

 **********************************************************************

            Population analysis using the SCF Density.

 **********************************************************************

 Orbital symmetries:
       Occupied  (A) (A) (A) (A) (A) (A) (A) (A) (A) (A) (A) (A)
                 (A) (A) (A) (A) (A) (A) (A) (A) (A) (A) (A) (A)
                 (A) (A) (A) (A) (A) (A) (A) (A) (A) (A) (A) (A)
                 (A) (A) (A) (A) (A) (A) (A) (A) (A) (A) (A) (A)
                 (A) (A) (A) (A) (A) (A) (A) (A) (A) (A) (A) (A)
                 (A) (A) (A) (A) (A) (A) (A) (A) (A) (A) (A) (A)
                 (A) (A) (A)
       Virtual   (A) (A) (A) (A) (A) (A) (A) (A) (A) (A) (A) (A)
                 (A) (A) (A) (A) (A) (A) (A) (A) (A) (A) (A) (A)
                 (A) (A) (A) (A) (A) (A) (A) (A) (A) (A) (A) (A)
                 (A) (A) (A) (A) (A) (A) (A) (A) (A) (A) (A) (A)
                 (A) (A) (A) (A) (A) (A) (A) (A) (A) (A) (A) (A)
                 (A) (A) (A) (A) (A) (A) (A) (A) (A) (A) (A) (A)
                 (A) (A) (A) (A) (A) (A) (A) (A) (A) (A) (A) (A)
                 (A) (A) (A) (A) (A) (A) (A) (A) (A) (A) (A) (A)
                 (A) (A) (A) (A) (A) (A) (A) (A) (A) (A) (A) (A)
                 (A) (A) (A) (A) (A) (A) (A) (A) (A) (A) (A) (A)
                 (A) (A) (A) (A) (A) (A) (A) (A) (A) (A) (A) (A)
                 (A) (A) (A) (A) (A) (A) (A) (A) (A) (A) (A) (A)
                 (A) (A) (A) (A) (A) (A) (A) (A) (A) (A) (A) (A)
                 (A) (A) (A) (A) (A) (A) (A) (A) (A) (A) (A) (A)
                 (A) (A) (A) (A) (A) (A) (A) (A) (A) (A) (A) (A)
                 (A) (A) (A) (A) (A) (A) (A) (A) (A) (A) (A) (A)
                 (A) (A) (A) (A) (A) (A) (A) (A) (A) (A) (A) (A)
                 (A) (A) (A) (A) (A) (A) (A) (A) (A) (A) (A) (A)
                 (A) (A) (A) (A) (A) (A) (A) (A) (A) (A) (A) (A)
                 (A) (A) (A) (A) (A) (A) (A) (A) (A) (A) (A) (A)
                 (A) (A) (A) (A) (A) (A) (A) (A) (A) (A) (A) (A)
                 (A) (A) (A) (A) (A) (A) (A) (A) (A) (A) (A) (A)
                 (A) (A) (A) (A) (A) (A) (A) (A) (A) (A) (A) (A)
                 (A)
 The electronic state is 1-A.
 Alpha  occ. eigenvalues --  -19.26742 -19.23608 -10.36631 -10.34034 -10.32919
 Alpha  occ. eigenvalues --  -10.31516 -10.30835 -10.30699 -10.30323 -10.30135
 Alpha  occ. eigenvalues --  -10.30034 -10.29974 -10.29802 -10.29743 -10.29662
 Alpha  occ. eigenvalues --  -10.29198 -10.29192 -10.29082 -10.28784 -10.28349
 Alpha  occ. eigenvalues --   -1.12317  -1.10928  -0.98496  -0.95974  -0.91127
 Alpha  occ. eigenvalues --   -0.90463  -0.87433  -0.84506  -0.82653  -0.81542
 Alpha  occ. eigenvalues --   -0.77971  -0.77491  -0.73746  -0.72089  -0.69694
 Alpha  occ. eigenvalues --   -0.67928  -0.65573  -0.65382  -0.62950  -0.61184
 Alpha  occ. eigenvalues --   -0.60313  -0.58260  -0.57245  -0.55615  -0.55479
 Alpha  occ. eigenvalues --   -0.54353  -0.53539  -0.53235  -0.51753  -0.50840
 Alpha  occ. eigenvalues --   -0.50172  -0.49653  -0.48938  -0.48000  -0.47920
 Alpha  occ. eigenvalues --   -0.46978  -0.46681  -0.46520  -0.45070  -0.44636
 Alpha  occ. eigenvalues --   -0.43886  -0.43379  -0.43055  -0.42643  -0.42126
 Alpha  occ. eigenvalues --   -0.41722  -0.41036  -0.40340  -0.39610  -0.38434
 Alpha  occ. eigenvalues --   -0.37323  -0.36236  -0.33882  -0.32658  -0.30926
 Alpha virt. eigenvalues --    0.02385   0.13382   0.14129   0.15013   0.16709
 Alpha virt. eigenvalues --    0.17176   0.17967   0.18971   0.19642   0.20495
 Alpha virt. eigenvalues --    0.20584   0.21147   0.21944   0.22628   0.23349
 Alpha virt. eigenvalues --    0.23692   0.24202   0.24909   0.25281   0.25500
 Alpha virt. eigenvalues --    0.25693   0.26078   0.26608   0.26888   0.27324
 Alpha virt. eigenvalues --    0.27585   0.28238   0.28785   0.29629   0.30575
 Alpha virt. eigenvalues --    0.31057   0.31363   0.32039   0.32614   0.33626
 Alpha virt. eigenvalues --    0.33830   0.34277   0.35312   0.36029   0.36323
 Alpha virt. eigenvalues --    0.37289   0.37766   0.39130   0.39755   0.41064
 Alpha virt. eigenvalues --    0.41905   0.42734   0.44806   0.45132   0.49956
 Alpha virt. eigenvalues --    0.52109   0.58275   0.58789   0.59400   0.60207
 Alpha virt. eigenvalues --    0.61763   0.62122   0.62368   0.63127   0.65174
 Alpha virt. eigenvalues --    0.65772   0.65944   0.67125   0.68210   0.69659
 Alpha virt. eigenvalues --    0.70169   0.71180   0.72599   0.73055   0.73509
 Alpha virt. eigenvalues --    0.73852   0.74179   0.75167   0.76022   0.76708
 Alpha virt. eigenvalues --    0.77365   0.78299   0.78716   0.80434   0.80731
 Alpha virt. eigenvalues --    0.82759   0.83254   0.84461   0.84842   0.85539
 Alpha virt. eigenvalues --    0.86646   0.87567   0.88923   0.90184   0.90620
 Alpha virt. eigenvalues --    0.91180   0.92770   0.93575   0.93757   0.95042
 Alpha virt. eigenvalues --    0.95352   0.95972   0.96512   0.96781   0.97353
 Alpha virt. eigenvalues --    0.97571   0.97783   0.98220   0.98623   0.99018
 Alpha virt. eigenvalues --    0.99848   1.00313   1.00477   1.01260   1.02456
 Alpha virt. eigenvalues --    1.03465   1.04022   1.04260   1.04461   1.05328
 Alpha virt. eigenvalues --    1.05897   1.06225   1.06847   1.08034   1.08456
 Alpha virt. eigenvalues --    1.09277   1.10126   1.11008   1.12161   1.13864
 Alpha virt. eigenvalues --    1.14344   1.16170   1.16547   1.19880   1.20834
 Alpha virt. eigenvalues --    1.22072   1.23380   1.25600   1.28012   1.28821
 Alpha virt. eigenvalues --    1.30812   1.31026   1.34594   1.36568   1.38150
 Alpha virt. eigenvalues --    1.40002   1.43498   1.44612   1.47793   1.49027
 Alpha virt. eigenvalues --    1.51090   1.53691   1.54539   1.56199   1.59056
 Alpha virt. eigenvalues --    1.61660   1.62826   1.65902   1.66341   1.67012
 Alpha virt. eigenvalues --    1.70838   1.72441   1.72882   1.75358   1.76461
 Alpha virt. eigenvalues --    1.77762   1.79007   1.80807   1.82163   1.84143
 Alpha virt. eigenvalues --    1.85481   1.86938   1.87374   1.87704   1.89244
 Alpha virt. eigenvalues --    1.89633   1.92271   1.93540   1.94904   1.95833
 Alpha virt. eigenvalues --    1.96027   1.96685   1.97573   1.99086   1.99701
 Alpha virt. eigenvalues --    2.00786   2.02194   2.02831   2.03007   2.04037
 Alpha virt. eigenvalues --    2.05795   2.06237   2.07172   2.07422   2.07653
 Alpha virt. eigenvalues --    2.09444   2.09769   2.11005   2.11353   2.12582
 Alpha virt. eigenvalues --    2.14202   2.14611   2.15838   2.16010   2.18470
 Alpha virt. eigenvalues --    2.19349   2.20460   2.21976   2.24657   2.26175
 Alpha virt. eigenvalues --    2.26770   2.28299   2.30845   2.31474   2.32887
 Alpha virt. eigenvalues --    2.35038   2.36561   2.37339   2.38760   2.41116
 Alpha virt. eigenvalues --    2.41806   2.42600   2.44064   2.45619   2.47312
 Alpha virt. eigenvalues --    2.48689   2.49388   2.51212   2.52301   2.53268
 Alpha virt. eigenvalues --    2.55613   2.58315   2.59432   2.62362   2.63443
 Alpha virt. eigenvalues --    2.64809   2.65116   2.65618   2.67044   2.68620
 Alpha virt. eigenvalues --    2.69154   2.71803   2.72340   2.76135   2.77310
 Alpha virt. eigenvalues --    2.79773   2.80130   2.81368   2.84043   2.85076
 Alpha virt. eigenvalues --    2.87027   2.90418   2.94121   2.97762   2.99874
 Alpha virt. eigenvalues --    3.01546   3.03019   3.08430   3.09010   3.11510
 Alpha virt. eigenvalues --    3.22111   3.27627   4.00794   4.09766   4.25990
 Alpha virt. eigenvalues --    4.27308   4.31385   4.35164   4.36756   4.39390
 Alpha virt. eigenvalues --    4.42653   4.42949   4.48966   4.54630   4.55937
 Alpha virt. eigenvalues --    4.65916   4.68338   4.75282   4.77818   4.81637
 Alpha virt. eigenvalues --    4.86431   4.93265
          Condensed to atoms (all electrons):
               1          2          3          4          5          6
     1  C    4.423149   0.545005   0.355260   0.003738  -0.022786  -0.026486
     2  O    0.545005   8.090998  -0.062807   0.005207   0.000361   0.001901
     3  C    0.355260  -0.062807   5.323048   0.518977  -0.043793   0.002888
     4  C    0.003738   0.005207   0.518977   4.862519   0.375611  -0.044632
     5  C   -0.022786   0.000361  -0.043793   0.375611   5.098365   0.350329
     6  C   -0.026486   0.001901   0.002888  -0.044632   0.350329   5.144585
     7  C    0.343339  -0.079664  -0.141507  -0.000074  -0.035435   0.293114
     8  C    0.003808  -0.000096  -0.037328   0.362978  -0.068647   0.005312
     9  C   -0.000133   0.000000   0.002770  -0.034258  -0.011965  -0.000297
    10  C   -0.000014   0.000000   0.000522  -0.014307  -0.039799   0.004146
    11  C   -0.000112   0.000001   0.003442  -0.031018   0.365247  -0.048857
    12  C   -0.000000   0.000000   0.000002   0.000268   0.003892  -0.000135
    13  C   -0.000000   0.000000   0.000000   0.000005   0.000067  -0.000006
    14  C    0.000000  -0.000000   0.000001  -0.000098   0.003793   0.000197
    15  C   -0.000004  -0.000000  -0.000117   0.004397  -0.043917  -0.004592
    16  C   -0.000000  -0.000000   0.000000  -0.000002  -0.000110   0.000001
    17  C    0.000000  -0.000000  -0.000000   0.000000   0.000002  -0.000000
    18  C    0.000000   0.000000  -0.000000   0.000000   0.000004   0.000000
    19  C   -0.000000   0.000000   0.000000   0.000001   0.000045  -0.000000
    20  O    0.000000   0.000000   0.000000   0.000000  -0.000000   0.000000
    21  H   -0.029366   0.000776   0.359163  -0.046204   0.004879  -0.000388
    22  H    0.000888   0.000003  -0.003982  -0.044188   0.367007  -0.034559
    23  H   -0.002663   0.000150   0.003816  -0.004725  -0.042235   0.386393
    24  H    0.003600  -0.000076  -0.000318   0.004831  -0.030932   0.378062
    25  H   -0.029794   0.000171   0.003164  -0.002843  -0.003683  -0.040867
    26  H   -0.025957   0.003713   0.006155  -0.000191   0.004133  -0.029499
    27  H    0.000247  -0.000001  -0.002807  -0.039751   0.004319  -0.000153
    28  H   -0.000117   0.000003  -0.008832  -0.041719   0.000576   0.000138
    29  H    0.000000  -0.000000  -0.000174  -0.003239   0.000485   0.000011
    30  H    0.000001  -0.000000  -0.000081   0.004259   0.000000   0.000011
    31  H    0.000004   0.000000  -0.000221  -0.004154  -0.001331   0.000148
    32  H    0.000030  -0.000000  -0.000026  -0.003736  -0.041165  -0.004610
    33  H    0.000000   0.000000  -0.000002  -0.000076   0.000179   0.000001
    34  H    0.000000   0.000000  -0.000000   0.000002   0.000064  -0.000023
    35  H    0.000000  -0.000000  -0.000000   0.000001  -0.000108   0.000001
    36  H    0.000001  -0.000000  -0.000007   0.000114  -0.003380  -0.001081
    37  H   -0.000010  -0.000000   0.000013  -0.000080  -0.006800   0.002272
    38  H    0.000000  -0.000000   0.000000  -0.000001   0.000001  -0.000000
    39  H    0.000000   0.000000  -0.000000  -0.000000   0.000001   0.000000
    40  H    0.000000  -0.000000   0.000000   0.000000  -0.000000   0.000000
    41  H    0.000000  -0.000000   0.000000  -0.000000  -0.000000   0.000000
    42  H    0.000000  -0.000000  -0.000000   0.000000  -0.000000  -0.000000
    43  H   -0.000000  -0.000000  -0.000000   0.000003   0.000017   0.000002
    44  H   -0.000000   0.000000   0.000000   0.000000  -0.000001  -0.000000
    45  H    0.000000   0.000000  -0.000000   0.000000  -0.000006   0.000000
    46  H   -0.000000   0.000000  -0.000000   0.000000  -0.000000   0.000000
               7          8          9         10         11         12
     1  C    0.343339   0.003808  -0.000133  -0.000014  -0.000112  -0.000000
     2  O   -0.079664  -0.000096   0.000000   0.000000   0.000001   0.000000
     3  C   -0.141507  -0.037328   0.002770   0.000522   0.003442   0.000002
     4  C   -0.000074   0.362978  -0.034258  -0.014307  -0.031018   0.000268
     5  C   -0.035435  -0.068647  -0.011965  -0.039799   0.365247   0.003892
     6  C    0.293114   0.005312  -0.000297   0.004146  -0.048857  -0.000135
     7  C    5.360147  -0.000205   0.000042  -0.000102   0.004725   0.000002
     8  C   -0.000205   5.156615   0.336204  -0.044379  -0.016104   0.004100
     9  C    0.000042   0.336204   5.101893   0.368978  -0.044618  -0.044343
    10  C   -0.000102  -0.044379   0.368978   5.026409   0.372429   0.365294
    11  C    0.004725  -0.016104  -0.044618   0.372429   5.038502  -0.038758
    12  C    0.000002   0.004100  -0.044343   0.365294  -0.038758   5.107355
    13  C    0.000000  -0.000140   0.004331  -0.025917  -0.012955   0.353285
    14  C   -0.000002  -0.000012  -0.000058  -0.011697  -0.038762  -0.050348
    15  C    0.000213   0.000350   0.004613  -0.041705   0.368727  -0.018208
    16  C   -0.000000   0.000074  -0.004042  -0.034128   0.004338   0.362972
    17  C    0.000000  -0.000000   0.000108   0.004332  -0.000184  -0.062523
    18  C   -0.000000   0.000002  -0.000119   0.004074   0.000132  -0.065262
    19  C   -0.000000  -0.000000   0.000213  -0.007429  -0.001801  -0.055836
    20  O    0.000000  -0.000000   0.000000  -0.000072  -0.000003   0.003854
    21  H    0.006829  -0.008226   0.000224   0.000000  -0.000097  -0.000000
    22  H   -0.005944   0.000858  -0.000504  -0.005680  -0.041496   0.000034
    23  H   -0.042996   0.000002  -0.000037   0.000108  -0.002971  -0.000001
    24  H   -0.031433  -0.000118  -0.000007  -0.000034  -0.008144  -0.000002
    25  H    0.366306  -0.000076  -0.000002   0.000001   0.000109   0.000000
    26  H    0.366544   0.000009   0.000000   0.000001  -0.000070  -0.000000
    27  H    0.000010   0.379635  -0.031882   0.004265  -0.000170  -0.000116
    28  H   -0.000095   0.378548  -0.041282  -0.004856  -0.000786  -0.000012
    29  H   -0.000004  -0.036187   0.380839  -0.038973  -0.007909  -0.004784
    30  H   -0.000000  -0.031622   0.379888  -0.033512   0.005071  -0.006860
    31  H   -0.000010   0.000523  -0.047533   0.379794  -0.048740  -0.041871
    32  H   -0.000107  -0.000035  -0.006015  -0.046384   0.378101  -0.004031
    33  H   -0.000000   0.000120  -0.006264  -0.044810  -0.006067   0.382664
    34  H   -0.000000   0.000000  -0.000030  -0.000423  -0.004170  -0.006109
    35  H   -0.000000  -0.000000   0.000011  -0.000147   0.004307   0.006671
    36  H   -0.000059  -0.000012   0.000010  -0.003933  -0.042567  -0.000624
    37  H    0.000042  -0.000011  -0.000133   0.004401  -0.031789   0.000157
    38  H    0.000000  -0.000016   0.001250  -0.001780  -0.000072  -0.028025
    39  H   -0.000000  -0.000024  -0.000468  -0.004260   0.000072  -0.038150
    40  H   -0.000000  -0.000000  -0.000005  -0.000069   0.000004   0.001075
    41  H   -0.000000  -0.000000   0.000001  -0.000133   0.000002   0.003789
    42  H   -0.000000  -0.000000   0.000008  -0.000296  -0.000010  -0.002414
    43  H    0.000000   0.000010  -0.000069   0.001783  -0.000182  -0.006323
    44  H    0.000000  -0.000000  -0.000010   0.000037  -0.000009  -0.001423
    45  H   -0.000000  -0.000000   0.000000  -0.000008   0.000159   0.005281
    46  H    0.000000   0.000000   0.000000  -0.000003   0.000001   0.000315
              13         14         15         16         17         18
     1  C   -0.000000   0.000000  -0.000004  -0.000000   0.000000   0.000000
     2  O    0.000000  -0.000000  -0.000000  -0.000000  -0.000000   0.000000
     3  C    0.000000   0.000001  -0.000117   0.000000  -0.000000  -0.000000
     4  C    0.000005  -0.000098   0.004397  -0.000002   0.000000   0.000000
     5  C    0.000067   0.003793  -0.043917  -0.000110   0.000002   0.000004
     6  C   -0.000006   0.000197  -0.004592   0.000001  -0.000000   0.000000
     7  C    0.000000  -0.000002   0.000213  -0.000000   0.000000  -0.000000
     8  C   -0.000140  -0.000012   0.000350   0.000074  -0.000000   0.000002
     9  C    0.004331  -0.000058   0.004613  -0.004042   0.000108  -0.000119
    10  C   -0.025917  -0.011697  -0.041705  -0.034128   0.004332   0.004074
    11  C   -0.012955  -0.038762   0.368727   0.004338  -0.000184   0.000132
    12  C    0.353285  -0.050348  -0.018208   0.362972  -0.062523  -0.065262
    13  C    5.107540   0.379791  -0.039387  -0.061411  -0.069060   0.378230
    14  C    0.379791   5.117350   0.355496   0.006220   0.006814  -0.044009
    15  C   -0.039387   0.355496   5.095126   0.000203  -0.000249   0.004531
    16  C   -0.061411   0.006220   0.000203   5.104322   0.346436  -0.064467
    17  C   -0.069060   0.006814  -0.000249   0.346436   5.169567   0.358818
    18  C    0.378230  -0.044009   0.004531  -0.064467   0.358818   4.812146
    19  C    0.335003  -0.067004  -0.004168  -0.003234  -0.010062  -0.052021
    20  O   -0.052933  -0.000225   0.000020   0.002126  -0.044891   0.245787
    21  H   -0.000000  -0.000000   0.000002  -0.000000  -0.000000  -0.000000
    22  H   -0.000029   0.000049  -0.006539  -0.000000   0.000000  -0.000000
    23  H   -0.000000  -0.000045  -0.001166   0.000000   0.000000  -0.000000
    24  H   -0.000003   0.000027   0.002928   0.000000   0.000000   0.000000
    25  H   -0.000000  -0.000000  -0.000029   0.000000   0.000000  -0.000000
    26  H   -0.000000  -0.000000  -0.000001   0.000000  -0.000000  -0.000000
    27  H    0.000001  -0.000000   0.000009  -0.000001  -0.000000  -0.000000
    28  H    0.000003   0.000000  -0.000007  -0.000010  -0.000000  -0.000000
    29  H    0.000049  -0.000012   0.000108  -0.000432  -0.000024  -0.000005
    30  H    0.000018  -0.000005  -0.000143   0.003655  -0.000016  -0.000008
    31  H   -0.007027   0.000300  -0.002835  -0.004124  -0.000003   0.000021
    32  H   -0.001296  -0.000960  -0.045493  -0.000043   0.000003  -0.000062
    33  H   -0.054760  -0.006266  -0.000909  -0.045669  -0.002601  -0.002494
    34  H   -0.038848   0.378006  -0.037151   0.000016   0.000080  -0.005901
    35  H   -0.036310   0.369931  -0.034162  -0.000239  -0.000025  -0.003352
    36  H   -0.009212  -0.036071   0.381329  -0.000022  -0.000000  -0.000006
    37  H    0.005021  -0.034816   0.380987   0.000009   0.000003  -0.000087
    38  H    0.005906  -0.000157  -0.000004   0.379458  -0.029407   0.003111
    39  H   -0.007424   0.000045  -0.000022   0.385716  -0.032862   0.001546
    40  H    0.003589  -0.000157   0.000004  -0.033000   0.379418  -0.027651
    41  H   -0.001630  -0.000121   0.000004  -0.026017   0.372355  -0.031698
    42  H   -0.068074  -0.009159   0.000130   0.003545  -0.049048   0.387876
    43  H   -0.035060  -0.001933   0.000699  -0.000611  -0.000155   0.004898
    44  H   -0.033417   0.004347   0.000154   0.000867   0.002737  -0.007815
    45  H   -0.031906  -0.006500  -0.001264  -0.000081  -0.000022  -0.003082
    46  H   -0.004995   0.002343  -0.000079  -0.000334   0.007274  -0.027837
              19         20         21         22         23         24
     1  C   -0.000000   0.000000  -0.029366   0.000888  -0.002663   0.003600
     2  O    0.000000   0.000000   0.000776   0.000003   0.000150  -0.000076
     3  C    0.000000   0.000000   0.359163  -0.003982   0.003816  -0.000318
     4  C    0.000001   0.000000  -0.046204  -0.044188  -0.004725   0.004831
     5  C    0.000045  -0.000000   0.004879   0.367007  -0.042235  -0.030932
     6  C   -0.000000   0.000000  -0.000388  -0.034559   0.386393   0.378062
     7  C   -0.000000   0.000000   0.006829  -0.005944  -0.042996  -0.031433
     8  C   -0.000000  -0.000000  -0.008226   0.000858   0.000002  -0.000118
     9  C    0.000213   0.000000   0.000224  -0.000504  -0.000037  -0.000007
    10  C   -0.007429  -0.000072   0.000000  -0.005680   0.000108  -0.000034
    11  C   -0.001801  -0.000003  -0.000097  -0.041496  -0.002971  -0.008144
    12  C   -0.055836   0.003854  -0.000000   0.000034  -0.000001  -0.000002
    13  C    0.335003  -0.052933  -0.000000  -0.000029  -0.000000  -0.000003
    14  C   -0.067004  -0.000225  -0.000000   0.000049  -0.000045   0.000027
    15  C   -0.004168   0.000020   0.000002  -0.006539  -0.001166   0.002928
    16  C   -0.003234   0.002126  -0.000000  -0.000000   0.000000   0.000000
    17  C   -0.010062  -0.044891  -0.000000   0.000000   0.000000   0.000000
    18  C   -0.052021   0.245787  -0.000000  -0.000000  -0.000000   0.000000
    19  C    5.217279   0.003888   0.000000  -0.000040  -0.000000  -0.000001
    20  O    0.003888   8.281055   0.000000  -0.000000  -0.000000   0.000000
    21  H    0.000000   0.000000   0.537815  -0.000218  -0.000113   0.000014
    22  H   -0.000040  -0.000000  -0.000218   0.586404   0.005432  -0.003076
    23  H   -0.000000  -0.000000  -0.000113   0.005432   0.553773  -0.030241
    24  H   -0.000001   0.000000   0.000014  -0.003076  -0.030241   0.551174
    25  H   -0.000000   0.000000  -0.000187   0.006019   0.005182  -0.004049
    26  H    0.000000  -0.000000  -0.000117  -0.000145  -0.002119  -0.003406
    27  H    0.000000   0.000000   0.005459  -0.000099  -0.000000   0.000002
    28  H   -0.000003   0.000000   0.000307   0.001617   0.000002   0.000009
    29  H   -0.000005   0.000000  -0.000004   0.000085  -0.000005   0.000002
    30  H   -0.000003  -0.000000  -0.000009  -0.000009   0.000000   0.000000
    31  H    0.001272  -0.000001  -0.000002   0.005345   0.000007   0.000000
    32  H    0.000058   0.000000  -0.000015   0.005843   0.004858   0.000070
    33  H    0.006609   0.000061  -0.000000   0.000001  -0.000002  -0.000000
    34  H    0.006399  -0.000065   0.000000   0.000004   0.000002   0.000010
    35  H   -0.007913   0.001404   0.000000  -0.000002   0.000000   0.000005
    36  H    0.005359  -0.000003  -0.000000   0.005242   0.000116   0.000815
    37  H   -0.000070   0.000001   0.000000   0.000023   0.000757   0.001846
    38  H    0.000041  -0.000038  -0.000000   0.000000   0.000000  -0.000000
    39  H    0.003842   0.000010   0.000000  -0.000002  -0.000000  -0.000000
    40  H    0.000193   0.001866   0.000000  -0.000000  -0.000000  -0.000000
    41  H    0.000796   0.002496   0.000000  -0.000000  -0.000000   0.000000
    42  H    0.007826  -0.040679  -0.000000  -0.000000  -0.000000   0.000000
    43  H    0.373263   0.000498  -0.000000  -0.000001  -0.000000  -0.000000
    44  H    0.383086   0.003162  -0.000000   0.000001   0.000000   0.000000
    45  H    0.377479   0.002365   0.000000   0.000001   0.000000  -0.000000
    46  H   -0.001156   0.243398   0.000000  -0.000000   0.000000   0.000000
              25         26         27         28         29         30
     1  C   -0.029794  -0.025957   0.000247  -0.000117   0.000000   0.000001
     2  O    0.000171   0.003713  -0.000001   0.000003  -0.000000  -0.000000
     3  C    0.003164   0.006155  -0.002807  -0.008832  -0.000174  -0.000081
     4  C   -0.002843  -0.000191  -0.039751  -0.041719  -0.003239   0.004259
     5  C   -0.003683   0.004133   0.004319   0.000576   0.000485   0.000000
     6  C   -0.040867  -0.029499  -0.000153   0.000138   0.000011   0.000011
     7  C    0.366306   0.366544   0.000010  -0.000095  -0.000004  -0.000000
     8  C   -0.000076   0.000009   0.379635   0.378548  -0.036187  -0.031622
     9  C   -0.000002   0.000000  -0.031882  -0.041282   0.380839   0.379888
    10  C    0.000001   0.000001   0.004265  -0.004856  -0.038973  -0.033512
    11  C    0.000109  -0.000070  -0.000170  -0.000786  -0.007909   0.005071
    12  C    0.000000  -0.000000  -0.000116  -0.000012  -0.004784  -0.006860
    13  C   -0.000000  -0.000000   0.000001   0.000003   0.000049   0.000018
    14  C   -0.000000  -0.000000  -0.000000   0.000000  -0.000012  -0.000005
    15  C   -0.000029  -0.000001   0.000009  -0.000007   0.000108  -0.000143
    16  C    0.000000   0.000000  -0.000001  -0.000010  -0.000432   0.003655
    17  C    0.000000  -0.000000  -0.000000  -0.000000  -0.000024  -0.000016
    18  C   -0.000000  -0.000000  -0.000000  -0.000000  -0.000005  -0.000008
    19  C   -0.000000   0.000000   0.000000  -0.000003  -0.000005  -0.000003
    20  O    0.000000  -0.000000   0.000000   0.000000   0.000000  -0.000000
    21  H   -0.000187  -0.000117   0.005459   0.000307  -0.000004  -0.000009
    22  H    0.006019  -0.000145  -0.000099   0.001617   0.000085  -0.000009
    23  H    0.005182  -0.002119  -0.000000   0.000002  -0.000005   0.000000
    24  H   -0.004049  -0.003406   0.000002   0.000009   0.000002   0.000000
    25  H    0.542580  -0.021507   0.000000   0.000012  -0.000000   0.000000
    26  H   -0.021507   0.510570   0.000000  -0.000001  -0.000000   0.000000
    27  H    0.000000   0.000000   0.528776  -0.024532  -0.003214  -0.001689
    28  H    0.000012  -0.000001  -0.024532   0.556146   0.005063  -0.005388
    29  H   -0.000000  -0.000000  -0.003214   0.005063   0.563854  -0.030473
    30  H    0.000000   0.000000  -0.001689  -0.005388  -0.030473   0.551463
    31  H   -0.000002   0.000000   0.000032   0.004653   0.005551  -0.002959
    32  H    0.000010  -0.000001  -0.000041   0.000117   0.005710   0.000080
    33  H   -0.000000   0.000000   0.000003   0.000003   0.004848  -0.000053
    34  H   -0.000000   0.000000  -0.000000  -0.000000  -0.000010   0.000001
    35  H    0.000000   0.000000   0.000000  -0.000000   0.000000  -0.000000
    36  H    0.000003   0.000000  -0.000000  -0.000002  -0.000000   0.000004
    37  H    0.000011   0.000002  -0.000000   0.000000  -0.000003   0.000002
    38  H    0.000000  -0.000000   0.000001   0.000004   0.000264   0.001046
    39  H   -0.000000   0.000000   0.000000  -0.000002   0.000051   0.000398
    40  H    0.000000   0.000000   0.000000  -0.000000  -0.000000   0.000002
    41  H   -0.000000   0.000000   0.000000   0.000000   0.000000   0.000002
    42  H   -0.000000   0.000000   0.000000  -0.000000  -0.000002  -0.000000
    43  H    0.000000   0.000000  -0.000000  -0.000007  -0.000001   0.000002
    44  H    0.000000  -0.000000   0.000000   0.000000   0.000000   0.000000
    45  H    0.000000  -0.000000   0.000000   0.000000   0.000000  -0.000000
    46  H    0.000000   0.000000   0.000000   0.000000   0.000000   0.000000
              31         32         33         34         35         36
     1  C    0.000004   0.000030   0.000000   0.000000   0.000000   0.000001
     2  O    0.000000  -0.000000   0.000000   0.000000  -0.000000  -0.000000
     3  C   -0.000221  -0.000026  -0.000002  -0.000000  -0.000000  -0.000007
     4  C   -0.004154  -0.003736  -0.000076   0.000002   0.000001   0.000114
     5  C   -0.001331  -0.041165   0.000179   0.000064  -0.000108  -0.003380
     6  C    0.000148  -0.004610   0.000001  -0.000023   0.000001  -0.001081
     7  C   -0.000010  -0.000107  -0.000000  -0.000000  -0.000000  -0.000059
     8  C    0.000523  -0.000035   0.000120   0.000000  -0.000000  -0.000012
     9  C   -0.047533  -0.006015  -0.006264  -0.000030   0.000011   0.000010
    10  C    0.379794  -0.046384  -0.044810  -0.000423  -0.000147  -0.003933
    11  C   -0.048740   0.378101  -0.006067  -0.004170   0.004307  -0.042567
    12  C   -0.041871  -0.004031   0.382664  -0.006109   0.006671  -0.000624
    13  C   -0.007027  -0.001296  -0.054760  -0.038848  -0.036310  -0.009212
    14  C    0.000300  -0.000960  -0.006266   0.378006   0.369931  -0.036071
    15  C   -0.002835  -0.045493  -0.000909  -0.037151  -0.034162   0.381329
    16  C   -0.004124  -0.000043  -0.045669   0.000016  -0.000239  -0.000022
    17  C   -0.000003   0.000003  -0.002601   0.000080  -0.000025  -0.000000
    18  C    0.000021  -0.000062  -0.002494  -0.005901  -0.003352  -0.000006
    19  C    0.001272   0.000058   0.006609   0.006399  -0.007913   0.005359
    20  O   -0.000001   0.000000   0.000061  -0.000065   0.001404  -0.000003
    21  H   -0.000002  -0.000015  -0.000000   0.000000   0.000000  -0.000000
    22  H    0.005345   0.005843   0.000001   0.000004  -0.000002   0.005242
    23  H    0.000007   0.004858  -0.000002   0.000002   0.000000   0.000116
    24  H    0.000000   0.000070  -0.000000   0.000010   0.000005   0.000815
    25  H   -0.000002   0.000010  -0.000000  -0.000000   0.000000   0.000003
    26  H    0.000000  -0.000001   0.000000   0.000000   0.000000   0.000000
    27  H    0.000032  -0.000041   0.000003  -0.000000   0.000000  -0.000000
    28  H    0.004653   0.000117   0.000003  -0.000000  -0.000000  -0.000002
    29  H    0.005551   0.005710   0.004848  -0.000010   0.000000  -0.000000
    30  H   -0.002959   0.000080  -0.000053   0.000001  -0.000000   0.000004
    31  H    0.604695   0.005869   0.006023   0.000043  -0.000008   0.002057
    32  H    0.005869   0.602382   0.004602   0.003620  -0.000055   0.005518
    33  H    0.006023   0.004602   0.621322   0.004943   0.000020   0.000082
    34  H    0.000043   0.003620   0.004943   0.575954  -0.031515   0.005067
    35  H   -0.000008  -0.000055   0.000020  -0.031515   0.589455  -0.004014
    36  H    0.002057   0.005518   0.000082   0.005067  -0.004014   0.571844
    37  H   -0.000069  -0.004600  -0.000069  -0.004202  -0.002550  -0.031370
    38  H   -0.000139  -0.000001  -0.005992  -0.000001   0.000003   0.000000
    39  H    0.003978   0.000003   0.005379  -0.000008   0.000004  -0.000008
    40  H    0.000002  -0.000000   0.000909  -0.000019   0.000001   0.000000
    41  H   -0.000006  -0.000000  -0.000017  -0.000000   0.000000  -0.000000
    42  H   -0.000010  -0.000007   0.005048   0.006258   0.000120  -0.000003
    43  H    0.004731  -0.000021   0.000068  -0.000162  -0.000061  -0.000050
    44  H   -0.000010   0.000002  -0.000103  -0.000137   0.000033  -0.000000
    45  H   -0.000070   0.000002  -0.000126   0.000163   0.006056   0.000912
    46  H    0.000000   0.000000  -0.000009  -0.000028   0.002412  -0.000000
              37         38         39         40         41         42
     1  C   -0.000010   0.000000   0.000000   0.000000   0.000000   0.000000
     2  O   -0.000000  -0.000000   0.000000  -0.000000  -0.000000  -0.000000
     3  C    0.000013   0.000000  -0.000000   0.000000   0.000000  -0.000000
     4  C   -0.000080  -0.000001  -0.000000   0.000000  -0.000000   0.000000
     5  C   -0.006800   0.000001   0.000001  -0.000000  -0.000000  -0.000000
     6  C    0.002272  -0.000000   0.000000   0.000000   0.000000  -0.000000
     7  C    0.000042   0.000000  -0.000000  -0.000000  -0.000000  -0.000000
     8  C   -0.000011  -0.000016  -0.000024  -0.000000  -0.000000  -0.000000
     9  C   -0.000133   0.001250  -0.000468  -0.000005   0.000001   0.000008
    10  C    0.004401  -0.001780  -0.004260  -0.000069  -0.000133  -0.000296
    11  C   -0.031789  -0.000072   0.000072   0.000004   0.000002  -0.000010
    12  C    0.000157  -0.028025  -0.038150   0.001075   0.003789  -0.002414
    13  C    0.005021   0.005906  -0.007424   0.003589  -0.001630  -0.068074
    14  C   -0.034816  -0.000157   0.000045  -0.000157  -0.000121  -0.009159
    15  C    0.380987  -0.000004  -0.000022   0.000004   0.000004   0.000130
    16  C    0.000009   0.379458   0.385716  -0.033000  -0.026017   0.003545
    17  C    0.000003  -0.029407  -0.032862   0.379418   0.372355  -0.049048
    18  C   -0.000087   0.003111   0.001546  -0.027651  -0.031698   0.387876
    19  C   -0.000070   0.000041   0.003842   0.000193   0.000796   0.007826
    20  O    0.000001  -0.000038   0.000010   0.001866   0.002496  -0.040679
    21  H    0.000000  -0.000000   0.000000   0.000000   0.000000  -0.000000
    22  H    0.000023   0.000000  -0.000002  -0.000000  -0.000000  -0.000000
    23  H    0.000757   0.000000  -0.000000  -0.000000  -0.000000  -0.000000
    24  H    0.001846  -0.000000  -0.000000  -0.000000   0.000000   0.000000
    25  H    0.000011   0.000000  -0.000000   0.000000  -0.000000  -0.000000
    26  H    0.000002  -0.000000   0.000000   0.000000   0.000000   0.000000
    27  H   -0.000000   0.000001   0.000000   0.000000   0.000000   0.000000
    28  H    0.000000   0.000004  -0.000002  -0.000000   0.000000  -0.000000
    29  H   -0.000003   0.000264   0.000051  -0.000000   0.000000  -0.000002
    30  H    0.000002   0.001046   0.000398   0.000002   0.000002  -0.000000
    31  H   -0.000069  -0.000139   0.003978   0.000002  -0.000006  -0.000010
    32  H   -0.004600  -0.000001   0.000003  -0.000000  -0.000000  -0.000007
    33  H   -0.000069  -0.005992   0.005379   0.000909  -0.000017   0.005048
    34  H   -0.004202  -0.000001  -0.000008  -0.000019  -0.000000   0.006258
    35  H   -0.002550   0.000003   0.000004   0.000001   0.000000   0.000120
    36  H   -0.031370   0.000000  -0.000008   0.000000  -0.000000  -0.000003
    37  H    0.556625  -0.000000  -0.000000  -0.000000  -0.000000  -0.000004
    38  H   -0.000000   0.550888  -0.032560  -0.006936   0.002164  -0.000155
    39  H   -0.000000  -0.032560   0.560376   0.003849  -0.008407  -0.000191
    40  H   -0.000000  -0.006936   0.003849   0.541833  -0.026081  -0.007216
    41  H   -0.000000   0.002164  -0.008407  -0.026081   0.523871   0.004851
    42  H   -0.000004  -0.000155  -0.000191  -0.007216   0.004851   0.636026
    43  H    0.000045  -0.000039   0.000564   0.000001   0.000024  -0.000084
    44  H   -0.000001   0.000034  -0.000334  -0.000061   0.001387   0.000390
    45  H   -0.000064  -0.000001   0.000032  -0.000001   0.000009  -0.000095
    46  H    0.000002   0.000005   0.000003  -0.000224  -0.000078  -0.003008
              43         44         45         46
     1  C   -0.000000  -0.000000   0.000000  -0.000000
     2  O   -0.000000   0.000000   0.000000   0.000000
     3  C   -0.000000   0.000000  -0.000000  -0.000000
     4  C    0.000003   0.000000   0.000000   0.000000
     5  C    0.000017  -0.000001  -0.000006  -0.000000
     6  C    0.000002  -0.000000   0.000000   0.000000
     7  C    0.000000   0.000000  -0.000000   0.000000
     8  C    0.000010  -0.000000  -0.000000   0.000000
     9  C   -0.000069  -0.000010   0.000000   0.000000
    10  C    0.001783   0.000037  -0.000008  -0.000003
    11  C   -0.000182  -0.000009   0.000159   0.000001
    12  C   -0.006323  -0.001423   0.005281   0.000315
    13  C   -0.035060  -0.033417  -0.031906  -0.004995
    14  C   -0.001933   0.004347  -0.006500   0.002343
    15  C    0.000699   0.000154  -0.001264  -0.000079
    16  C   -0.000611   0.000867  -0.000081  -0.000334
    17  C   -0.000155   0.002737  -0.000022   0.007274
    18  C    0.004898  -0.007815  -0.003082  -0.027837
    19  C    0.373263   0.383086   0.377479  -0.001156
    20  O    0.000498   0.003162   0.002365   0.243398
    21  H   -0.000000  -0.000000   0.000000   0.000000
    22  H   -0.000001   0.000001   0.000001  -0.000000
    23  H   -0.000000   0.000000   0.000000   0.000000
    24  H   -0.000000   0.000000  -0.000000   0.000000
    25  H    0.000000   0.000000   0.000000   0.000000
    26  H    0.000000  -0.000000  -0.000000   0.000000
    27  H   -0.000000   0.000000   0.000000   0.000000
    28  H   -0.000007   0.000000   0.000000   0.000000
    29  H   -0.000001   0.000000   0.000000   0.000000
    30  H    0.000002   0.000000  -0.000000   0.000000
    31  H    0.004731  -0.000010  -0.000070   0.000000
    32  H   -0.000021   0.000002   0.000002   0.000000
    33  H    0.000068  -0.000103  -0.000126  -0.000009
    34  H   -0.000162  -0.000137   0.000163  -0.000028
    35  H   -0.000061   0.000033   0.006056   0.002412
    36  H   -0.000050  -0.000000   0.000912  -0.000000
    37  H    0.000045  -0.000001  -0.000064   0.000002
    38  H   -0.000039   0.000034  -0.000001   0.000005
    39  H    0.000564  -0.000334   0.000032   0.000003
    40  H    0.000001  -0.000061  -0.000001  -0.000224
    41  H    0.000024   0.001387   0.000009  -0.000078
    42  H   -0.000084   0.000390  -0.000095  -0.003008
    43  H    0.554519  -0.026991  -0.028650  -0.000071
    44  H   -0.026991   0.513616  -0.023686   0.000020
    45  H   -0.028650  -0.023686   0.543221   0.000772
    46  H   -0.000071   0.000020   0.000772   0.375134
 Mulliken charges:
               1
     1  C    0.458371
     2  O   -0.505645
     3  C   -0.277221
     4  C    0.172385
     5  C   -0.183285
     6  C   -0.333325
     7  C   -0.403675
     8  C   -0.385911
     9  C   -0.307307
    10  C   -0.131728
    11  C   -0.116945
    12  C   -0.124854
    13  C    0.018961
    14  C   -0.316296
    15  C   -0.317881
    16  C   -0.321981
    17  C   -0.346814
    18  C    0.134701
    19  C   -0.511905
    20  O   -0.653082
    21  H    0.169476
    22  H    0.161657
    23  H    0.168722
    24  H    0.168446
    25  H    0.179473
    26  H    0.191888
    27  H    0.181696
    28  H    0.180447
    29  H    0.158539
    30  H    0.166923
    31  H    0.136077
    32  H    0.141826
    33  H    0.133404
    34  H    0.148172
    35  H    0.140023
    36  H    0.153953
    37  H    0.164512
    38  H    0.161145
    39  H    0.158848
    40  H    0.168674
    41  H    0.182438
    42  H    0.128378
    43  H    0.159342
    44  H    0.184124
    45  H    0.159108
    46  H    0.406144
 Sum of Mulliken charges =  -0.00000
 Mulliken charges with hydrogens summed into heavy atoms:
               1
     1  C    0.458371
     2  O   -0.505645
     3  C   -0.107744
     4  C    0.172385
     5  C   -0.021628
     6  C    0.003843
     7  C   -0.032315
     8  C   -0.023767
     9  C    0.018155
    10  C    0.004350
    11  C    0.024882
    12  C    0.008550
    13  C    0.018961
    14  C   -0.028101
    15  C    0.000584
    16  C   -0.001987
    17  C    0.004297
    18  C    0.263079
    19  C   -0.009330
    20  O   -0.246938
 Electronic spatial extent (au):  <R**2>=           6862.4410
 Charge=             -0.0000 electrons
 Dipole moment (field-independent basis, Debye):
    X=             -3.5496    Y=             -0.3742    Z=              0.3413  Tot=              3.5855
 Quadrupole moment (field-independent basis, Debye-Ang):
   XX=           -171.5097   YY=           -112.0768   ZZ=           -118.9181
   XY=              1.2782   XZ=              6.0661   YZ=              0.6451
 Traceless Quadrupole moment (field-independent basis, Debye-Ang):
   XX=            -37.3415   YY=             22.0914   ZZ=             15.2501
   XY=              1.2782   XZ=              6.0661   YZ=              0.6451
 Octapole moment (field-independent basis, Debye-Ang**2):
  XXX=           -190.5120  YYY=            -13.2088  ZZZ=             -1.8957  XYY=             -7.9890
  XXY=             -6.8124  XXZ=             13.4268  XZZ=             -1.9345  YZZ=             -1.2262
  YYZ=             -2.6626  XYZ=             -3.4431
 Hexadecapole moment (field-independent basis, Debye-Ang**3):
 XXXX=          -9487.3760 YYYY=          -1373.8939 ZZZZ=           -402.8907 XXXY=             13.8123
 XXXZ=            149.9705 YYYX=             84.5652 YYYZ=             -0.9947 ZZZX=              7.7465
 ZZZY=              3.8802 XXYY=          -1283.5932 XXZZ=          -1235.9342 YYZZ=           -305.6907
 XXYZ=             10.3674 YYXZ=              3.9016 ZZXY=             -3.9847
 N-N= 1.670521119650D+03 E-N=-5.318270292003D+03  KE= 8.443776948729D+02

 **********************************************************************

            Electrostatic Properties Using The SCF Density.

 **********************************************************************

       Atomic Center    1 is at   4.696872 -0.152926 -0.062250
       Atomic Center    2 is at   5.909442 -0.095759 -0.291697
       Atomic Center    3 is at   3.829188  0.983208 -0.098481
       Atomic Center    4 is at   2.492691  0.912610  0.103412
       Atomic Center    5 is at   1.789940 -0.402291  0.288756
       Atomic Center    6 is at   2.652301 -1.549560 -0.245118
       Atomic Center    7 is at   4.055612 -1.453649  0.331406
       Atomic Center    8 is at   1.705151  2.149382  0.284337
       Atomic Center    9 is at   0.279863  2.090630 -0.250343
       Atomic Center   10 is at  -0.412376  0.812862  0.212336
       Atomic Center   11 is at   0.377194 -0.391062 -0.329090
       Atomic Center   12 is at  -1.844384  0.747455 -0.301111
       Atomic Center   13 is at  -2.562533 -0.564794  0.043960
       Atomic Center   14 is at  -1.792557 -1.719425 -0.587740
       Atomic Center   15 is at  -0.348782 -1.719925 -0.082469
       Atomic Center   16 is at  -2.845345  1.808069  0.156086
       Atomic Center   17 is at  -4.200382  1.208692 -0.262443
       Atomic Center   18 is at  -3.939594 -0.277113 -0.590114
       Atomic Center   19 is at  -2.740940 -0.803820  1.547595
       Atomic Center   20 is at  -5.001064 -1.077178 -0.114746
       Atomic Center   21 is at   4.298813  1.946430 -0.246554
       Atomic Center   22 is at   1.684672 -0.532662  1.374843
       Atomic Center   23 is at   2.697196 -1.496490 -1.336532
       Atomic Center   24 is at   2.221243 -2.512914  0.027727
       Atomic Center   25 is at   3.995021 -1.455594  1.424021
       Atomic Center   26 is at   4.690233 -2.285496  0.025358
       Atomic Center   27 is at   2.236839  3.008284 -0.124740
       Atomic Center   28 is at   1.665874  2.293958  1.379065
       Atomic Center   29 is at   0.292559  2.124327 -1.343627
       Atomic Center   30 is at  -0.271697  2.961788  0.100880
       Atomic Center   31 is at  -0.400181  0.795325  1.305770
       Atomic Center   32 is at   0.481208 -0.260413 -1.413142
       Atomic Center   33 is at  -1.796733  0.798846 -1.396229
       Atomic Center   34 is at  -1.802577 -1.615652 -1.675498
       Atomic Center   35 is at  -2.255625 -2.676062 -0.335012
       Atomic Center   36 is at  -0.348328 -1.937537  0.987008
       Atomic Center   37 is at   0.183932 -2.527661 -0.587149
       Atomic Center   38 is at  -2.673106  2.775103 -0.311598
       Atomic Center   39 is at  -2.786165  1.940495  1.235914
       Atomic Center   40 is at  -4.597639  1.720138 -1.137050
       Atomic Center   41 is at  -4.944374  1.271725  0.530764
       Atomic Center   42 is at  -3.851522 -0.404945 -1.678711
       Atomic Center   43 is at  -1.860603 -0.510209  2.110098
       Atomic Center   44 is at  -3.590648 -0.244765  1.927143
       Atomic Center   45 is at  -2.924391 -1.861280  1.721100
       Atomic Center   46 is at  -4.762533 -2.001302 -0.264687
 -----------------------------------------------------------------

              Electrostatic Properties (Atomic Units)

 -----------------------------------------------------------------
    Center     Electric         -------- Electric Field --------
               Potential          X             Y             Z
 -----------------------------------------------------------------
    1 Atom    -14.675024      0.001731     -0.003816     -0.000551
    2 Atom    -22.352160      0.104754      0.004478     -0.020152
    3 Atom    -14.750378     -0.008960      0.000781      0.001301
    4 Atom    -14.712167      0.012635     -0.000401     -0.002128
    5 Atom    -14.720060     -0.002100     -0.004206     -0.003046
    6 Atom    -14.733267     -0.000404     -0.000613      0.000561
    7 Atom    -14.744282      0.002026     -0.000566     -0.002923
    8 Atom    -14.727981     -0.002146      0.002879     -0.000695
    9 Atom    -14.734544     -0.002290     -0.002194      0.000533
   10 Atom    -14.731994     -0.001081      0.000292     -0.003709
   11 Atom    -14.726796     -0.002111      0.000520      0.002150
   12 Atom    -14.739016     -0.000398     -0.001472      0.004323
   13 Atom    -14.736316     -0.001582      0.001597     -0.003275
   14 Atom    -14.738680     -0.001326      0.004349      0.001948
   15 Atom    -14.736599     -0.000123      0.000432     -0.001049
   16 Atom    -14.742703      0.001369     -0.000731     -0.000598
   17 Atom    -14.747060     -0.002382     -0.001098      0.000809
   18 Atom    -14.693898      0.019815      0.012249     -0.005503
   19 Atom    -14.751480     -0.001034      0.001250     -0.001643
   20 Atom    -22.313413     -0.096459      0.043341      0.047055
   21 Atom     -1.108864      0.017686      0.032383     -0.005378
   22 Atom     -1.102482     -0.006049     -0.006953      0.033757
   23 Atom     -1.116962      0.000400     -0.000441     -0.033085
   24 Atom     -1.117861     -0.013547     -0.028784      0.006204
   25 Atom     -1.106807      0.000206     -0.004680      0.034316
   26 Atom     -1.119917      0.021825     -0.021752     -0.008718
   27 Atom     -1.109543      0.016988      0.026594     -0.011179
   28 Atom     -1.100976     -0.002541      0.009703      0.027766
   29 Atom     -1.116921     -0.001155      0.003027     -0.032752
   30 Atom     -1.118027     -0.017528      0.028044      0.008779
   31 Atom     -1.116299     -0.001865     -0.001050      0.034920
   32 Atom     -1.117265      0.003330      0.003812     -0.033738
   33 Atom     -1.122614      0.002100      0.001797     -0.034194
   34 Atom     -1.119687     -0.001284      0.001170     -0.034044
   35 Atom     -1.118214     -0.013162     -0.030883      0.005023
   36 Atom     -1.118651      0.001698     -0.009941      0.033272
   37 Atom     -1.120566      0.016603     -0.024659     -0.012098
   38 Atom     -1.125579      0.005397      0.030956     -0.012723
   39 Atom     -1.125199      0.001199      0.005848      0.033704
   40 Atom     -1.128446     -0.015406      0.016030     -0.024877
   41 Atom     -1.127306     -0.024615      0.000809      0.022114
   42 Atom     -1.131263      0.001897     -0.003578     -0.032654
   43 Atom     -1.120025      0.027221      0.007376      0.021269
   44 Atom     -1.124473     -0.028493      0.013659      0.014348
   45 Atom     -1.120649     -0.007830     -0.031772      0.010916
   46 Atom     -0.997454      0.006075     -0.043454     -0.005894
 -----------------------------------------------------------------
 -----------------------------------------------------
    Center         ---- Electric Field Gradient ----
                     XX            YY            ZZ
 -----------------------------------------------------
    1 Atom     -493.351029   -493.275219   -493.981125
    2 Atom    -1217.086651  -1214.566962  -1217.521496
    3 Atom     -493.147441   -493.209427   -493.445553
    4 Atom     -493.204723   -493.291083   -493.856944
    5 Atom     -492.765239   -492.803114   -492.790423
    6 Atom     -492.651626   -492.616356   -492.615329
    7 Atom     -492.740502   -492.750314   -492.769132
    8 Atom     -492.599756   -492.636045   -492.627480
    9 Atom     -492.694077   -492.642208   -492.656759
   10 Atom     -492.784119   -492.802562   -492.798345
   11 Atom     -492.836855   -492.799080   -492.808272
   12 Atom     -492.930274   -492.940770   -492.933194
   13 Atom     -492.957197   -492.967219   -493.003597
   14 Atom     -492.742790   -492.725227   -492.726870
   15 Atom     -492.660027   -492.650660   -492.628668
   16 Atom     -492.681406   -492.628709   -492.615597
   17 Atom     -492.657327   -492.693347   -492.622525
   18 Atom     -492.878343   -492.798723   -492.687208
   19 Atom     -492.558952   -492.584559   -492.622486
   20 Atom    -1214.357023  -1215.885757  -1212.984708
   21 Atom       -1.702098     -1.983952     -1.608664
   22 Atom       -1.626089     -1.628835     -2.030859
   23 Atom       -1.624865     -1.621233     -2.054641
   24 Atom       -1.705967     -1.978704     -1.658198
   25 Atom       -1.608689     -1.607076     -2.041763
   26 Atom       -1.757925     -1.869674     -1.644379
   27 Atom       -1.734336     -1.900059     -1.682380
   28 Atom       -1.604013     -1.612044     -2.004081
   29 Atom       -1.628183     -1.627095     -2.060745
   30 Atom       -1.748213     -1.918734     -1.676983
   31 Atom       -1.643095     -1.641683     -2.073240
   32 Atom       -1.643386     -1.646349     -2.050903
   33 Atom       -1.653348     -1.646529     -2.065212
   34 Atom       -1.632167     -1.634916     -2.065267
   35 Atom       -1.720879     -1.973642     -1.658243
   36 Atom       -1.631880     -1.647285     -2.053715
   37 Atom       -1.743521     -1.876155     -1.725048
   38 Atom       -1.645770     -1.991444     -1.717341
   39 Atom       -1.633651     -1.637490     -2.071341
   40 Atom       -1.691685     -1.734705     -1.924921
   41 Atom       -1.820647     -1.615445     -1.853663
   42 Atom       -1.681763     -1.684765     -2.080293
   43 Atom       -1.927662     -1.651937     -1.745914
   44 Atom       -1.884133     -1.731783     -1.671090
   45 Atom       -1.625443     -2.051436     -1.633480
   46 Atom       -1.499163     -2.069098     -1.442180
 -----------------------------------------------------
 -----------------------------------------------------
    Center         ---- Electric Field Gradient ----
                     XY            XZ            YZ
 -----------------------------------------------------
    1 Atom       -0.033809     -0.110869     -0.136088
    2 Atom       -0.183184     -0.043227     -0.529940
    3 Atom       -0.010069     -0.047248     -0.025533
    4 Atom       -0.004635     -0.088397     -0.007897
    5 Atom       -0.019606     -0.009854     -0.004300
    6 Atom        0.024349     -0.004603     -0.026709
    7 Atom       -0.008284     -0.038511      0.000765
    8 Atom        0.021792     -0.020588     -0.008887
    9 Atom       -0.006638     -0.018206      0.020869
   10 Atom       -0.000140      0.007634     -0.001863
   11 Atom       -0.008370     -0.015554     -0.008143
   12 Atom        0.012045     -0.010608      0.001985
   13 Atom        0.002631      0.008788      0.004397
   14 Atom       -0.015425     -0.012216     -0.010440
   15 Atom       -0.019201     -0.008568      0.015151
   16 Atom       -0.002493     -0.005321     -0.015685
   17 Atom       -0.012318     -0.022223     -0.036944
   18 Atom       -0.189802      0.113477      0.107099
   19 Atom       -0.011774     -0.001488      0.016909
   20 Atom       -0.474725      0.833743      0.122092
   21 Atom       -0.173210      0.029010      0.057216
   22 Atom       -0.004460      0.042510      0.051007
   23 Atom        0.000968      0.016146      0.020375
   24 Atom       -0.154930      0.043639      0.097747
   25 Atom       -0.001553      0.025420      0.002415
   26 Atom        0.195832      0.071032     -0.096492
   27 Atom       -0.168321      0.081731      0.132697
   28 Atom        0.005113      0.016626     -0.055229
   29 Atom       -0.002462      0.003871      0.012625
   30 Atom        0.179693      0.071923     -0.115986
   31 Atom       -0.001481     -0.004113      0.008743
   32 Atom       -0.004994      0.039025      0.050447
   33 Atom       -0.001537      0.018629      0.018913
   34 Atom        0.001739     -0.004457      0.041788
   35 Atom       -0.164874      0.044105      0.088804
   36 Atom       -0.002361     -0.002410      0.086573
   37 Atom        0.158950      0.099099     -0.150938
   38 Atom       -0.064880      0.029951      0.173559
   39 Atom       -0.003005     -0.023553     -0.053892
   40 Atom        0.076278     -0.133034      0.170059
   41 Atom        0.019404      0.221741     -0.021515
   42 Atom       -0.002269      0.036229     -0.047319
   43 Atom       -0.103233     -0.194033     -0.062915
   44 Atom        0.188333      0.127419     -0.080156
   45 Atom       -0.076426      0.013071      0.069699
   46 Atom        0.149101      0.045906     -0.097904
 -----------------------------------------------------
 -----------------------------------------------------
    Center         ---- Electric Field Gradient ----
                   ----       Eigenvalues       ----
 -----------------------------------------------------
    1 Atom     -494.026111   -493.333330   -493.247932
    2 Atom    -1217.624040  -1217.087708  -1214.463360
    3 Atom     -493.455773   -493.207058   -493.139590
    4 Atom     -493.868836   -493.291088   -493.192826
    5 Atom     -492.814116   -492.789347   -492.755313
    6 Atom     -492.665692   -492.634808   -492.582811
    7 Atom     -492.796273   -492.751331   -492.712344
    8 Atom     -492.646305   -492.637828   -492.579148
    9 Atom     -492.701546   -492.667863   -492.623635
   10 Atom     -492.803847   -492.800416   -492.780763
   11 Atom     -492.846243   -492.803653   -492.794311
   12 Atom     -492.951995   -492.934354   -492.917889
   13 Atom     -493.005594   -492.967761   -492.954657
   14 Atom     -492.759470   -492.720699   -492.714719
   15 Atom     -492.675282   -492.649567   -492.614505
   16 Atom     -492.682114   -492.638568   -492.605030
   17 Atom     -492.716206   -492.654956   -492.602036
   18 Atom     -493.092283   -492.649809   -492.622183
   19 Atom     -492.629046   -492.583496   -492.553455
   20 Atom    -1216.064591  -1214.574487  -1212.588410
   21 Atom       -2.075140     -1.619856     -1.599718
   22 Atom       -2.041625     -1.623002     -1.621156
   23 Atom       -2.056196     -1.624906     -1.619637
   24 Atom       -2.076148     -1.635982     -1.630737
   25 Atom       -2.043265     -1.608543     -1.605721
   26 Atom       -2.052609     -1.611125     -1.608244
   27 Atom       -2.067822     -1.629630     -1.619324
   28 Atom       -2.012435     -1.606694     -1.601009
   29 Atom       -2.061148     -1.629891     -1.624985
   30 Atom       -2.078727     -1.634884     -1.630320
   31 Atom       -2.073456     -1.644027     -1.640535
   32 Atom       -2.060807     -1.640225     -1.639606
   33 Atom       -2.066909     -1.652574     -1.645606
   34 Atom       -2.069336     -1.632947     -1.630067
   35 Atom       -2.078399     -1.639534     -1.634831
   36 Atom       -2.071396     -1.633757     -1.627728
   37 Atom       -2.075180     -1.637811     -1.631734
   38 Atom       -2.087106     -1.635128     -1.632321
   39 Atom       -2.079200     -1.632395     -1.630886
   40 Atom       -2.084519     -1.635501     -1.631291
   41 Atom       -2.061392     -1.614927     -1.613436
   42 Atom       -2.089008     -1.685386     -1.672428
   43 Atom       -2.084800     -1.623462     -1.617252
   44 Atom       -2.068136     -1.615870     -1.603000
   45 Atom       -2.076093     -1.622204     -1.612063
   46 Atom       -2.122295     -1.471977     -1.416169
 -----------------------------------------------------
 -----------------------------------------------------
    Center         ---- Electric Field Gradient ----
                       ( tensor representation )
                   3XX-RR        3YY-RR        3ZZ-RR
 -----------------------------------------------------
    1 Atom        0.184762      0.260572     -0.445334
    2 Atom       -0.694948      1.824741     -1.129793
    3 Atom        0.120033      0.058047     -0.178079
    4 Atom        0.246193      0.159834     -0.406027
    5 Atom        0.021019     -0.016856     -0.004164
    6 Atom       -0.023856      0.011415      0.012441
    7 Atom        0.012814      0.003002     -0.015816
    8 Atom        0.021337     -0.014951     -0.006386
    9 Atom       -0.029729      0.022140      0.007589
   10 Atom        0.010889     -0.007553     -0.003336
   11 Atom       -0.022119      0.015655      0.006464
   12 Atom        0.004472     -0.006024      0.001552
   13 Atom        0.018807      0.008785     -0.027592
   14 Atom       -0.011161      0.006402      0.004759
   15 Atom       -0.013575     -0.004208      0.017783
   16 Atom       -0.039502      0.013195      0.026307
   17 Atom        0.000406     -0.035614      0.035208
   18 Atom       -0.090252     -0.010632      0.100883
   19 Atom        0.029713      0.004106     -0.033820
   20 Atom        0.052140     -1.476594      1.424454
   21 Atom        0.062807     -0.219047      0.156241
   22 Atom        0.135839      0.133093     -0.268931
   23 Atom        0.142048      0.145680     -0.287728
   24 Atom        0.074989     -0.197748      0.122758
   25 Atom        0.143820      0.145433     -0.289254
   26 Atom       -0.000599     -0.112348      0.112947
   27 Atom        0.037923     -0.127801      0.089878
   28 Atom        0.136033      0.128002     -0.264035
   29 Atom        0.143825      0.144913     -0.288737
   30 Atom        0.033097     -0.137424      0.104327
   31 Atom        0.142911      0.144323     -0.287234
   32 Atom        0.136827      0.133864     -0.270691
   33 Atom        0.135015      0.141834     -0.276849
   34 Atom        0.145283      0.142534     -0.287817
   35 Atom        0.063376     -0.189387      0.126011
   36 Atom        0.145747      0.130342     -0.276088
   37 Atom        0.038054     -0.094580      0.056527
   38 Atom        0.139082     -0.206592      0.067510
   39 Atom        0.147177      0.143337     -0.290514
   40 Atom        0.092085      0.049065     -0.141150
   41 Atom       -0.057395      0.147807     -0.090411
   42 Atom        0.133844      0.130842     -0.264686
   43 Atom       -0.152491      0.123234      0.029257
   44 Atom       -0.121798      0.030553      0.091245
   45 Atom        0.144677     -0.281317      0.136640
   46 Atom        0.170984     -0.398951      0.227967
 -----------------------------------------------------
 -----------------------------------------------------
    Center         ---- Electric Field Gradient ----
                       ( tensor representation )
                   ----       Eigenvalues       ----
 -----------------------------------------------------
    1 Atom       -0.490320      0.202461      0.287859
    2 Atom       -1.232338     -0.696005      1.928343
    3 Atom       -0.188300      0.060416      0.127883
    4 Atom       -0.417919      0.159829      0.258090
    5 Atom       -0.027857     -0.003089      0.030946
    6 Atom       -0.037922     -0.007037      0.044959
    7 Atom       -0.042957      0.001985      0.040972
    8 Atom       -0.025211     -0.016734      0.041945
    9 Atom       -0.037198     -0.003515      0.040713
   10 Atom       -0.008838     -0.005408      0.014246
   11 Atom       -0.031508      0.011083      0.020425
   12 Atom       -0.017249      0.000392      0.016857
   13 Atom       -0.029590      0.008243      0.021347
   14 Atom       -0.027840      0.010930      0.016910
   15 Atom       -0.028831     -0.003116      0.031946
   16 Atom       -0.040210      0.003337      0.036874
   17 Atom       -0.058473      0.002777      0.055697
   18 Atom       -0.304191      0.138283      0.165909
   19 Atom       -0.040380      0.005170      0.035211
   20 Atom       -1.655428     -0.165325      1.820753
   21 Atom       -0.310235      0.145049      0.165186
   22 Atom       -0.279697      0.138925      0.140772
   23 Atom       -0.289283      0.142007      0.147276
   24 Atom       -0.295192      0.144974      0.150219
   25 Atom       -0.290755      0.143966      0.146789
   26 Atom       -0.295283      0.146201      0.149082
   27 Atom       -0.295563      0.142629      0.152935
   28 Atom       -0.272389      0.133352      0.139037
   29 Atom       -0.289140      0.142117      0.147023
   30 Atom       -0.297417      0.146426      0.150991
   31 Atom       -0.287450      0.141979      0.145471
   32 Atom       -0.280594      0.139988      0.140607
   33 Atom       -0.278546      0.135789      0.142757
   34 Atom       -0.291886      0.144503      0.147383
   35 Atom       -0.294145      0.144721      0.149424
   36 Atom       -0.293769      0.143870      0.149899
   37 Atom       -0.293605      0.143764      0.149841
   38 Atom       -0.302254      0.149723      0.152530
   39 Atom       -0.298373      0.148432      0.149941
   40 Atom       -0.300749      0.148269      0.152480
   41 Atom       -0.298140      0.148324      0.149816
   42 Atom       -0.273401      0.130221      0.143179
   43 Atom       -0.309629      0.151709      0.157919
   44 Atom       -0.305801      0.146465      0.159336
   45 Atom       -0.305973      0.147915      0.158057
   46 Atom       -0.452148      0.198170      0.253978
 -----------------------------------------------------
 Unable to Open any file for archive entry.
 1\1\GINC-EXP-3-51\SP\RwB97XD\6-31G(d)\C18H26O2\HKLEM\12-Aug-2024\0\\# 
 wb97xd 6-31G(d) prop=efg\\19nt_xstal_distance_cutoff6_xtb_ligand_conf_
 1\\0,1\C,0,43.7844,42.2424,31.5135\O,0,43.745,41.2379,32.2316\C,0,43.4
 989,43.563,31.982\C,0,43.5909,44.6694,31.2078\C,0,44.103,44.6061,29.79
 68\C,0,44.9016,43.3185,29.5749\C,0,44.094,42.1207,30.0481\C,0,43.0555,
 45.9583,31.6922\C,0,43.8143,47.1912,31.2179\C,0,44.0621,47.1209,29.714
 7\C,0,44.9043,45.8682,29.419\C,0,44.806,48.355,29.2226\C,0,45.1776,48.
 2968,27.7342\C,0,46.0831,47.0911,27.5074\C,0,45.3719,45.8143,27.9588\C
 ,0,44.137,49.7234,29.3482\C,0,45.0057,50.6178,28.4449\C,0,45.8713,49.6
 676,27.59\C,0,43.9714,48.2414,26.7898\O,0,45.975,50.1547,26.2691\H,0,4
 3.1429,43.6491,32.9999\H,0,43.2098,44.5669,29.1578\H,0,45.8428,43.3714
 ,30.1293\H,0,45.1396,43.1916,28.5187\H,0,43.1332,42.1069,29.5245\H,0,4
 4.5992,41.1742,29.855\H,0,42.9642,45.9541,32.7782\H,0,42.0277,45.9994,
 31.2887\H,0,44.7711,47.2623,31.7433\H,0,43.2374,48.083,31.4595\H,0,43.
 0939,47.0364,29.2132\H,0,45.7958,45.9085,30.0567\H,0,45.7507,48.4049,2
 9.7787\H,0,47.0098,47.2166,28.0727\H,0,46.342,46.9964,26.4503\H,0,44.5
 108,45.6411,27.311\H,0,46.0623,44.9797,27.8257\H,0,44.1178,50.0872,30.
 3733\H,0,43.1097,49.6743,28.9886\H,0,45.6424,51.2692,29.0404\H,0,44.40
 81,51.2444,27.7839\H,0,46.8778,49.5924,28.0264\H,0,43.1884,47.595,27.1
 728\H,0,43.5538,49.2325,26.6417\H,0,44.2923,47.8595,25.8238\H,0,46.451
 6,49.4946,25.749\\Version=ES64L-G16RevC.01\State=1-A\HF=-851.790984\RM
 SD=5.226e-09\Dipole=0.1950969,1.1238292,-0.8299855\Quadrupole=12.89904
 6,-16.913216,4.01417,-3.613705,-0.3458918,18.9354253\PG=C01 [X(C18H26O
 2)]\\@
 The archive entry for this job was punched.


 NEVER LISTEN TO CRITICISM
 OR YOU'LL BE DOIN' EVERYBODY ELSE'S THING BUT BUT YOUR OWN.

                                               -- ANDY CAPP
 Job cpu time:       0 days  0 hours 10 minutes 16.8 seconds.
 Elapsed time:       0 days  0 hours  0 minutes 26.0 seconds.
 File lengths (MBytes):  RWF=     71 Int=      0 D2E=      0 Chk=      8 Scr=      1
 Normal termination of Gaussian 16 at Mon Aug 12 07:19:57 2024.
