 Entering Gaussian System, Link 0=g16
 Input=cutoff7_elecfield.com
 Output=cutoff7_elecfield.log
 Initial command:
 /usr/local/packages/license/gaussian/g16-c01/g16/l1.exe "/work/arkanil/gauss_scratch/Gau-3462034.inp" -scrdir="/work/arkanil/gauss_scratch/"
 Entering Link 1 = /usr/local/packages/license/gaussian/g16-c01/g16/l1.exe PID=   3462037.
  
 Copyright (c) 1988-2019, Gaussian, Inc.  All Rights Reserved.
  
 This is part of the Gaussian(R) 16 program.  It is based on
 the Gaussian(R) 09 system (copyright 2009, Gaussian, Inc.),
 the Gaussian(R) 03 system (copyright 2003, Gaussian, Inc.),
 the Gaussian(R) 98 system (copyright 1998, Gaussian, Inc.),
 the Gaussian(R) 94 system (copyright 1995, Gaussian, Inc.),
 the Gaussian 92(TM) system (copyright 1992, Gaussian, Inc.),
 the Gaussian 90(TM) system (copyright 1990, Gaussian, Inc.),
 the Gaussian 88(TM) system (copyright 1988, Gaussian, Inc.),
 the Gaussian 86(TM) system (copyright 1986, Carnegie Mellon
 University), and the Gaussian 82(TM) system (copyright 1983,
 Carnegie Mellon University). Gaussian is a federally registered
 trademark of Gaussian, Inc.
  
 This software contains proprietary and confidential information,
 including trade secrets, belonging to Gaussian, Inc.
  
 This software is provided under written license and may be
 used, copied, transmitted, or stored only in accord with that
 written license.
  
 The following legend is applicable only to US Government
 contracts under FAR:
  
                    RESTRICTED RIGHTS LEGEND
  
 Use, reproduction and disclosure by the US Government is
 subject to restrictions as set forth in subparagraphs (a)
 and (c) of the Commercial Computer Software - Restricted
 Rights clause in FAR 52.227-19.
  
 Gaussian, Inc.
 340 Quinnipiac St., Bldg. 40, Wallingford CT 06492
  
  
 ---------------------------------------------------------------
 Warning -- This program may not be used in any manner that
 competes with the business of Gaussian, Inc. or will provide
 assistance to any competitor of Gaussian, Inc.  The licensee
 of this program is prohibited from giving any competitor of
 Gaussian, Inc. access to this program.  By using this program,
 the user acknowledges that Gaussian, Inc. is engaged in the
 business of creating and licensing software in the field of
 computational chemistry and represents and warrants to the
 licensee that it is not a competitor of Gaussian, Inc. and that
 it will not use this program in any manner prohibited above.
 ---------------------------------------------------------------
  

 Cite this work as:
 Gaussian 16, Revision C.01,
 M. J. Frisch, G. W. Trucks, H. B. Schlegel, G. E. Scuseria, 
 M. A. Robb, J. R. Cheeseman, G. Scalmani, V. Barone, 
 G. A. Petersson, H. Nakatsuji, X. Li, M. Caricato, A. V. Marenich, 
 J. Bloino, B. G. Janesko, R. Gomperts, B. Mennucci, H. P. Hratchian, 
 J. V. Ortiz, A. F. Izmaylov, J. L. Sonnenberg, D. Williams-Young, 
 F. Ding, F. Lipparini, F. Egidi, J. Goings, B. Peng, A. Petrone, 
 T. Henderson, D. Ranasinghe, V. G. Zakrzewski, J. Gao, N. Rega, 
 G. Zheng, W. Liang, M. Hada, M. Ehara, K. Toyota, R. Fukuda, 
 J. Hasegawa, M. Ishida, T. Nakajima, Y. Honda, O. Kitao, H. Nakai, 
 T. Vreven, K. Throssell, J. A. Montgomery, Jr., J. E. Peralta, 
 F. Ogliaro, M. J. Bearpark, J. J. Heyd, E. N. Brothers, K. N. Kudin, 
 V. N. Staroverov, T. A. Keith, R. Kobayashi, J. Normand, 
 K. Raghavachari, A. P. Rendell, J. C. Burant, S. S. Iyengar, 
 J. Tomasi, M. Cossi, J. M. Millam, M. Klene, C. Adamo, R. Cammi, 
 J. W. Ochterski, R. L. Martin, K. Morokuma, O. Farkas, 
 J. B. Foresman, and D. J. Fox, Gaussian, Inc., Wallingford CT, 2019.
 
 ******************************************
 Gaussian 16:  ES64L-G16RevC.01  3-Jul-2019
                29-Apr-2026 
 ******************************************
 %chk=ksi_reactant_trial.chk
 %nprocshared=64
 Will use up to   64 processors via shared memory.
 %mem=200GB
 --------------------------
 # wb97xd/6-31g(d) prop=efg
 --------------------------
 1/38=1,172=1/1;
 2/12=2,17=6,18=5,40=1/2;
 3/5=1,6=6,7=1,11=2,25=1,30=1,74=-58/1,2,3;
 4//1;
 5/5=2,38=5/2;
 6/7=2,8=2,9=2,10=2,14=1,28=1/1,2;
 99/5=1,9=1/99;
 -------------------------------
 None_sub_reg_combined_truncated
 -------------------------------
 Symbolic Z-matrix:
 Charge = -2 Multiplicity = 1
 H                    0    -3.43993   8.39663  -7.63893 
 C                    -1   -3.25884   8.10481  -6.5966 
 H                    0    -3.24148   9.01336  -5.99027 
 C                    0    -4.40236   7.17361  -6.12542 
 H                    0    -5.32874   7.75961  -6.1212 
 H                    0    -4.55384   6.3822   -6.87034 
 C                    0    -4.19905   6.52045  -4.77269 
 C                    0    -4.63028   7.09128  -3.57648 
 H                    0    -5.11229   8.06779  -3.58601 
 C                    0    -4.44783   6.44404  -2.34797 
 H                    0    -4.7467    6.93816  -1.42572 
 C                    0    -3.82235   5.19361  -2.30141 
 O                    0    -3.58785   4.50661  -1.16404 
 H                    0    -4.17328   4.75882  -0.42789 
 C                    0    -3.37916   4.61222  -3.49381 
 H                    0    -2.90307   3.63977  -3.43894 
 C                    0    -3.56468   5.27405  -4.69324 
 H                    0    -3.20534   4.81113  -5.60655 
 C                    0    -1.86517   7.50169  -6.46372 
 O                    0    -1.00976   8.01285  -5.75314 
 N                    0    -1.61926   6.36272  -7.16941 
 H                    0    -2.30229   6.01957  -7.82802 
 C                    -1   -0.29338   5.77197  -7.14736 
 H                    0     0.03957   5.76432  -6.10434 
 C                    0    -0.20794   4.36265  -7.73368 
 H                    0    -0.57945   4.40006  -8.76953 
 C                    0     1.26543   3.94383  -7.78565 
 H                    0     1.72629   3.99334  -6.79277 
 H                    0     1.3629    2.91347  -8.14402 
 H                    0     1.84271   4.5935   -8.45287 
 C                    0    -1.06889   3.33864  -6.98065 
 H                    0    -2.11708   3.64525  -7.07627 
 H                    0    -1.00062   2.37309  -7.49563 
 C                    0    -0.73193   3.14456  -5.50384 
 H                    0    -0.85925   4.07115  -4.93527 
 H                    0    -1.38094   2.38506  -5.0562 
 H                    0     0.29749   2.79735  -5.36584 
 H                    0     0.40595   6.42986  -7.68372 
 H                    0     1.29764   8.19919  -3.64507 
 C                    -1    1.82893   7.51313  -2.97228 
 H                    0     1.64584   7.85075  -1.94724 
 C                    0     1.25755   6.09404  -3.16361 
 H                    0     1.38331   5.80382  -4.21861 
 C                    0     1.98585   5.05709  -2.30475 
 H                    0     1.85224   5.27715  -1.23924 
 H                    0     1.59144   4.0518   -2.49471 
 H                    0     3.06195   5.0403   -2.5085 
 C                    0    -0.24361   6.09615  -2.87506 
 H                    0    -0.77602   6.80876  -3.51361 
 H                    0    -0.67599   5.1062   -3.04802 
 H                    0    -0.43728   6.3535   -1.82656 
 C                    0     3.31961   7.65044  -3.21356 
 O                    0     4.06949   8.19958  -2.40842 
 N                    0     3.77098   7.13663  -4.37935 
 H                    0     3.10635   6.73935  -5.02528 
 C                    -1    5.17091   7.16422  -4.76222 
 H                    0     5.76504   6.61463  -4.02205 
 C                    0     5.33956   6.55831  -6.15299 
 H                    0     4.95478   5.53345  -6.17463 
 H                    0     4.78722   7.16084  -6.88172 
 C                    0     6.83124   6.5963   -6.4872 
 O                    0     7.51032   5.552    -6.30021 
 O                    0     7.25997   7.72606  -6.8375 
 H                    0     5.53753   8.19484  -4.77754 
 H                    0    -2.90549   12.24365  -1.09868 
 C                    -1   -3.8142    11.63138  -1.10602 
 H                    0    -4.04935   11.39638  -2.15216 
 C                    0    -3.6257    10.34275  -0.29654 
 H                    0    -3.37315   10.62609   0.73686 
 C                    0    -4.92931   9.54363  -0.26326 
 H                    0    -5.22561   9.2551   -1.27949 
 H                    0    -4.83298   8.62916   0.33087 
 H                    0    -5.75415   10.12776   0.16132 
 C                    0    -2.45507   9.51225  -0.84756 
 H                    0    -2.71304   9.14452  -1.85118 
 H                    0    -1.58991   10.17572  -0.97849 
 C                    0    -2.04027   8.33453   0.03555 
 H                    0    -2.79835   7.54508   0.0711 
 H                    0    -1.11644   7.88116  -0.33628 
 H                    0    -1.85956   8.66036   1.06705 
 H                    0    -4.63635   12.23594  -0.70538 
 H                    0    -10.65686   10.58111  -1.51143 
 C                    -1   -10.79608   10.65914  -0.42778 
 H                    0    -11.52372   9.89667  -0.13125 
 C                    0    -9.46845   10.458    0.31203 
 H                    0    -8.76938   11.25274   0.02139 
 H                    0    -9.63203   10.56906   1.39013 
 C                    0    -8.83967   9.1113    0.03566 
 C                    0    -8.27496   8.83691  -1.21157 
 H                    0    -8.2782    9.60513  -1.98153 
 C                    0    -7.69056   7.60791  -1.4917 
 H                    0    -7.24709   7.41243  -2.46417 
 C                    0    -7.65497   6.63024  -0.50134 
 O                    0    -7.05011   5.41573  -0.69506 
 H                    0    -6.53076   5.43209  -1.5157 
 C                    0    -8.23479   6.86416   0.74215 
 H                    0    -8.23071   6.08046   1.49549 
 C                    0    -8.82035   8.09962   0.99806 
 H                    0    -9.26747   8.2759    1.97328 
 H                    0    -11.22192   11.64454  -0.21041 
 H                    0    -11.14994   2.45777   4.34895 
 C                    -1   -10.13497   2.28878   3.96393 
 H                    0    -10.23437   2.12088   2.88447 
 C                    0    -9.264     3.51707   4.25371 
 H                    0    -9.20003   3.6172    5.34378 
 C                    0    -7.84139   3.36026   3.70993 
 H                    0    -7.84358   3.20852   2.62345 
 H                    0    -7.23787   4.24995   3.93448 
 H                    0    -7.34048   2.4981    4.15935 
 C                    0    -9.92395   4.77377   3.67917 
 H                    0    -10.92945   4.92844   4.08818 
 H                    0    -9.32787   5.66874   3.90182 
 H                    0    -10.02036   4.69645   2.58727 
 C                    0    -9.62196   1.01402   4.64064 
 O                    0    -9.05256   1.03755   5.7293 
 N                    0    -9.89715  -0.13467   3.97542 
 H                    0    -10.26703  -0.09048   3.0282 
 C                    -1   -9.62607  -1.45145   4.53212 
 H                    0    -9.53213  -1.32866   5.61419 
 C                    0    -10.75001  -2.43381   4.18546 
 H                    0    -10.80811  -2.52211   3.09521 
 H                    0    -10.44972  -3.41867   4.56754 
 C                    0    -12.13682  -2.06958   4.71346 
 H                    0    -12.16765  -2.13706   5.80598 
 H                    0    -12.37203  -1.04038   4.41696 
 C                    0    -13.19678  -3.02173   4.09654 
 O                    0    -13.32626  -2.90041   2.84001 
 O                    0    -13.77472  -3.82093   4.85193 
 C                    0    -8.32057  -1.96798   3.9371 
 O                    0    -8.25211  -2.32008   2.75736 
 N                    0    -7.26349  -2.00033   4.77275 
 H                    0    -7.34607  -1.51465   5.65703 
 C                    -1   -5.92321  -2.18204   4.24564 
 H                    0    -6.02424  -2.84182   3.38663 
 C                    0    -5.38277  -0.8212    3.78029 
 H                    0    -6.02626  -0.45991   2.96835 
 H                    0    -5.47994  -0.09608   4.59476 
 C                    0    -3.93099  -0.81369   3.29582 
 O                    0    -3.33396  -1.91104   3.1999 
 O                    0    -3.44233   0.32289   3.02692 
 C                    0    -5.0337   -2.80065   5.32192 
 O                    0    -4.6192   -2.11301   6.2551 
 N                    0    -4.75688  -4.11688   5.21948 
 C                    0    -3.94152  -4.77246   6.23877 
 H                    0    -4.33344  -4.5458    7.23352 
 H                    0    -2.91402  -4.39381   6.18353 
 C                    0    -4.02365  -6.259     5.88224 
 H                    0    -4.86013  -6.71939   6.41387 
 H                    0    -3.10115  -6.79111   6.1308 
 C                    0    -4.30994  -6.25575   4.37661 
 H                    0    -4.78653  -7.17686   4.028 
 H                    0    -3.38809  -6.10667   3.80734 
 C                    -1   -5.22693  -5.03309   4.1839 
 H                    0    -5.08057  -4.60912   3.18814 
 C                    0    -6.68573  -5.44925   4.40766 
 O                    0    -7.11492  -5.70582   5.52684 
 N                    0    -7.38625  -5.57963   3.26391 
 H                    0    -6.93589  -5.33061   2.38881 
 C                    -1   -8.70971  -6.15436   3.21861 
 H                    0    -9.16461  -6.01475   4.20319 
 C                    0    -9.58682  -5.52398   2.13668 
 H                    0    -9.65974  -4.44663   2.32277 
 H                    0    -9.1098   -5.65528   1.15538 
 C                    0    -10.94944  -6.1753    2.14231 
 C                    0    -11.88883  -5.84926   3.1209 
 H                    0    -11.67833  -5.08211   3.85671 
 C                    0    -13.12617  -6.48061   3.16824 
 H                    0    -13.84215  -6.13746   3.90904 
 C                    0    -13.43639  -7.46567   2.23235 
 H                    0    -14.40549  -7.95942   2.25921 
 C                    0    -12.50845  -7.80175   1.24826 
 H                    0    -12.74539  -8.54201   0.48967 
 C                    0    -11.27331  -7.15988   1.20931 
 H                    0    -10.55038  -7.42572   0.44392 
 H                    0    -8.65007  -7.23938   3.04653 
 H                    0    -3.09809   6.8818    8.88315 
 C                    -1   -2.84984   5.91667   8.4224 
 H                    0    -2.47854   5.26599   9.22004 
 C                    0    -4.11333   5.3065    7.79007 
 H                    0    -4.89456   5.30441   8.55872 
 H                    0    -4.49179   5.94479   6.98172 
 C                    0    -3.91578   3.89972   7.27255 
 C                    0    -3.738     2.84506   8.17607 
 H                    0    -3.72249   3.05027   9.24512 
 C                    0    -3.61199   1.53561   7.71983 
 H                    0    -3.51175   0.71836   8.42825 
 C                    0    -3.65941   1.26253   6.35203 
 H                    0    -3.61968   0.23131   6.00977 
 C                    0    -3.8197    2.30799   5.44508 
 H                    0    -3.87082   2.07719   4.38457 
 C                    0    -3.94105   3.61839   5.90687 
 H                    0    -4.07926   4.42659   5.19143 
 C                    0    -1.69957   6.1468    7.46829 
 O                    0    -0.56485   5.69637   7.68741 
 N                    0    -1.94975   6.91173   6.39787 
 H                    0    -2.9018    7.1824    6.19904 
 C                    -1   -0.93311   7.20513   5.40641 
 H                    0    -0.40303   6.27691   5.16557 
 C                    0    -1.55707   7.81284   4.15096 
 H                    0    -2.01628   8.77795   4.40316 
 H                    0    -0.7367    8.03861   3.45792 
 C                    0    -2.57535   6.93143   3.45537 
 C                    0    -3.82023   7.43466   3.08191 
 H                    0    -4.08898   8.45687   3.34061 
 C                    0    -4.72155   6.67439   2.33497 
 H                    0    -5.67915   7.09221   2.03182 
 C                    0    -4.36585   5.38454   1.95634 
 O                    0    -5.12917   4.60874   1.13373 
 H                    0    -5.96684   5.02684   0.87153 
 C                    0    -3.15145   4.83727   2.37545 
 H                    0    -2.91841   3.80897   2.11505 
 C                    0    -2.26538   5.60835   3.11092 
 H                    0    -1.32191   5.15808   3.4153 
 H                    0    -0.19711   7.89809   5.8315 
 H                    0     1.73943   6.82383   9.08654 
 C                    -1    2.4305    6.04559   9.43752 
 H                    0     3.19112   6.52034   10.06047 
 C                    0     1.62517   4.99113   10.22434 
 H                    0     1.24284   4.22996   9.53747 
 H                    0     2.28668   4.47227   10.92688 
 C                    0     0.45328   5.63547   10.97491 
 H                    0     0.81141   6.42029   11.64702 
 H                    0    -0.21179   6.09421   10.23238 
 C                    0    -0.35566   4.66951   11.8324 
 O                    0    -0.44386   4.79885   13.04502 
 N                    0    -1.00681   3.68475   11.15157 
 H                    0    -1.44933   2.98053   11.72416 
 H                    0    -0.7911    3.43353   10.18287 
 C                    0     3.12918   5.4579    8.21287 
 O                    0     4.34992   5.37125   8.12197 
 N                    0     2.30313   5.02737   7.20995 
 H                    0     1.30114   5.13205   7.33253 
 C                    -1    2.76258   4.06131   6.22318 
 H                    0     3.18216   3.17715   6.71201 
 H                    0     1.9015    3.75162   5.61805 
 C                    0     3.82833   4.57415   5.26535 
 O                    0     4.62005   3.80673   4.72768 
 N                    0     3.77351   5.90558   5.02874 
 H                    0     3.04086   6.41541   5.50407 
 C                    -1    4.61893   6.60893   4.09281 
 H                    0     5.32189   5.86759   3.70028 
 C                    0     3.80422   7.22026   2.93395 
 H                    0     3.21278   8.05555   3.33753 
 H                    0     4.51207   7.65818   2.22256 
 C                    0     2.86127   6.25318   2.20602 
 H                    0     2.16778   5.82776   2.94648 
 C                    0     2.03581   7.02379   1.16904 
 H                    0     2.67897   7.40861   0.36741 
 H                    0     1.27679   6.37541   0.71469 
 H                    0     1.51388   7.87604   1.62161 
 C                    0     3.61724   5.10146   1.53827 
 H                    0     4.10527   4.45393   2.27448 
 H                    0     2.93201   4.47675   0.95231 
 H                    0     4.37734   5.49348   0.85103 
 C                    0     5.43635   7.72484   4.75058 
 O                    0     6.08889   8.50569   4.0698 
 N                    0     5.3272    7.83757   6.09811 
 H                    0     5.00317   7.04083   6.63645 
 C                    -1    6.0111    8.91672   6.77672 
 H                    0     5.78524   9.86142   6.27649 
 H                    0     5.66283   8.95782   7.81106 
 H                    0     7.09971   8.78392   6.77016 
 H                    0     9.09827   4.62686   0.5925 
 C                    -1    8.47245   3.90117   0.06214 
 H                    0     8.94602   2.91587   0.12443 
 C                    0     7.0764    3.84682   0.73062 
 H                    0     6.60631   4.82827   0.59066 
 C                    0     6.18233   2.77841   0.09348 
 H                    0     6.63981   1.7843    0.17934 
 H                    0     5.21147   2.74859   0.60004 
 H                    0     6.00353   2.96206  -0.97106 
 C                    0     7.23081   3.60591   2.23316 
 H                    0     7.87304   4.367     2.69351 
 H                    0     6.25974   3.64017   2.73946 
 H                    0     7.67471   2.62355   2.43378 
 C                    0     8.38124   4.36051  -1.36553 
 O                    0     8.25093   5.57451  -1.62337 
 N                    0     8.43787   3.42155  -2.31585 
 H                    0     8.50618   2.44805  -2.01462 
 C                    -1    8.1606    3.67566  -3.71741 
 H                    0     7.91664   4.73227  -3.83142 
 C                    0     9.35352   3.32779  -4.6313 
 H                    0     9.35346   2.2509   -4.84035 
 H                    0     9.1842    3.84255  -5.58265 
 C                    0     10.72056   3.68838  -4.04566 
 H                    0     10.91811   3.0714   -3.16176 
 H                    0     11.4891   3.4224   -4.78425 
 C                    0     10.91124   5.15076  -3.63218 
 H                    0     10.26322   5.40945  -2.79617 
 H                    0     11.94143   5.29388  -3.28345 
 N                    0     10.65583   6.07723  -4.72389 
 H                    0     11.06062   5.82202  -5.61206 
 C                    0     9.71306   7.04344  -4.79004 
 N                    0     8.85676   7.24704  -3.80628 
 H                    0     8.69393   6.568    -3.06048 
 H                    0     8.20883   8.0388   -3.76551 
 N                    0     9.70395   7.85602  -5.86455 
 H                    0     10.40836   7.64206  -6.55708 
 H                    0     8.74142   7.95581  -6.29888 
 C                    0     6.93804   2.83922  -4.11052 
 O                    0     6.63008   1.82916  -3.45923 
 N                    0     6.27537   3.26526  -5.18203 
 H                    0     6.62552   4.11329  -5.66207 
 C                    -1    5.0668    2.59025  -5.63207 
 H                    0     5.17723   1.51436  -5.49176 
 C                    0     3.82603   3.09196  -4.89345 
 H                    0     3.62142   4.14549  -5.11394 
 H                    0     2.94849   2.49895  -5.17328 
 H                    0     3.96803   3.0077   -3.81271 
 H                    0     4.97042   2.77149  -6.70709 
 H                    0    -6.5092   -1.77601  -9.76411 
 C                    -1   -5.45615  -1.83632  -10.06162 
 H                    0    -5.4203   -2.14083  -11.11235 
 C                    0    -4.74519  -0.50035  -9.85201 
 H                    0    -3.69995  -0.58178  -10.17402 
 H                    0    -5.21043   0.26813  -10.48094 
 C                    0    -4.78445  -0.03944  -8.39619 
 H                    0    -5.82252   0.05131  -8.05247 
 H                    0    -4.27316  -0.76873  -7.75293 
 S                    0    -3.95268   1.5687   -8.22098 
 C                    0    -4.22337   1.84211  -6.45142 
 H                    0    -3.74714   1.05964  -5.85552 
 H                    0    -3.76574   2.79233  -6.1778 
 H                    0    -5.29022   1.91034  -6.22233 
 H                    0    -4.98598  -2.63073  -9.4693 
 H                    0    -0.16835  -2.87751  -8.15143 
 C                    -1    0.76555  -2.31429  -8.23307 
 H                    0     1.0679   -2.34107  -9.28938 
 C                    0     0.5278   -0.85242  -7.81459 
 H                    0     1.4562   -0.26777  -7.8336 
 H                    0    -0.11979  -0.39771  -8.57466 
 C                    0    -0.14077  -0.72848  -6.4664 
 C                    0     0.53666  -0.26115  -5.33908 
 H                    0     1.58029   0.03882  -5.42362 
 C                    0    -0.11387  -0.18621  -4.10716 
 H                    0     0.41317   0.18532  -3.23238 
 C                    0    -1.43701  -0.59585  -3.98979 
 H                    0    -1.94625  -0.56329  -3.03592 
 C                    0    -2.11215  -1.07891  -5.10656 
 H                    0    -3.12803  -1.4459   -4.99702 
 C                    0    -1.47111  -1.13231  -6.33488 
 H                    0    -1.9934   -1.53232  -7.2007 
 C                    0     1.79394  -3.11705  -7.46401 
 O                    0     1.66196  -4.29729  -7.1823 
 N                    0     2.93104  -2.42716  -7.19253 
 H                    0     2.96496  -1.42442  -7.31585 
 C                    -1    3.94133  -2.92348  -6.30048 
 H                    0     3.52676  -3.75568  -5.72245 
 C                    0     5.17982  -3.37464  -7.1048 
 H                    0     4.80038  -4.07069  -7.8624 
 H                    0     5.55109  -2.48667  -7.63481 
 C                    0     6.32007  -4.0177   -6.30484 
 H                    0     6.45204  -3.51522  -5.34024 
 H                    0     6.08071  -5.0658   -6.08468 
 C                    0     7.66703  -3.92334  -7.01675 
 H                    0     7.96186  -2.86739  -7.10985 
 H                    0     8.43919  -4.42095  -6.42722 
 N                    0     7.62822  -4.55534  -8.32963 
 H                    0     6.76795  -4.4087   -8.84027 
 C                    0     8.74182  -4.55997  -9.12808 
 N                    0     9.89508  -4.16977  -8.70404 
 H                    0     10.49967  -3.60512  -7.14949 
 H                    0     10.61948  -4.31884  -9.40083 
 N                    0     8.47108  -5.00305  -10.4222 
 H                    0     7.7839   -5.74348  -10.47657 
 H                    0     9.28963  -5.20704  -10.9773 
 C                    0     4.30315  -1.72929  -5.42786 
 O                    0     4.27491  -0.59309  -5.89711 
 N                    0     4.66531  -2.00369  -4.1662 
 H                    0     4.75147  -2.96864  -3.88109 
 C                    -1    5.35304  -1.03379  -3.35069 
 H                    0     5.51249  -0.13878  -3.95365 
 C                    0     4.53499  -0.62847  -2.09971 
 H                    0     5.19417  -0.00369  -1.48438 
 C                    0     3.32739   0.19973  -2.52766 
 H                    0     2.66157  -0.39377  -3.16445 
 H                    0     2.75847   0.52146  -1.64915 
 H                    0     3.63729   1.08665  -3.08334 
 C                    0     4.09312  -1.83979  -1.28024 
 H                    0     4.93919  -2.47987  -1.02199 
 H                    0     3.62673  -1.521    -0.34282 
 H                    0     3.35845  -2.44255  -1.82908 
 C                    0     6.70394  -1.63196  -2.98728 
 O                    0     6.86145  -2.86479  -2.93005 
 N                    0     7.67335  -0.74634  -2.75951 
 H                    0     7.458     0.24931  -2.86229 
 C                    -1    9.00272  -1.13072  -2.3391 
 H                    0     8.94196  -2.17598  -2.02914 
 C                    0     10.01974  -1.04277  -3.49204 
 H                    0     9.75833  -0.21554  -4.15943 
 H                    0     11.02214  -0.84525  -3.09683 
 C                    0     10.01031  -2.36942  -4.25042 
 H                    0     10.62398  -3.10997  -3.73028 
 H                    0     8.99255  -2.78667  -4.24127 
 C                    0     10.37165  -2.3172   -5.71392 
 O                    0     10.30376  -1.32807  -6.41203 
 O                    0     10.67338  -3.53748  -6.16388 
 C                    0     9.36902  -0.31859  -1.10199 
 O                    0     9.14525   0.89367  -1.0276 
 N                    0     9.90861  -1.04082  -0.10907 
 H                    0     10.24117  -1.98935  -0.28423 
 C                    -1    10.16136  -0.50739   1.21462 
 H                    0     10.73992   0.42192   1.10848 
 C                    0     8.88294  -0.14669   1.98103 
 H                    0     9.16017   0.3458    2.91707 
 H                    0     8.34912   0.60808   1.39703 
 C                    0     7.93579  -1.30011   2.31237 
 H                    0     8.47697  -2.20688   2.60506 
 H                    0     7.33093  -1.0034    3.17223 
 S                    0     6.75854  -1.72609   0.977 
 C                    0     7.43091  -3.29177   0.35988 
 H                    0     7.15954  -4.13013   1.00564 
 H                    0     7.01489  -3.45248  -0.63615 
 H                    0     8.51685  -3.24647   0.27017 
 C                    0     11.08346  -1.50329   1.92784 
 O                    0     11.59973  -2.43926   1.32038 
 N                    0     11.33104  -1.22595   3.22103 
 H                    0     10.81911  -0.50321   3.74348 
 C                    -1    12.33793  -1.95331   3.95808 
 H                    0     12.91552  -2.52206   3.22281 
 C                    0     13.27893  -0.97871   4.70126 
 H                    0     12.65108  -0.37801   5.37062 
 C                    0     14.30778  -1.73772   5.54281 
 H                    0     14.9062  -2.41275   4.91736 
 H                    0     14.99378  -1.03412   6.0258 
 H                    0     13.83364  -2.33264   6.3295 
 C                    0     13.9686  -0.04517   3.70588 
 H                    0     13.24021   0.52155   3.11948 
 H                    0     14.6075   0.67071   4.23382 
 H                    0     14.59907  -0.61263   3.00936 
 C                    0     11.69364  -2.90536   4.96378 
 O                    0     10.95458  -2.50064   5.8599 
 N                    0     12.07993  -4.19667   4.8515 
 H                    0     12.46881  -4.48768   3.96791 
 C                    -1    11.6464  -5.20822   5.79246 
 H                    0     11.73332  -4.77326   6.79209 
 C                    0     10.20404  -5.70256   5.58135 
 H                    0     9.58121  -4.83161   5.34805 
 H                    0     10.16689  -6.36356   4.71071 
 C                    0     9.66308  -6.40151   6.78728 
 C                    0     9.35406  -7.72379   6.92655 
 H                    0     9.42528  -8.52618   6.20434 
 N                    0     8.88785  -7.96979   8.20258 
 H                    0     8.53007  -8.8504    8.53021 
 C                    0     8.87144  -6.78891   8.90999 
 C                    0     8.46881  -6.51784   10.22054 
 H                    0     8.08961  -7.30129   10.87074 
 C                    0     8.56476  -5.2068    10.65614 
 H                    0     8.25575  -4.95955   11.66767 
 C                    0     9.04698  -4.18646   9.81391 
 H                    0     9.10028  -3.1693    10.19014 
 C                    0     9.44468  -4.45812   8.51636 
 H                    0     9.8105   -3.66998   7.86214 
 C                    0     9.35946  -5.77953   8.05174 
 H                    0     12.34805  -6.04647   5.74106 
 H                    0     12.23358  -4.89294   0.3422 
 C                    -1    11.6054  -5.72418   0.01201 
 H                    0     12.24239  -6.45366  -0.50362 
 C                    0     10.94591  -6.40114   1.21065 
 H                    0     10.33371  -7.25161   0.90195 
 H                    0     11.71838  -6.78461   1.88415 
 S                    0     9.88219  -5.20369   2.09297 
 H                    0     9.02544  -6.10517   2.59915 
 C                    0     10.62017  -5.12979  -0.99224 
 O                    0     10.66491  -3.94838  -1.32954 
 N                    0     9.73047  -6.00239  -1.51338 
 H                    0     9.60406  -6.92361  -1.1127 
 C                    -1    8.65533  -5.57857  -2.37826 
 H                    0     8.53932  -4.49765  -2.26811 
 C                    0     8.93257  -5.8965   -3.8525 
 H                    0     9.06612  -6.97438  -3.9933 
 H                    0     8.08941  -5.56987  -4.46881 
 H                    0     9.83152  -5.37802  -4.1961 
 C                    0     7.37803  -6.28098  -1.91962 
 O                    0     7.42801  -7.34025  -1.29543 
 N                    0     6.243    -5.67179  -2.31162 
 H                    0     6.33309  -4.71212  -2.63788 
 C                    -1    4.93311  -6.08699  -1.83635 
 H                    0     4.92445  -7.17784  -1.7774 
 C                    0     4.60997  -5.44537  -0.48096 
 H                    0     5.1958   -5.94446   0.30138 
 H                    0     4.96149  -4.41018  -0.50494 
 C                    0     3.12947  -5.42905  -0.10229 
 H                    0     2.60596  -4.8381   -0.86475 
 C                    0     2.50851  -6.82454  -0.08224 
 H                    0     3.0301   -7.47127   0.63449 
 H                    0     1.46145  -6.75808   0.22464 
 H                    0     2.54201  -7.30789  -1.06554 
 C                    0     2.93081  -4.72583   1.24064 
 H                    0     3.38636  -3.72852   1.2337 
 H                    0     1.8661   -4.61724   1.47323 
 H                    0     3.39041  -5.29995   2.05593 
 H                    0     4.19106  -5.78649  -2.58637 
 H                    0    -0.09774  -5.56963  -4.49263 
 C                    -1   -1.0169   -5.2486   -3.99315 
 H                    0    -1.39409  -6.06643  -3.36677 
 C                    0    -0.73067  -4.00071  -3.13074 
 H                    0    -0.42751  -3.20137  -3.81795 
 C                    0    -1.98034  -3.5469   -2.3724 
 H                    0    -2.38956  -4.37663  -1.78418 
 H                    0    -1.74012  -2.7283   -1.68457 
 H                    0    -2.76892  -3.18751  -3.03991 
 C                    0     0.4254   -4.26372  -2.16697 
 H                    0     1.31487  -4.60945  -2.70887 
 H                    0     0.69097  -3.3493   -1.62238 
 H                    0     0.16289  -5.02379  -1.42046 
 C                    0    -2.01073  -4.88693  -5.08288 
 O                    0    -1.68021  -4.25248  -6.07855 
 N                    0    -3.30748  -5.25525  -4.85962 
 H                    0    -3.55905  -5.76194  -4.01288 
 C                    -1   -4.36428  -4.76425  -5.72093 
 H                    0    -3.86182  -4.1435   -6.47047 
 C                    0    -5.12849  -5.90009  -6.43458 
 H                    0    -5.52198  -6.56327  -5.65157 
 C                    0    -6.31291  -5.3384   -7.22642 
 H                    0    -5.97134  -4.61539  -7.97989 
 H                    0    -6.85091  -6.1343   -7.74906 
 H                    0    -7.03472  -4.83894  -6.57236 
 C                    0    -4.16331  -6.7027   -7.31579 
 H                    0    -3.81505  -6.06417  -8.13971 
 H                    0    -3.27619  -6.9477   -6.72274 
 C                    0    -4.7604   -7.99397  -7.8738 
 H                    0    -5.59147  -7.80319  -8.56147 
 H                    0    -4.00364  -8.56377  -8.42342 
 H                    0    -5.13661  -8.63074  -7.06466 
 C                    0    -5.32092  -3.93409  -4.88508 
 O                    0    -5.91119  -4.43475  -3.92931 
 N                    0    -5.511    -2.65864  -5.2748 
 H                    0    -5.06372  -2.34718  -6.12443 
 C                    -1   -6.53605  -1.83698  -4.66969 
 H                    0    -6.82306  -2.30565  -3.72778 
 C                    0    -6.14161  -0.39873  -4.42413 
 H                    0    -5.8597    0.10923  -5.35049 
 H                    0    -7.02142   0.13711  -4.0484 
 C                    0    -5.03017  -0.19828  -3.41998 
 O                    0    -4.50359  -1.07731  -2.76818 
 O                    0    -4.6982    1.08483  -3.35127 
 H                    0    -3.88377   1.21679  -2.78909 
 H                    0    -7.42876  -1.847    -5.30955 
 H                    0    -11.67505   0.73697  -4.72653 
 C                    -1   -11.82067   1.71187  -5.20544 
 H                    0    -12.26709   2.38414  -4.46394 
 C                    0    -10.49915   2.27458  -5.73431 
 H                    0    -10.09109   1.60129  -6.49804 
 H                    0    -10.68248   3.23572  -6.22979 
 C                    0    -9.45178   2.47853  -4.63682 
 H                    0    -9.84584   3.1357   -3.85136 
 H                    0    -9.19093   1.52035  -4.17052 
 S                    0    -7.9597    3.25228  -5.35026 
 C                    0    -6.99613   3.60044  -3.85212 
 H                    0    -6.55142   2.69754  -3.42725 
 H                    0    -6.18421   4.27342  -4.1432 
 H                    0    -7.6272    4.09651  -3.10673 
 H                    0    -12.5411   1.58038  -6.01874 
 H                    0    -11.57851   2.19412  -0.52475 
 C                    -1   -10.64145   1.70313  -0.80403 
 H                    0    -10.67405   1.509    -1.88384 
 C                    0    -9.46458   2.63888  -0.48013 
 H                    0    -9.59681   3.5578   -1.0658 
 H                    0    -9.5151    2.93016   0.57504 
 C                    0    -8.0661    2.08052  -0.78595 
 H                    0    -8.0787    1.48432  -1.70831 
 H                    0    -7.38669   2.92206  -0.94598 
 S                    0    -7.35183   1.09585   0.58031 
 C                    0    -5.58715   1.33823   0.22144 
 H                    0    -5.3506    2.40223   0.14111 
 H                    0    -5.01589   0.93172   1.06274 
 H                    0    -5.28832   0.82658  -0.69737 
 C                    0    -10.55202   0.40352  -0.01789 
 O                    0    -10.72434   0.39803   1.19734 
 N                    0    -10.25702  -0.69147  -0.75085 
 H                    0    -9.97441  -0.56447  -1.71442 
 C                    -1   -9.79402  -1.95064  -0.18902 
 H                    0    -9.72233  -1.83259   0.89589 
 C                    0    -10.71638  -3.1148   -0.55187 
 H                    0    -10.70905  -3.24047  -1.63964 
 H                    0    -10.29643  -4.03233  -0.12534 
 C                    0    -12.14593  -2.91587  -0.06193 
 H                    0    -12.18835  -2.64251   0.99835 
 H                    0    -12.61477  -2.09836  -0.62396 
 C                    0    -12.95613  -4.17809  -0.29658 
 O                    0    -12.83063  -4.82046  -1.35828 
 N                    0    -13.79311  -4.50823   0.68405 
 H                    0    -14.22986  -5.41754   0.63283 
 H                    0    -13.75076  -4.01421   1.6027 
 C                    0    -8.42022  -2.20345  -0.80053 
 O                    0    -8.20882  -1.90267  -1.97923 
 N                    0    -7.53795  -2.82216   0.00157 
 H                    0    -7.7173   -2.83019   1.00659 
 C                    -1   -6.20803  -3.14881  -0.46301 
 H                    0    -6.18208  -2.94323  -1.53436 
 C                    0    -5.1317   -2.32054   0.23504 
 H                    0    -5.10885  -2.52467   1.30865 
 H                    0    -4.14474  -2.54592  -0.1843 
 H                    0    -5.32959  -1.26078   0.07721 
 C                    0    -5.96093  -4.62953  -0.20749 
 O                    0    -5.85588  -5.0892    0.93522 
 N                    0    -5.85634  -5.39833  -1.29652 
 H                    0    -5.87616  -4.97855  -2.22385 
 C                    -1   -5.75445  -6.83757  -1.20744 
 H                    0    -6.20308  -7.14279  -0.25917 
 C                    0    -6.50916  -7.48937  -2.38569 
 H                    0    -6.14792  -7.01342  -3.30467 
 H                    0    -6.20174  -8.54015  -2.43893 
 C                    0    -8.01539  -7.417    -2.28844 
 C                    0    -8.72229  -6.21666  -2.43363 
 H                    0    -8.18967  -5.29245  -2.64152 
 C                    0    -10.10779  -6.17867  -2.33582 
 H                    0    -10.65036  -5.24552  -2.43365 
 C                    0    -10.83661  -7.35011  -2.09434 
 O                    0    -12.17623  -7.36323  -1.96992 
 H                    0    -12.50226  -6.45544  -1.7455 
 C                    0    -10.14443  -8.55911  -1.97733 
 H                    0    -10.70808  -9.46771  -1.78811 
 C                    0    -8.7577   -8.57948  -2.06513 
 H                    0    -8.23746  -9.52949  -1.95442 
 C                    0    -4.28775  -7.25603  -1.26928 
 O                    0    -3.61928  -7.14026  -2.29705 
 N                    0    -3.81781  -7.80909  -0.13027 
 H                    0    -4.33209  -7.60449   0.71524 
 C                    -1   -2.44658  -8.26207  -0.00024 
 H                    0    -2.2407   -8.95537  -0.82176 
 C                    0    -1.41771  -7.11884  -0.02881 
 H                    0    -0.42637  -7.57343   0.08014 
 H                    0    -1.44972  -6.67698  -1.02982 
 C                    0    -1.61398  -6.05739   1.01319 
 C                    0    -2.52251  -5.02631   0.97064 
 H                    0    -3.2568   -4.79807   0.21285 
 N                    0    -2.41382  -4.2358    2.07988 
 H                    0    -2.93673  -3.3851    2.30935 
 C                    0    -1.42209  -4.73569   2.87778 
 C                    0    -0.95335  -4.26205   4.1074 
 H                    0    -1.38525  -3.36636   4.54413 
 C                    0     0.06625  -4.97516   4.71333 
 H                    0     0.46107  -4.63678   5.66716 
 C                    0     0.61057  -6.12802   4.1098 
 H                    0     1.41299  -6.66084   4.6129 
 C                    0     0.14092  -6.59037   2.89222 
 H                    0     0.57116  -7.48108   2.44002 
 C                    0    -0.89392  -5.89096   2.24837 
 H                    0    -2.37719  -8.81458   0.94134 
 H                    0     5.0923   -10.1212  -0.42666 
 C                    -1    5.93462  -9.99811   0.26245 
 H                    0     6.83361  -9.8604   -0.34472 
 C                    0     5.7047   -8.7972    1.17546 
 H                    0     5.73977  -7.8956    0.55515 
 H                    0     4.69901  -8.8488    1.61327 
 C                    0     6.72051  -8.6399    2.31578 
 H                    0     6.59728  -9.48859   3.00574 
 C                    0     8.15858  -8.65489   1.7933 
 H                    0     8.26764  -7.90115   1.00347 
 H                    0     8.87305  -8.44064   2.60002 
 H                    0     8.42708  -9.62528   1.36332 
 C                    0     6.44574  -7.34848   3.09158 
 H                    0     5.41586  -7.31559   3.4644 
 H                    0     7.11695  -7.24193   3.95366 
 H                    0     6.58584  -6.47448   2.44112 
 H                    0     6.0367   -10.92903   0.83538 
 O                    0    -1.11834   1.26786   3.96162 
 H                    0    -1.28856   1.07288   4.89127 
 H                    0    -1.92091   0.89124   3.50316 
 O                    0     0.28085   3.65353   3.93654 
 H                    0     0.72267   3.62457   3.07992 
 H                    0    -0.29747   2.85456   3.93723 
 O                    0    -0.50907   2.9898    8.37518 
 H                    0    -0.59415   3.90059   8.03961 
 H                    0    -1.29364   2.53434   8.03599 
 O                    0     6.84059   7.36214  -0.02546 
 H                    0     7.40972   6.68686  -0.44384 
 H                    0     7.26442   7.59424   0.80863 
 O                    0     7.52379   1.21837   4.72908 
 H                    0     6.73391   0.64198   4.78178 
 H                    0     7.17781   2.11882   4.73775 
 O                    0     6.87977   8.76526  -2.5037 
 H                    0     7.0017    8.45591  -1.58671 
 H                    0     5.91721   8.65031  -2.61233 
 O                    0     10.11216   0.27823   5.23258 
 H                    0     9.19215   0.61379   5.18873 
 H                    0     10.08304  -0.58025   5.68529 
 C                    0    -1.7609    1.67584  -1.26135 
 O                    0    -2.50464   1.8923   -2.22142 
 C                    0    -1.72787   0.3927   -0.58797 
 C                    0    -0.84395   0.0987    0.39186 
 C                    0     0.19727   1.1025    0.85966 
 C                    0     0.43299   2.20448  -0.17992 
 C                    0    -0.86791   2.76698  -0.73694 
 C                    0    -0.94734  -1.21231   1.11264 
 C                    0     0.38857  -1.78552   1.58015 
 C                    0     1.20616  -0.71482   2.3003 
 C                    0     1.51375   0.42348   1.30388 
 C                    0     2.49664  -1.25917   2.88814 
 C                    0     3.3704   -0.17747   3.55168 
 C                    0     3.77728   0.8348    2.48009 
 C                    0     2.53344   1.45533   1.82587 
 C                    0     2.40699  -2.37395   3.93776 
 C                    0     3.78854  -2.33521   4.63429 
 C                    0     4.50184  -1.07194   4.0912 
 C                    0     2.68032   0.54432   4.72395 
 O                    0     5.37612  -0.47028   5.04472 
 H                    0    -2.48218  -0.33177  -0.8901 
 H                    0    -0.23304   1.5603    1.76585 
 H                    0     1.03316   1.79527  -1.00482 
 H                    0     1.02052   3.02016   0.25426 
 H                    0    -1.43478   3.28421   0.04986 
 H                    0    -0.69964   3.5      -1.52916 
 H                    0    -1.49018  -1.93547   0.49451 
 H                    0    -1.58993  -1.04739   1.99103 
 H                    0     0.96699  -2.17352   0.72732 
 H                    0     0.19257  -2.6353    2.24091 
 H                    0     0.58317  -0.30898   3.10962 
 H                    0     1.96191  -0.05069   0.41387 
 H                    0     3.09654  -1.65201   2.04825 
 H                    0     4.37645   0.32388   1.71184 
 H                    0     4.40287   1.63016   2.90472 
 H                    0     2.04214   2.11596   2.55296 
 H                    0     2.86045   2.09654   0.99971 
 H                    0     2.18392  -3.3491    3.50023 
 H                    0     1.59755  -2.16081   4.64567 
 H                    0     4.38307  -3.23059   4.43103 
 H                    0     3.69097  -2.26544   5.72451 
 H                    0     5.15336  -1.34842   3.25769 
 H                    0     2.4607   -0.131     5.56028 
 H                    0     3.32741   1.35355   5.08379 
 H                    0     1.7302    1.00217   4.43701 
 H                    0     4.8439   -0.18411   5.79826 
 
 Stoichiometry    C239H394N36O51S5(2-)
 Framework group  C1[X(C239H394N36O51S5)]
 Deg. of freedom  2169
 Full point group                 C1      NOp   1
 Largest Abelian subgroup         C1      NOp   1
 Largest concise Abelian subgroup C1      NOp   1
                         Standard orientation:                         
 ---------------------------------------------------------------------
 Center     Atomic      Atomic             Coordinates (Angstroms)
 Number     Number       Type             X           Y           Z
 ---------------------------------------------------------------------
      1          1           0       -3.439927    8.396630   -7.638931
      2          6           0       -3.258843    8.104814   -6.596603
      3          1           0       -3.241484    9.013358   -5.990272
      4          6           0       -4.402363    7.173611   -6.125425
      5          1           0       -5.328740    7.759605   -6.121199
      6          1           0       -4.553842    6.382201   -6.870341
      7          6           0       -4.199046    6.520451   -4.772691
      8          6           0       -4.630279    7.091281   -3.576484
      9          1           0       -5.112293    8.067791   -3.586010
     10          6           0       -4.447830    6.444038   -2.347972
     11          1           0       -4.746697    6.938161   -1.425724
     12          6           0       -3.822349    5.193613   -2.301407
     13          8           0       -3.587850    4.506607   -1.164040
     14          1           0       -4.173277    4.758818   -0.427891
     15          6           0       -3.379161    4.612217   -3.493805
     16          1           0       -2.903073    3.639769   -3.438943
     17          6           0       -3.564684    5.274049   -4.693235
     18          1           0       -3.205335    4.811130   -5.606546
     19          6           0       -1.865168    7.501691   -6.463723
     20          8           0       -1.009756    8.012853   -5.753136
     21          7           0       -1.619259    6.362722   -7.169414
     22          1           0       -2.302285    6.019575   -7.828017
     23          6           0       -0.293379    5.771967   -7.147361
     24          1           0        0.039566    5.764315   -6.104339
     25          6           0       -0.207942    4.362653   -7.733681
     26          1           0       -0.579448    4.400064   -8.769528
     27          6           0        1.265429    3.943831   -7.785652
     28          1           0        1.726285    3.993339   -6.792765
     29          1           0        1.362898    2.913472   -8.144016
     30          1           0        1.842711    4.593495   -8.452867
     31          6           0       -1.068889    3.338643   -6.980646
     32          1           0       -2.117077    3.645252   -7.076273
     33          1           0       -1.000620    2.373091   -7.495632
     34          6           0       -0.731926    3.144557   -5.503844
     35          1           0       -0.859249    4.071148   -4.935265
     36          1           0       -1.380936    2.385055   -5.056199
     37          1           0        0.297494    2.797348   -5.365841
     38          1           0        0.405948    6.429864   -7.683715
     39          1           0        1.297642    8.199193   -3.645074
     40          6           0        1.828928    7.513134   -2.972283
     41          1           0        1.645837    7.850746   -1.947239
     42          6           0        1.257552    6.094044   -3.163612
     43          1           0        1.383305    5.803821   -4.218612
     44          6           0        1.985846    5.057087   -2.304752
     45          1           0        1.852241    5.277147   -1.239235
     46          1           0        1.591437    4.051805   -2.494706
     47          1           0        3.061950    5.040301   -2.508504
     48          6           0       -0.243605    6.096149   -2.875061
     49          1           0       -0.776021    6.808758   -3.513605
     50          1           0       -0.675994    5.106201   -3.048016
     51          1           0       -0.437282    6.353498   -1.826560
     52          6           0        3.319606    7.650436   -3.213558
     53          8           0        4.069486    8.199577   -2.408421
     54          7           0        3.770983    7.136633   -4.379347
     55          1           0        3.106348    6.739345   -5.025277
     56          6           0        5.170910    7.164217   -4.762223
     57          1           0        5.765042    6.614633   -4.022050
     58          6           0        5.339556    6.558306   -6.152995
     59          1           0        4.954775    5.533448   -6.174630
     60          1           0        4.787219    7.160842   -6.881720
     61          6           0        6.831241    6.596300   -6.487197
     62          8           0        7.510325    5.552001   -6.300205
     63          8           0        7.259974    7.726057   -6.837497
     64          1           0        5.537526    8.194836   -4.777538
     65          1           0       -2.905485   12.243651   -1.098677
     66          6           0       -3.814197   11.631379   -1.106018
     67          1           0       -4.049353   11.396380   -2.152156
     68          6           0       -3.625695   10.342754   -0.296542
     69          1           0       -3.373153   10.626095    0.736863
     70          6           0       -4.929308    9.543628   -0.263256
     71          1           0       -5.225611    9.255101   -1.279486
     72          1           0       -4.832981    8.629162    0.330868
     73          1           0       -5.754145   10.127763    0.161316
     74          6           0       -2.455066    9.512246   -0.847556
     75          1           0       -2.713039    9.144518   -1.851176
     76          1           0       -1.589906   10.175717   -0.978488
     77          6           0       -2.040269    8.334531    0.035552
     78          1           0       -2.798345    7.545081    0.071103
     79          1           0       -1.116441    7.881157   -0.336281
     80          1           0       -1.859556    8.660362    1.067049
     81          1           0       -4.636350   12.235939   -0.705383
     82          1           0      -10.656855   10.581106   -1.511433
     83          6           0      -10.796075   10.659143   -0.427776
     84          1           0      -11.523715    9.896665   -0.131251
     85          6           0       -9.468448   10.457998    0.312031
     86          1           0       -8.769381   11.252744    0.021392
     87          1           0       -9.632034   10.569057    1.390134
     88          6           0       -8.839666    9.111295    0.035657
     89          6           0       -8.274965    8.836907   -1.211570
     90          1           0       -8.278196    9.605130   -1.981534
     91          6           0       -7.690561    7.607910   -1.491700
     92          1           0       -7.247090    7.412428   -2.464174
     93          6           0       -7.654974    6.630235   -0.501339
     94          8           0       -7.050110    5.415735   -0.695056
     95          1           0       -6.530761    5.432090   -1.515699
     96          6           0       -8.234794    6.864162    0.742148
     97          1           0       -8.230705    6.080464    1.495487
     98          6           0       -8.820347    8.099622    0.998057
     99          1           0       -9.267471    8.275904    1.973283
    100          1           0      -11.221920   11.644542   -0.210410
    101          1           0      -11.149944    2.457767    4.348946
    102          6           0      -10.134972    2.288782    3.963927
    103          1           0      -10.234371    2.120880    2.884466
    104          6           0       -9.263997    3.517072    4.253712
    105          1           0       -9.200029    3.617204    5.343784
    106          6           0       -7.841390    3.360262    3.709926
    107          1           0       -7.843583    3.208518    2.623451
    108          1           0       -7.237871    4.249955    3.934478
    109          1           0       -7.340476    2.498096    4.159350
    110          6           0       -9.923947    4.773765    3.679165
    111          1           0      -10.929454    4.928435    4.088177
    112          1           0       -9.327870    5.668736    3.901823
    113          1           0      -10.020360    4.696445    2.587272
    114          6           0       -9.621961    1.014015    4.640643
    115          8           0       -9.052557    1.037553    5.729303
    116          7           0       -9.897146   -0.134668    3.975424
    117          1           0      -10.267025   -0.090484    3.028205
    118          6           0       -9.626067   -1.451449    4.532119
    119          1           0       -9.532126   -1.328657    5.614190
    120          6           0      -10.750010   -2.433810    4.185456
    121          1           0      -10.808112   -2.522112    3.095210
    122          1           0      -10.449724   -3.418665    4.567540
    123          6           0      -12.136817   -2.069579    4.713464
    124          1           0      -12.167645   -2.137058    5.805975
    125          1           0      -12.372029   -1.040377    4.416963
    126          6           0      -13.196779   -3.021732    4.096536
    127          8           0      -13.326262   -2.900412    2.840012
    128          8           0      -13.774722   -3.820931    4.851928
    129          6           0       -8.320573   -1.967978    3.937096
    130          8           0       -8.252106   -2.320078    2.757358
    131          7           0       -7.263491   -2.000326    4.772752
    132          1           0       -7.346073   -1.514646    5.657031
    133          6           0       -5.923210   -2.182036    4.245644
    134          1           0       -6.024237   -2.841822    3.386634
    135          6           0       -5.382771   -0.821201    3.780291
    136          1           0       -6.026259   -0.459905    2.968345
    137          1           0       -5.479937   -0.096079    4.594761
    138          6           0       -3.930991   -0.813686    3.295821
    139          8           0       -3.333960   -1.911038    3.199901
    140          8           0       -3.442334    0.322885    3.026924
    141          6           0       -5.033700   -2.800647    5.321920
    142          8           0       -4.619197   -2.113011    6.255101
    143          7           0       -4.756882   -4.116883    5.219476
    144          6           0       -3.941521   -4.772462    6.238770
    145          1           0       -4.333441   -4.545802    7.233517
    146          1           0       -2.914022   -4.393809    6.183530
    147          6           0       -4.023653   -6.258998    5.882235
    148          1           0       -4.860134   -6.719393    6.413865
    149          1           0       -3.101145   -6.791111    6.130801
    150          6           0       -4.309942   -6.255754    4.376613
    151          1           0       -4.786534   -7.176858    4.028004
    152          1           0       -3.388091   -6.106669    3.807343
    153          6           0       -5.226933   -5.033092    4.183900
    154          1           0       -5.080575   -4.609121    3.188142
    155          6           0       -6.685726   -5.449246    4.407664
    156          8           0       -7.114916   -5.705822    5.526837
    157          7           0       -7.386252   -5.579628    3.263915
    158          1           0       -6.935887   -5.330606    2.388812
    159          6           0       -8.709712   -6.154363    3.218608
    160          1           0       -9.164615   -6.014754    4.203191
    161          6           0       -9.586822   -5.523980    2.136685
    162          1           0       -9.659742   -4.446630    2.322773
    163          1           0       -9.109804   -5.655276    1.155375
    164          6           0      -10.949437   -6.175305    2.142315
    165          6           0      -11.888828   -5.849257    3.120897
    166          1           0      -11.678333   -5.082110    3.856705
    167          6           0      -13.126175   -6.480614    3.168240
    168          1           0      -13.842147   -6.137457    3.909035
    169          6           0      -13.436393   -7.465666    2.232351
    170          1           0      -14.405490   -7.959422    2.259207
    171          6           0      -12.508453   -7.801747    1.248259
    172          1           0      -12.745386   -8.542010    0.489668
    173          6           0      -11.273306   -7.159881    1.209308
    174          1           0      -10.550377   -7.425724    0.443918
    175          1           0       -8.650073   -7.239380    3.046531
    176          1           0       -3.098089    6.881802    8.883147
    177          6           0       -2.849838    5.916668    8.422404
    178          1           0       -2.478539    5.265987    9.220036
    179          6           0       -4.113326    5.306501    7.790066
    180          1           0       -4.894561    5.304411    8.558724
    181          1           0       -4.491785    5.944792    6.981719
    182          6           0       -3.915784    3.899715    7.272549
    183          6           0       -3.737998    2.845059    8.176072
    184          1           0       -3.722488    3.050272    9.245124
    185          6           0       -3.611994    1.535613    7.719829
    186          1           0       -3.511752    0.718361    8.428252
    187          6           0       -3.659408    1.262531    6.352035
    188          1           0       -3.619677    0.231309    6.009774
    189          6           0       -3.819702    2.307989    5.445084
    190          1           0       -3.870824    2.077194    4.384572
    191          6           0       -3.941048    3.618390    5.906868
    192          1           0       -4.079258    4.426588    5.191427
    193          6           0       -1.699573    6.146798    7.468289
    194          8           0       -0.564848    5.696373    7.687414
    195          7           0       -1.949753    6.911727    6.397873
    196          1           0       -2.901802    7.182400    6.199041
    197          6           0       -0.933111    7.205126    5.406411
    198          1           0       -0.403032    6.276906    5.165566
    199          6           0       -1.557065    7.812842    4.150959
    200          1           0       -2.016283    8.777953    4.403161
    201          1           0       -0.736695    8.038607    3.457915
    202          6           0       -2.575349    6.931431    3.455366
    203          6           0       -3.820226    7.434655    3.081907
    204          1           0       -4.088976    8.456869    3.340607
    205          6           0       -4.721546    6.674388    2.334970
    206          1           0       -5.679146    7.092207    2.031820
    207          6           0       -4.365851    5.384535    1.956341
    208          8           0       -5.129167    4.608741    1.133731
    209          1           0       -5.966844    5.026843    0.871527
    210          6           0       -3.151447    4.837265    2.375445
    211          1           0       -2.918411    3.808965    2.115055
    212          6           0       -2.265375    5.608351    3.110919
    213          1           0       -1.321910    5.158076    3.415302
    214          1           0       -0.197109    7.898088    5.831505
    215          1           0        1.739433    6.823831    9.086544
    216          6           0        2.430498    6.045588    9.437522
    217          1           0        3.191125    6.520340   10.060467
    218          6           0        1.625167    4.991126   10.224336
    219          1           0        1.242839    4.229959    9.537474
    220          1           0        2.286683    4.472274   10.926877
    221          6           0        0.453279    5.635472   10.974907
    222          1           0        0.811407    6.420291   11.647021
    223          1           0       -0.211791    6.094214   10.232384
    224          6           0       -0.355664    4.669511   11.832405
    225          8           0       -0.443856    4.798846   13.045018
    226          7           0       -1.006812    3.684751   11.151575
    227          1           0       -1.449325    2.980530   11.724163
    228          1           0       -0.791097    3.433525   10.182866
    229          6           0        3.129177    5.457902    8.212868
    230          8           0        4.349923    5.371254    8.121971
    231          7           0        2.303128    5.027368    7.209955
    232          1           0        1.301141    5.132048    7.332530
    233          6           0        2.762581    4.061312    6.223176
    234          1           0        3.182164    3.177147    6.712012
    235          1           0        1.901503    3.751617    5.618054
    236          6           0        3.828327    4.574150    5.265346
    237          8           0        4.620047    3.806725    4.727679
    238          7           0        3.773509    5.905577    5.028735
    239          1           0        3.040856    6.415414    5.504067
    240          6           0        4.618932    6.608932    4.092811
    241          1           0        5.321888    5.867585    3.700277
    242          6           0        3.804223    7.220263    2.933945
    243          1           0        3.212783    8.055548    3.337531
    244          1           0        4.512068    7.658184    2.222562
    245          6           0        2.861270    6.253176    2.206016
    246          1           0        2.167784    5.827756    2.946475
    247          6           0        2.035810    7.023789    1.169042
    248          1           0        2.678968    7.408612    0.367414
    249          1           0        1.276793    6.375410    0.714694
    250          1           0        1.513883    7.876044    1.621606
    251          6           0        3.617235    5.101463    1.538268
    252          1           0        4.105273    4.453928    2.274475
    253          1           0        2.932005    4.476749    0.952310
    254          1           0        4.377336    5.493479    0.851029
    255          6           0        5.436354    7.724840    4.750577
    256          8           0        6.088891    8.505694    4.069795
    257          7           0        5.327197    7.837574    6.098115
    258          1           0        5.003170    7.040832    6.636451
    259          6           0        6.011097    8.916718    6.776721
    260          1           0        5.785242    9.861423    6.276490
    261          1           0        5.662831    8.957817    7.811062
    262          1           0        7.099706    8.783918    6.770155
    263          1           0        9.098274    4.626860    0.592495
    264          6           0        8.472449    3.901170    0.062135
    265          1           0        8.946020    2.915872    0.124432
    266          6           0        7.076401    3.846823    0.730621
    267          1           0        6.606311    4.828271    0.590660
    268          6           0        6.182325    2.778406    0.093480
    269          1           0        6.639813    1.784295    0.179339
    270          1           0        5.211466    2.748589    0.600039
    271          1           0        6.003529    2.962063   -0.971061
    272          6           0        7.230809    3.605908    2.233164
    273          1           0        7.873044    4.367003    2.693505
    274          1           0        6.259738    3.640173    2.739458
    275          1           0        7.674714    2.623549    2.433776
    276          6           0        8.381237    4.360506   -1.365533
    277          8           0        8.250926    5.574507   -1.623373
    278          7           0        8.437869    3.421549   -2.315846
    279          1           0        8.506177    2.448051   -2.014619
    280          6           0        8.160601    3.675656   -3.717409
    281          1           0        7.916636    4.732267   -3.831424
    282          6           0        9.353518    3.327790   -4.631299
    283          1           0        9.353465    2.250904   -4.840350
    284          1           0        9.184204    3.842551   -5.582649
    285          6           0       10.720563    3.688377   -4.045665
    286          1           0       10.918108    3.071401   -3.161756
    287          1           0       11.489095    3.422402   -4.784254
    288          6           0       10.911240    5.150759   -3.632177
    289          1           0       10.263215    5.409454   -2.796168
    290          1           0       11.941429    5.293883   -3.283446
    291          7           0       10.655830    6.077229   -4.723890
    292          1           0       11.060616    5.822023   -5.612060
    293          6           0        9.713059    7.043438   -4.790044
    294          7           0        8.856761    7.247037   -3.806277
    295          1           0        8.693929    6.567999   -3.060485
    296          1           0        8.208834    8.038801   -3.765506
    297          7           0        9.703951    7.856016   -5.864545
    298          1           0       10.408355    7.642055   -6.557083
    299          1           0        8.741420    7.955805   -6.298882
    300          6           0        6.938035    2.839221   -4.110520
    301          8           0        6.630078    1.829162   -3.459231
    302          7           0        6.275370    3.265263   -5.182032
    303          1           0        6.625522    4.113288   -5.662065
    304          6           0        5.066804    2.590246   -5.632071
    305          1           0        5.177229    1.514356   -5.491756
    306          6           0        3.826032    3.091957   -4.893453
    307          1           0        3.621419    4.145486   -5.113939
    308          1           0        2.948489    2.498953   -5.173284
    309          1           0        3.968034    3.007701   -3.812710
    310          1           0        4.970415    2.771488   -6.707093
    311          1           0       -6.509202   -1.776006   -9.764110
    312          6           0       -5.456152   -1.836315  -10.061617
    313          1           0       -5.420298   -2.140830  -11.112352
    314          6           0       -4.745192   -0.500351   -9.852005
    315          1           0       -3.699954   -0.581775  -10.174019
    316          1           0       -5.210431    0.268126  -10.480942
    317          6           0       -4.784446   -0.039444   -8.396194
    318          1           0       -5.822523    0.051308   -8.052475
    319          1           0       -4.273161   -0.768733   -7.752926
    320         16           0       -3.952678    1.568696   -8.220980
    321          6           0       -4.223375    1.842107   -6.451419
    322          1           0       -3.747137    1.059637   -5.855520
    323          1           0       -3.765742    2.792326   -6.177802
    324          1           0       -5.290221    1.910335   -6.222333
    325          1           0       -4.985975   -2.630729   -9.469297
    326          1           0       -0.168345   -2.877510   -8.151430
    327          6           0        0.765552   -2.314290   -8.233070
    328          1           0        1.067896   -2.341070   -9.289379
    329          6           0        0.527804   -0.852424   -7.814591
    330          1           0        1.456199   -0.267772   -7.833597
    331          1           0       -0.119788   -0.397707   -8.574661
    332          6           0       -0.140770   -0.728475   -6.466397
    333          6           0        0.536655   -0.261145   -5.339082
    334          1           0        1.580285    0.038823   -5.423620
    335          6           0       -0.113869   -0.186210   -4.107161
    336          1           0        0.413174    0.185319   -3.232380
    337          6           0       -1.437008   -0.595853   -3.989785
    338          1           0       -1.946249   -0.563285   -3.035916
    339          6           0       -2.112153   -1.078906   -5.106559
    340          1           0       -3.128029   -1.445902   -4.997015
    341          6           0       -1.471112   -1.132309   -6.334883
    342          1           0       -1.993402   -1.532322   -7.200699
    343          6           0        1.793943   -3.117046   -7.464011
    344          8           0        1.661955   -4.297292   -7.182299
    345          7           0        2.931038   -2.427162   -7.192531
    346          1           0        2.964961   -1.424424   -7.315855
    347          6           0        3.941328   -2.923484   -6.300482
    348          1           0        3.526764   -3.755680   -5.722445
    349          6           0        5.179819   -3.374640   -7.104801
    350          1           0        4.800379   -4.070694   -7.862402
    351          1           0        5.551086   -2.486669   -7.634807
    352          6           0        6.320073   -4.017696   -6.304837
    353          1           0        6.452044   -3.515215   -5.340237
    354          1           0        6.080715   -5.065796   -6.084683
    355          6           0        7.667028   -3.923343   -7.016750
    356          1           0        7.961857   -2.867389   -7.109847
    357          1           0        8.439187   -4.420950   -6.427221
    358          7           0        7.628218   -4.555343   -8.329634
    359          1           0        6.767948   -4.408699   -8.840271
    360          6           0        8.741817   -4.559970   -9.128080
    361          7           0        9.895075   -4.169773   -8.704040
    362          1           0       10.499668   -3.605123   -7.149492
    363          1           0       10.619481   -4.318839   -9.400826
    364          7           0        8.471083   -5.003052  -10.422201
    365          1           0        7.783904   -5.743479  -10.476573
    366          1           0        9.289634   -5.207041  -10.977304
    367          6           0        4.303148   -1.729285   -5.427862
    368          8           0        4.274907   -0.593094   -5.897113
    369          7           0        4.665311   -2.003689   -4.166199
    370          1           0        4.751468   -2.968638   -3.881087
    371          6           0        5.353039   -1.033791   -3.350694
    372          1           0        5.512492   -0.138782   -3.953649
    373          6           0        4.534988   -0.628469   -2.099714
    374          1           0        5.194173   -0.003694   -1.484380
    375          6           0        3.327394    0.199726   -2.527655
    376          1           0        2.661570   -0.393773   -3.164446
    377          1           0        2.758474    0.521460   -1.649152
    378          1           0        3.637291    1.086653   -3.083343
    379          6           0        4.093118   -1.839791   -1.280235
    380          1           0        4.939189   -2.479874   -1.021994
    381          1           0        3.626725   -1.520997   -0.342819
    382          1           0        3.358447   -2.442545   -1.829083
    383          6           0        6.703941   -1.631957   -2.987277
    384          8           0        6.861452   -2.864792   -2.930045
    385          7           0        7.673347   -0.746339   -2.759505
    386          1           0        7.458004    0.249305   -2.862294
    387          6           0        9.002722   -1.130720   -2.339097
    388          1           0        8.941958   -2.175979   -2.029137
    389          6           0       10.019737   -1.042774   -3.492035
    390          1           0        9.758333   -0.215541   -4.159426
    391          1           0       11.022144   -0.845248   -3.096830
    392          6           0       10.010312   -2.369417   -4.250423
    393          1           0       10.623982   -3.109969   -3.730279
    394          1           0        8.992546   -2.786666   -4.241271
    395          6           0       10.371646   -2.317195   -5.713920
    396          8           0       10.303757   -1.328066   -6.412034
    397          8           0       10.673384   -3.537480   -6.163884
    398          6           0        9.369021   -0.318592   -1.101987
    399          8           0        9.145249    0.893671   -1.027597
    400          7           0        9.908614   -1.040819   -0.109067
    401          1           0       10.241172   -1.989353   -0.284230
    402          6           0       10.161365   -0.507387    1.214619
    403          1           0       10.739922    0.421923    1.108484
    404          6           0        8.882939   -0.146693    1.981027
    405          1           0        9.160174    0.345798    2.917070
    406          1           0        8.349117    0.608076    1.397027
    407          6           0        7.935793   -1.300111    2.312373
    408          1           0        8.476973   -2.206876    2.605056
    409          1           0        7.330931   -1.003397    3.172231
    410         16           0        6.758542   -1.726093    0.976996
    411          6           0        7.430910   -3.291774    0.359879
    412          1           0        7.159537   -4.130127    1.005639
    413          1           0        7.014886   -3.452477   -0.636147
    414          1           0        8.516854   -3.246474    0.270174
    415          6           0       11.083461   -1.503290    1.927838
    416          8           0       11.599727   -2.439256    1.320376
    417          7           0       11.331041   -1.225951    3.221028
    418          1           0       10.819109   -0.503212    3.743484
    419          6           0       12.337929   -1.953310    3.958076
    420          1           0       12.915515   -2.522063    3.222812
    421          6           0       13.278925   -0.978712    4.701264
    422          1           0       12.651081   -0.378007    5.370622
    423          6           0       14.307782   -1.737715    5.542814
    424          1           0       14.906198   -2.412746    4.917355
    425          1           0       14.993783   -1.034116    6.025803
    426          1           0       13.833638   -2.332640    6.329495
    427          6           0       13.968598   -0.045171    3.705881
    428          1           0       13.240206    0.521552    3.119478
    429          1           0       14.607495    0.670714    4.233820
    430          1           0       14.599070   -0.612630    3.009365
    431          6           0       11.693639   -2.905363    4.963777
    432          8           0       10.954581   -2.500635    5.859897
    433          7           0       12.079930   -4.196666    4.851499
    434          1           0       12.468809   -4.487685    3.967905
    435          6           0       11.646399   -5.208218    5.792461
    436          1           0       11.733319   -4.773263    6.792093
    437          6           0       10.204044   -5.702555    5.581351
    438          1           0        9.581212   -4.831605    5.348051
    439          1           0       10.166888   -6.363564    4.710708
    440          6           0        9.663078   -6.401512    6.787283
    441          6           0        9.354056   -7.723791    6.926545
    442          1           0        9.425282   -8.526176    6.204336
    443          7           0        8.887847   -7.969789    8.202581
    444          1           0        8.530066   -8.850402    8.530211
    445          6           0        8.871438   -6.788907    8.909989
    446          6           0        8.468807   -6.517837   10.220541
    447          1           0        8.089608   -7.301292   10.870742
    448          6           0        8.564759   -5.206797   10.656144
    449          1           0        8.255752   -4.959545   11.667673
    450          6           0        9.046985   -4.186459    9.813914
    451          1           0        9.100285   -3.169297   10.190136
    452          6           0        9.444677   -4.458121    8.516355
    453          1           0        9.810496   -3.669977    7.862138
    454          6           0        9.359457   -5.779534    8.051740
    455          1           0       12.348046   -6.046467    5.741056
    456          1           0       12.233580   -4.892938    0.342200
    457          6           0       11.605397   -5.724177    0.012014
    458          1           0       12.242385   -6.453659   -0.503620
    459          6           0       10.945913   -6.401141    1.210650
    460          1           0       10.333707   -7.251613    0.901952
    461          1           0       11.718382   -6.784608    1.884154
    462         16           0        9.882194   -5.203687    2.092971
    463          1           0        9.025443   -6.105169    2.599151
    464          6           0       10.620172   -5.129790   -0.992236
    465          8           0       10.664914   -3.948384   -1.329541
    466          7           0        9.730465   -6.002392   -1.513375
    467          1           0        9.604062   -6.923605   -1.112701
    468          6           0        8.655330   -5.578565   -2.378256
    469          1           0        8.539317   -4.497651   -2.268111
    470          6           0        8.932572   -5.896501   -3.852499
    471          1           0        9.066117   -6.974377   -3.993301
    472          1           0        8.089413   -5.569867   -4.468810
    473          1           0        9.831519   -5.378021   -4.196098
    474          6           0        7.378031   -6.280984   -1.919622
[...]
 ,0,-3.101145,-6.791111,6.130801\C,0,-4.309942,-6.255754,4.376613\H,0,-
 4.786534,-7.176858,4.028004\H,0,-3.388091,-6.106669,3.807343\C,-1,-5.2
 26933,-5.033092,4.1839\H,0,-5.080575,-4.609121,3.188142\C,0,-6.685726,
 -5.449246,4.407664\O,0,-7.114916,-5.705822,5.526837\N,0,-7.386252,-5.5
 79628,3.263915\H,0,-6.935887,-5.330606,2.388812\C,-1,-8.709712,-6.1543
 63,3.218608\H,0,-9.164615,-6.014754,4.203191\C,0,-9.586822,-5.52398,2.
 136685\H,0,-9.659742,-4.44663,2.322773\H,0,-9.109804,-5.655276,1.15537
 5\C,0,-10.949437,-6.175305,2.142315\C,0,-11.888828,-5.849257,3.120897\
 H,0,-11.678333,-5.08211,3.856705\C,0,-13.126175,-6.480614,3.16824\H,0,
 -13.842147,-6.137457,3.909035\C,0,-13.436393,-7.465666,2.232351\H,0,-1
 4.40549,-7.959422,2.259207\C,0,-12.508453,-7.801747,1.248259\H,0,-12.7
 45386,-8.54201,0.489668\C,0,-11.273306,-7.159881,1.209308\H,0,-10.5503
 77,-7.425724,0.443918\H,0,-8.650073,-7.23938,3.046531\H,0,-3.098089,6.
 881802,8.883147\C,-1,-2.849838,5.916668,8.422404\H,0,-2.478539,5.26598
 7,9.220036\C,0,-4.113326,5.306501,7.790066\H,0,-4.894561,5.304411,8.55
 8724\H,0,-4.491785,5.944792,6.981719\C,0,-3.915784,3.899715,7.272549\C
 ,0,-3.737998,2.845059,8.176072\H,0,-3.722488,3.050272,9.245124\C,0,-3.
 611994,1.535613,7.719829\H,0,-3.511752,0.718361,8.428252\C,0,-3.659408
 ,1.262531,6.352035\H,0,-3.619677,0.231309,6.009774\C,0,-3.819702,2.307
 989,5.445084\H,0,-3.870824,2.077194,4.384572\C,0,-3.941048,3.61839,5.9
 06868\H,0,-4.079258,4.426588,5.191427\C,0,-1.699573,6.146798,7.468289\
 O,0,-0.564848,5.696373,7.687414\N,0,-1.949753,6.911727,6.397873\H,0,-2
 .901802,7.1824,6.199041\C,-1,-0.933111,7.205126,5.406411\H,0,-0.403032
 ,6.276906,5.165566\C,0,-1.557065,7.812842,4.150959\H,0,-2.016283,8.777
 953,4.403161\H,0,-0.736695,8.038607,3.457915\C,0,-2.575349,6.931431,3.
 455366\C,0,-3.820226,7.434655,3.081907\H,0,-4.088976,8.456869,3.340607
 \C,0,-4.721546,6.674388,2.33497\H,0,-5.679146,7.092207,2.03182\C,0,-4.
 365851,5.384535,1.956341\O,0,-5.129167,4.608741,1.133731\H,0,-5.966844
 ,5.026843,0.871527\C,0,-3.151447,4.837265,2.375445\H,0,-2.918411,3.808
 965,2.115055\C,0,-2.265375,5.608351,3.110919\H,0,-1.32191,5.158076,3.4
 15302\H,0,-0.197109,7.898088,5.831505\H,0,1.739433,6.823831,9.086544\C
 ,-1,2.430498,6.045588,9.437522\H,0,3.191125,6.52034,10.060467\C,0,1.62
 5167,4.991126,10.224336\H,0,1.242839,4.229959,9.537474\H,0,2.286683,4.
 472274,10.926877\C,0,0.453279,5.635472,10.974907\H,0,0.811407,6.420291
 ,11.647021\H,0,-0.211791,6.094214,10.232384\C,0,-0.355664,4.669511,11.
 832405\O,0,-0.443856,4.798846,13.045018\N,0,-1.006812,3.684751,11.1515
 75\H,0,-1.449325,2.98053,11.724163\H,0,-0.791097,3.433525,10.182866\C,
 0,3.129177,5.457902,8.212868\O,0,4.349923,5.371254,8.121971\N,0,2.3031
 28,5.027368,7.209955\H,0,1.301141,5.132048,7.33253\C,-1,2.762581,4.061
 312,6.223176\H,0,3.182164,3.177147,6.712012\H,0,1.901503,3.751617,5.61
 8054\C,0,3.828327,4.57415,5.265346\O,0,4.620047,3.806725,4.727679\N,0,
 3.773509,5.905577,5.028735\H,0,3.040856,6.415414,5.504067\C,-1,4.61893
 2,6.608932,4.092811\H,0,5.321888,5.867585,3.700277\C,0,3.804223,7.2202
 63,2.933945\H,0,3.212783,8.055548,3.337531\H,0,4.512068,7.658184,2.222
 562\C,0,2.86127,6.253176,2.206016\H,0,2.167784,5.827756,2.946475\C,0,2
 .03581,7.023789,1.169042\H,0,2.678968,7.408612,0.367414\H,0,1.276793,6
 .37541,0.714694\H,0,1.513883,7.876044,1.621606\C,0,3.617235,5.101463,1
 .538268\H,0,4.105273,4.453928,2.274475\H,0,2.932005,4.476749,0.95231\H
 ,0,4.377336,5.493479,0.851029\C,0,5.436354,7.72484,4.750577\O,0,6.0888
 91,8.505694,4.069795\N,0,5.327197,7.837574,6.098115\H,0,5.00317,7.0408
 32,6.636451\C,-1,6.011097,8.916718,6.776721\H,0,5.785242,9.861423,6.27
 649\H,0,5.662831,8.957817,7.811062\H,0,7.099706,8.783918,6.770155\H,0,
 9.098274,4.62686,0.592495\C,-1,8.472449,3.90117,0.062135\H,0,8.94602,2
 .915872,0.124432\C,0,7.076401,3.846823,0.730621\H,0,6.606311,4.828271,
 0.59066\C,0,6.182325,2.778406,0.09348\H,0,6.639813,1.784295,0.179339\H
 ,0,5.211466,2.748589,0.600039\H,0,6.003529,2.962063,-0.971061\C,0,7.23
 0809,3.605908,2.233164\H,0,7.873044,4.367003,2.693505\H,0,6.259738,3.6
 40173,2.739458\H,0,7.674714,2.623549,2.433776\C,0,8.381237,4.360506,-1
 .365533\O,0,8.250926,5.574507,-1.623373\N,0,8.437869,3.421549,-2.31584
 6\H,0,8.506177,2.448051,-2.014619\C,-1,8.160601,3.675656,-3.717409\H,0
 ,7.916636,4.732267,-3.831424\C,0,9.353518,3.32779,-4.631299\H,0,9.3534
 65,2.250904,-4.84035\H,0,9.184204,3.842551,-5.582649\C,0,10.720563,3.6
 88377,-4.045665\H,0,10.918108,3.071401,-3.161756\H,0,11.489095,3.42240
 2,-4.784254\C,0,10.91124,5.150759,-3.632177\H,0,10.263215,5.409454,-2.
 796168\H,0,11.941429,5.293883,-3.283446\N,0,10.65583,6.077229,-4.72389
 \H,0,11.060616,5.822023,-5.61206\C,0,9.713059,7.043438,-4.790044\N,0,8
 .856761,7.247037,-3.806277\H,0,8.693929,6.567999,-3.060485\H,0,8.20883
 4,8.038801,-3.765506\N,0,9.703951,7.856016,-5.864545\H,0,10.408355,7.6
 42055,-6.557083\H,0,8.74142,7.955805,-6.298882\C,0,6.938035,2.839221,-
 4.11052\O,0,6.630078,1.829162,-3.459231\N,0,6.27537,3.265263,-5.182032
 \H,0,6.625522,4.113288,-5.662065\C,-1,5.066804,2.590246,-5.632071\H,0,
 5.177229,1.514356,-5.491756\C,0,3.826032,3.091957,-4.893453\H,0,3.6214
 19,4.145486,-5.113939\H,0,2.948489,2.498953,-5.173284\H,0,3.968034,3.0
 07701,-3.81271\H,0,4.970415,2.771488,-6.707093\H,0,-6.509202,-1.776006
 ,-9.76411\C,-1,-5.456152,-1.836315,-10.061617\H,0,-5.420298,-2.14083,-
 11.112352\C,0,-4.745192,-0.500351,-9.852005\H,0,-3.699954,-0.581775,-1
 0.174019\H,0,-5.210431,0.268126,-10.480942\C,0,-4.784446,-0.039444,-8.
 396194\H,0,-5.822523,0.051308,-8.052475\H,0,-4.273161,-0.768733,-7.752
 926\S,0,-3.952678,1.568696,-8.22098\C,0,-4.223375,1.842107,-6.451419\H
 ,0,-3.747137,1.059637,-5.85552\H,0,-3.765742,2.792326,-6.177802\H,0,-5
 .290221,1.910335,-6.222333\H,0,-4.985975,-2.630729,-9.469297\H,0,-0.16
 8345,-2.87751,-8.15143\C,-1,0.765552,-2.31429,-8.23307\H,0,1.067896,-2
 .34107,-9.289379\C,0,0.527804,-0.852424,-7.814591\H,0,1.456199,-0.2677
 72,-7.833597\H,0,-0.119788,-0.397707,-8.574661\C,0,-0.14077,-0.728475,
 -6.466397\C,0,0.536655,-0.261145,-5.339082\H,0,1.580285,0.038823,-5.42
 362\C,0,-0.113869,-0.18621,-4.107161\H,0,0.413174,0.185319,-3.23238\C,
 0,-1.437008,-0.595853,-3.989785\H,0,-1.946249,-0.563285,-3.035916\C,0,
 -2.112153,-1.078906,-5.106559\H,0,-3.128029,-1.445902,-4.997015\C,0,-1
 .471112,-1.132309,-6.334883\H,0,-1.993402,-1.532322,-7.200699\C,0,1.79
 3943,-3.117046,-7.464011\O,0,1.661955,-4.297292,-7.182299\N,0,2.931038
 ,-2.427162,-7.192531\H,0,2.964961,-1.424424,-7.315855\C,-1,3.941328,-2
 .923484,-6.300482\H,0,3.526764,-3.75568,-5.722445\C,0,5.179819,-3.3746
 4,-7.104801\H,0,4.800379,-4.070694,-7.862402\H,0,5.551086,-2.486669,-7
 .634807\C,0,6.320073,-4.017696,-6.304837\H,0,6.452044,-3.515215,-5.340
 237\H,0,6.080715,-5.065796,-6.084683\C,0,7.667028,-3.923343,-7.01675\H
 ,0,7.961857,-2.867389,-7.109847\H,0,8.439187,-4.42095,-6.427221\N,0,7.
 628218,-4.555343,-8.329634\H,0,6.767948,-4.408699,-8.840271\C,0,8.7418
 17,-4.55997,-9.12808\N,0,9.895075,-4.169773,-8.70404\H,0,10.499668,-3.
 605123,-7.149492\H,0,10.619481,-4.318839,-9.400826\N,0,8.471083,-5.003
 052,-10.422201\H,0,7.783904,-5.743479,-10.476573\H,0,9.289634,-5.20704
 1,-10.977304\C,0,4.303148,-1.729285,-5.427862\O,0,4.274907,-0.593094,-
 5.897113\N,0,4.665311,-2.003689,-4.166199\H,0,4.751468,-2.968638,-3.88
 1087\C,-1,5.353039,-1.033791,-3.350694\H,0,5.512492,-0.138782,-3.95364
 9\C,0,4.534988,-0.628469,-2.099714\H,0,5.194173,-0.003694,-1.48438\C,0
 ,3.327394,0.199726,-2.527655\H,0,2.66157,-0.393773,-3.164446\H,0,2.758
 474,0.52146,-1.649152\H,0,3.637291,1.086653,-3.083343\C,0,4.093118,-1.
 839791,-1.280235\H,0,4.939189,-2.479874,-1.021994\H,0,3.626725,-1.5209
 97,-0.342819\H,0,3.358447,-2.442545,-1.829083\C,0,6.703941,-1.631957,-
 2.987277\O,0,6.861452,-2.864792,-2.930045\N,0,7.673347,-0.746339,-2.75
 9505\H,0,7.458004,0.249305,-2.862294\C,-1,9.002722,-1.13072,-2.339097\
 H,0,8.941958,-2.175979,-2.029137\C,0,10.019737,-1.042774,-3.492035\H,0
 ,9.758333,-0.215541,-4.159426\H,0,11.022144,-0.845248,-3.09683\C,0,10.
 010312,-2.369417,-4.250423\H,0,10.623982,-3.109969,-3.730279\H,0,8.992
 546,-2.786666,-4.241271\C,0,10.371646,-2.317195,-5.71392\O,0,10.303757
 ,-1.328066,-6.412034\O,0,10.673384,-3.53748,-6.163884\C,0,9.369021,-0.
 318592,-1.101987\O,0,9.145249,0.893671,-1.027597\N,0,9.908614,-1.04081
 9,-0.109067\H,0,10.241172,-1.989353,-0.28423\C,-1,10.161365,-0.507387,
 1.214619\H,0,10.739922,0.421923,1.108484\C,0,8.882939,-0.146693,1.9810
 27\H,0,9.160174,0.345798,2.91707\H,0,8.349117,0.608076,1.397027\C,0,7.
 935793,-1.300111,2.312373\H,0,8.476973,-2.206876,2.605056\H,0,7.330931
 ,-1.003397,3.172231\S,0,6.758542,-1.726093,0.976996\C,0,7.43091,-3.291
 774,0.359879\H,0,7.159537,-4.130127,1.005639\H,0,7.014886,-3.452477,-0
 .636147\H,0,8.516854,-3.246474,0.270174\C,0,11.083461,-1.50329,1.92783
 8\O,0,11.599727,-2.439256,1.320376\N,0,11.331041,-1.225951,3.221028\H,
 0,10.819109,-0.503212,3.743484\C,-1,12.337929,-1.95331,3.958076\H,0,12
 .915515,-2.522063,3.222812\C,0,13.278925,-0.978712,4.701264\H,0,12.651
 081,-0.378007,5.370622\C,0,14.307782,-1.737715,5.542814\H,0,14.906198,
 -2.412746,4.917355\H,0,14.993783,-1.034116,6.025803\H,0,13.833638,-2.3
 3264,6.329495\C,0,13.968598,-0.045171,3.705881\H,0,13.240206,0.521552,
 3.119478\H,0,14.607495,0.670714,4.23382\H,0,14.59907,-0.61263,3.009365
 \C,0,11.693639,-2.905363,4.963777\O,0,10.954581,-2.500635,5.859897\N,0
 ,12.07993,-4.196666,4.851499\H,0,12.468809,-4.487685,3.967905\C,-1,11.
 646399,-5.208218,5.792461\H,0,11.733319,-4.773263,6.792093\C,0,10.2040
 44,-5.702555,5.581351\H,0,9.581212,-4.831605,5.348051\H,0,10.166888,-6
 .363564,4.710708\C,0,9.663078,-6.401512,6.787283\C,0,9.354056,-7.72379
 1,6.926545\H,0,9.425282,-8.526176,6.204336\N,0,8.887847,-7.969789,8.20
 2581\H,0,8.530066,-8.850402,8.530211\C,0,8.871438,-6.788907,8.909989\C
 ,0,8.468807,-6.517837,10.220541\H,0,8.089608,-7.301292,10.870742\C,0,8
 .564759,-5.206797,10.656144\H,0,8.255752,-4.959545,11.667673\C,0,9.046
 985,-4.186459,9.813914\H,0,9.100285,-3.169297,10.190136\C,0,9.444677,-
 4.458121,8.516355\H,0,9.810496,-3.669977,7.862138\C,0,9.359457,-5.7795
 34,8.05174\H,0,12.348046,-6.046467,5.741056\H,0,12.23358,-4.892938,0.3
 422\C,-1,11.605397,-5.724177,0.012014\H,0,12.242385,-6.453659,-0.50362
 \C,0,10.945913,-6.401141,1.21065\H,0,10.333707,-7.251613,0.901952\H,0,
 11.718382,-6.784608,1.884154\S,0,9.882194,-5.203687,2.092971\H,0,9.025
 443,-6.105169,2.599151\C,0,10.620172,-5.12979,-0.992236\O,0,10.664914,
 -3.948384,-1.329541\N,0,9.730465,-6.002392,-1.513375\H,0,9.604062,-6.9
 23605,-1.112701\C,-1,8.65533,-5.578565,-2.378256\H,0,8.539317,-4.49765
 1,-2.268111\C,0,8.932572,-5.896501,-3.852499\H,0,9.066117,-6.974377,-3
 .993301\H,0,8.089413,-5.569867,-4.46881\H,0,9.831519,-5.378021,-4.1960
 98\C,0,7.378031,-6.280984,-1.919622\O,0,7.428006,-7.340254,-1.295425\N
 ,0,6.242995,-5.671792,-2.311624\H,0,6.333089,-4.712124,-2.637881\C,-1,
 4.933106,-6.086994,-1.836353\H,0,4.924446,-7.177838,-1.777399\C,0,4.60
 9973,-5.445369,-0.480959\H,0,5.195802,-5.944455,0.301376\H,0,4.961485,
 -4.410178,-0.504936\C,0,3.129466,-5.429055,-0.102291\H,0,2.605962,-4.8
 38103,-0.864747\C,0,2.508507,-6.824542,-0.082236\H,0,3.030099,-7.47126
 5,0.634493\H,0,1.46145,-6.758079,0.224643\H,0,2.542011,-7.307893,-1.06
 5539\C,0,2.930807,-4.725831,1.240638\H,0,3.386361,-3.728523,1.233704\H
 ,0,1.866097,-4.617236,1.473229\H,0,3.390409,-5.299951,2.055933\H,0,4.1
 9106,-5.78649,-2.586365\H,0,-0.097735,-5.569632,-4.492635\C,-1,-1.0169
 04,-5.248598,-3.99315\H,0,-1.394088,-6.066427,-3.366772\C,0,-0.730668,
 -4.000714,-3.130742\H,0,-0.427511,-3.201367,-3.817953\C,0,-1.980337,-3
 .546896,-2.372397\H,0,-2.389563,-4.376625,-1.784175\H,0,-1.740123,-2.7
 28298,-1.684569\H,0,-2.76892,-3.187505,-3.039913\C,0,0.425398,-4.26371
 9,-2.166966\H,0,1.314866,-4.609445,-2.708874\H,0,0.690972,-3.349303,-1
 .622384\H,0,0.162894,-5.023786,-1.420461\C,0,-2.010731,-4.886931,-5.08
 2878\O,0,-1.680208,-4.252477,-6.078554\N,0,-3.307482,-5.255247,-4.8596
 23\H,0,-3.559049,-5.761939,-4.012877\C,-1,-4.36428,-4.764247,-5.720932
 \H,0,-3.861819,-4.143498,-6.470471\C,0,-5.128485,-5.900094,-6.434584\H
 ,0,-5.521983,-6.563267,-5.651569\C,0,-6.312907,-5.338395,-7.226415\H,0
 ,-5.971344,-4.615392,-7.979891\H,0,-6.850914,-6.1343,-7.749062\H,0,-7.
 034719,-4.838944,-6.572363\C,0,-4.163311,-6.702704,-7.315794\H,0,-3.81
 5053,-6.064165,-8.139708\H,0,-3.276187,-6.947698,-6.72274\C,0,-4.76039
 8,-7.99397,-7.873803\H,0,-5.591466,-7.803187,-8.561468\H,0,-4.003639,-
 8.563765,-8.423421\H,0,-5.13661,-8.630738,-7.064665\C,0,-5.320925,-3.9
 34091,-4.885076\O,0,-5.911191,-4.434745,-3.929311\N,0,-5.510996,-2.658
 636,-5.274804\H,0,-5.063724,-2.347184,-6.124431\C,-1,-6.536047,-1.8369
 76,-4.669685\H,0,-6.823062,-2.305649,-3.727779\C,0,-6.141612,-0.39873,
 -4.424125\H,0,-5.859695,0.109228,-5.350494\H,0,-7.021425,0.137109,-4.0
 48398\C,0,-5.030175,-0.19828,-3.419983\O,0,-4.50359,-1.077311,-2.76818
 3\O,0,-4.698199,1.084828,-3.351266\H,0,-3.883774,1.216792,-2.789089\H,
 0,-7.428764,-1.847003,-5.309554\H,0,-11.675053,0.73697,-4.726534\C,-1,
 -11.820672,1.711865,-5.205439\H,0,-12.267089,2.384142,-4.463942\C,0,-1
 0.499147,2.274578,-5.734308\H,0,-10.091094,1.601294,-6.498042\H,0,-10.
 682481,3.235721,-6.229792\C,0,-9.451784,2.478528,-4.636825\H,0,-9.8458
 37,3.1357,-3.851357\H,0,-9.190926,1.520353,-4.17052\S,0,-7.959699,3.25
 2276,-5.350258\C,0,-6.996134,3.600441,-3.852118\H,0,-6.551415,2.697536
 ,-3.427254\H,0,-6.184206,4.27342,-4.143199\H,0,-7.627197,4.096509,-3.1
 0673\H,0,-12.541105,1.580379,-6.018739\H,0,-11.578514,2.194117,-0.5247
 48\C,-1,-10.641445,1.703131,-0.804026\H,0,-10.674048,1.509001,-1.88383
 6\C,0,-9.46458,2.638877,-0.480134\H,0,-9.596807,3.557801,-1.065804\H,0
 ,-9.515095,2.930159,0.575038\C,0,-8.0661,2.080519,-0.785949\H,0,-8.078
 697,1.48432,-1.708306\H,0,-7.386686,2.922056,-0.945981\S,0,-7.351833,1
 .095854,0.580307\C,0,-5.587146,1.338226,0.22144\H,0,-5.350596,2.402229
 ,0.141107\H,0,-5.015892,0.931722,1.062741\H,0,-5.28832,0.826576,-0.697
 371\C,0,-10.552019,0.40352,-0.017891\O,0,-10.72434,0.398033,1.197338\N
 ,0,-10.257016,-0.691465,-0.750852\H,0,-9.974413,-0.564472,-1.714416\C,
 -1,-9.794024,-1.950643,-0.189016\H,0,-9.722327,-1.832593,0.895886\C,0,
 -10.71638,-3.114804,-0.551873\H,0,-10.709048,-3.240469,-1.639637\H,0,-
 10.296429,-4.032334,-0.125336\C,0,-12.145932,-2.91587,-0.061925\H,0,-1
 2.188354,-2.642508,0.998353\H,0,-12.614768,-2.098363,-0.623955\C,0,-12
 .956133,-4.178092,-0.296581\O,0,-12.830627,-4.820461,-1.358275\N,0,-13
 .793109,-4.50823,0.68405\H,0,-14.229857,-5.417539,0.632831\H,0,-13.750
 76,-4.014206,1.602696\C,0,-8.420222,-2.203454,-0.800526\O,0,-8.208824,
 -1.902672,-1.979226\N,0,-7.53795,-2.822163,0.001567\H,0,-7.717299,-2.8
 3019,1.006593\C,-1,-6.208028,-3.148814,-0.463008\H,0,-6.182083,-2.9432
 26,-1.534356\C,0,-5.131703,-2.320535,0.235036\H,0,-5.108853,-2.524673,
 1.308646\H,0,-4.144741,-2.545915,-0.184299\H,0,-5.329589,-1.26078,0.07
 7207\C,0,-5.960933,-4.629532,-0.207491\O,0,-5.855884,-5.089203,0.93521
 5\N,0,-5.856336,-5.398332,-1.296516\H,0,-5.876162,-4.978548,-2.223847\
 C,-1,-5.754454,-6.837568,-1.207444\H,0,-6.203075,-7.142793,-0.259166\C
 ,0,-6.509157,-7.489365,-2.385691\H,0,-6.147925,-7.013422,-3.304669\H,0
 ,-6.201742,-8.54015,-2.438932\C,0,-8.015391,-7.417001,-2.288439\C,0,-8
 .722294,-6.216662,-2.433625\H,0,-8.189671,-5.292447,-2.641515\C,0,-10.
 10779,-6.178671,-2.335821\H,0,-10.650357,-5.24552,-2.433651\C,0,-10.83
 6612,-7.350106,-2.094338\O,0,-12.176225,-7.363234,-1.969921\H,0,-12.50
 2263,-6.455442,-1.745495\C,0,-10.144433,-8.559105,-1.977329\H,0,-10.70
 8077,-9.467714,-1.788105\C,0,-8.757695,-8.579477,-2.065125\H,0,-8.2374
 64,-9.529492,-1.954421\C,0,-4.287745,-7.256028,-1.269282\O,0,-3.619276
 ,-7.140256,-2.297048\N,0,-3.817809,-7.809094,-0.130268\H,0,-4.332087,-
 7.604492,0.715243\C,-1,-2.446581,-8.262066,-0.000244\H,0,-2.240696,-8.
 955371,-0.821764\C,0,-1.417713,-7.118843,-0.028813\H,0,-0.426367,-7.57
 3432,0.08014\H,0,-1.449724,-6.676982,-1.029823\C,0,-1.613982,-6.057392
 ,1.013193\C,0,-2.522513,-5.026311,0.970643\H,0,-3.256799,-4.798067,0.2
 12849\N,0,-2.41382,-4.235795,2.079877\H,0,-2.936732,-3.385098,2.309348
 \C,0,-1.422091,-4.735686,2.877783\C,0,-0.953349,-4.262047,4.107402\H,0
 ,-1.385249,-3.366355,4.544126\C,0,0.066246,-4.975161,4.713327\H,0,0.46
 1069,-4.636777,5.667158\C,0,0.610566,-6.12802,4.109804\H,0,1.412992,-6
 .660844,4.612897\C,0,0.140921,-6.590372,2.892223\H,0,0.571162,-7.48108
 3,2.440019\C,0,-0.893916,-5.890964,2.24837\H,0,-2.377186,-8.814584,0.9
 41342\H,0,5.092304,-10.121205,-0.426655\C,-1,5.934616,-9.998113,0.2624
 51\H,0,6.833605,-9.860395,-0.344718\C,0,5.704699,-8.797199,1.175458\H,
 0,5.739771,-7.895598,0.555149\H,0,4.699007,-8.848804,1.613266\C,0,6.72
 0511,-8.639902,2.315783\H,0,6.597276,-9.488587,3.005744\C,0,8.158581,-
 8.654891,1.7933\H,0,8.267638,-7.901148,1.003465\H,0,8.873051,-8.440637
 ,2.600021\H,0,8.427076,-9.625279,1.363315\C,0,6.445743,-7.348478,3.091
 582\H,0,5.415864,-7.315587,3.464398\H,0,7.116946,-7.241932,3.953659\H,
 0,6.585835,-6.474476,2.441118\H,0,6.0367,-10.929033,0.835384\O,0,-1.11
 8343,1.267858,3.961624\H,0,-1.288556,1.072878,4.891268\H,0,-1.920908,0
 .891243,3.50316\O,0,0.280853,3.653533,3.936539\H,0,0.722673,3.62457,3.
 079916\H,0,-0.29747,2.85456,3.937232\O,0,-0.509072,2.989798,8.375183\H
 ,0,-0.594147,3.900589,8.039613\H,0,-1.293642,2.534343,8.035992\O,0,6.8
 40587,7.362144,-0.025458\H,0,7.409716,6.686859,-0.443835\H,0,7.264424,
 7.594235,0.808629\O,0,7.523787,1.218373,4.729076\H,0,6.733906,0.641977
 ,4.78178\H,0,7.177815,2.118821,4.737747\O,0,6.879765,8.765264,-2.50370
 4\H,0,7.0017,8.455912,-1.586706\H,0,5.917214,8.650309,-2.61233\O,0,10.
 112161,0.278226,5.232578\H,0,9.192152,0.613788,5.188733\H,0,10.083037,
 -0.58025,5.685294\C,0,-1.760899,1.675839,-1.261345\O,0,-2.50464,1.8922
 97,-2.221418\C,0,-1.727869,0.392697,-0.587965\C,0,-0.84395,0.098696,0.
 39186\C,0,0.197273,1.102498,0.859664\C,0,0.432994,2.204483,-0.179916\C
 ,0,-0.867911,2.76698,-0.736936\C,0,-0.947336,-1.212314,1.112644\C,0,0.
 388565,-1.785521,1.58015\C,0,1.206164,-0.714821,2.300304\C,0,1.513753,
 0.423475,1.303875\C,0,2.496643,-1.259174,2.888142\C,0,3.370401,-0.1774
 68,3.55168\C,0,3.777278,0.834803,2.480094\C,0,2.533444,1.455332,1.8258
 69\C,0,2.406985,-2.373947,3.937764\C,0,3.788541,-2.335209,4.634291\C,0
 ,4.501838,-1.071941,4.091197\C,0,2.680321,0.544323,4.723949\O,0,5.3761
 21,-0.470283,5.044718\H,0,-2.482183,-0.331771,-0.890095\H,0,-0.233044,
 1.560295,1.765848\H,0,1.033162,1.795268,-1.004821\H,0,1.020521,3.02016
 3,0.25426\H,0,-1.434784,3.284214,0.049856\H,0,-0.699636,3.499998,-1.52
 9163\H,0,-1.490184,-1.93547,0.494513\H,0,-1.589931,-1.047394,1.991032\
 H,0,0.966994,-2.173519,0.727324\H,0,0.192568,-2.635299,2.240907\H,0,0.
 583174,-0.308984,3.109617\H,0,1.961908,-0.050692,0.413873\H,0,3.096535
 ,-1.652009,2.048253\H,0,4.376445,0.323884,1.711841\H,0,4.402875,1.6301
 57,2.904718\H,0,2.042138,2.115964,2.552962\H,0,2.860447,2.096544,0.999
 708\H,0,2.18392,-3.349103,3.500233\H,0,1.597552,-2.160812,4.645674\H,0
 ,4.383067,-3.230594,4.431026\H,0,3.690974,-2.265442,5.72451\H,0,5.1533
 6,-1.348418,3.257693\H,0,2.4607,-0.131001,5.560281\H,0,3.327409,1.3535
 54,5.08379\H,0,1.730197,1.002174,4.437014\H,0,4.843898,-0.184111,5.798
 255\\Version=ES64L-G16RevC.01\State=1-A\HF=-17140.2271775\RMSD=1.127e-
 09\Dipole=17.4569535,3.3529279,-9.6688479\Quadrupole=-288.0934548,171.
 2348236,116.8586312,-336.2325256,122.4000994,40.2474981\PG=C01 [X(C239
 H394N36O51S5)]\\@
 The archive entry for this job was punched.


 Any fool can criticize, condemn, and complain -- and most do.
 -- Dale Carnegie
 Job cpu time:       1 days 21 hours 24 minutes  1.3 seconds.
 Elapsed time:       0 days  0 hours 43 minutes 43.5 seconds.
 File lengths (MBytes):  RWF=  17843 Int=      0 D2E=      0 Chk=   1911 Scr=      1
 Normal termination of Gaussian 16 at Wed Apr 29 14:30:45 2026.
