 Entering Gaussian System, Link 0=g16
 Initial command:
 /cm/shared/apps/spack/cpu/opt/spack/linux-centos8-zen/gcc-8.3.1/gaussian-16.C.01-po5bqktfeugvmjyga3v7eigbecnokxng/g16/l1.exe "/scratch/hklem/job_32090260/Gau-345195.inp" -scrdir="/scratch/hklem/job_32090260/"
 Entering Link 1 = /cm/shared/apps/spack/cpu/opt/spack/linux-centos8-zen/gcc-8.3.1/gaussian-16.C.01-po5bqktfeugvmjyga3v7eigbecnokxng/g16/l1.exe PID=    345198.
  
 Copyright (c) 1988-2019, Gaussian, Inc.  All Rights Reserved.
  
 This is part of the Gaussian(R) 16 program.  It is based on
 the Gaussian(R) 09 system (copyright 2009, Gaussian, Inc.),
 the Gaussian(R) 03 system (copyright 2003, Gaussian, Inc.),
 the Gaussian(R) 98 system (copyright 1998, Gaussian, Inc.),
 the Gaussian(R) 94 system (copyright 1995, Gaussian, Inc.),
 the Gaussian 92(TM) system (copyright 1992, Gaussian, Inc.),
 the Gaussian 90(TM) system (copyright 1990, Gaussian, Inc.),
 the Gaussian 88(TM) system (copyright 1988, Gaussian, Inc.),
 the Gaussian 86(TM) system (copyright 1986, Carnegie Mellon
 University), and the Gaussian 82(TM) system (copyright 1983,
 Carnegie Mellon University). Gaussian is a federally registered
 trademark of Gaussian, Inc.
  
 This software contains proprietary and confidential information,
 including trade secrets, belonging to Gaussian, Inc.
  
 This software is provided under written license and may be
 used, copied, transmitted, or stored only in accord with that
 written license.
  
 The following legend is applicable only to US Government
 contracts under FAR:
  
                    RESTRICTED RIGHTS LEGEND
  
 Use, reproduction and disclosure by the US Government is
 subject to restrictions as set forth in subparagraphs (a)
 and (c) of the Commercial Computer Software - Restricted
 Rights clause in FAR 52.227-19.
  
 Gaussian, Inc.
 340 Quinnipiac St., Bldg. 40, Wallingford CT 06492
  
  
 ---------------------------------------------------------------
 Warning -- This program may not be used in any manner that
 competes with the business of Gaussian, Inc. or will provide
 assistance to any competitor of Gaussian, Inc.  The licensee
 of this program is prohibited from giving any competitor of
 Gaussian, Inc. access to this program.  By using this program,
 the user acknowledges that Gaussian, Inc. is engaged in the
 business of creating and licensing software in the field of
 computational chemistry and represents and warrants to the
 licensee that it is not a competitor of Gaussian, Inc. and that
 it will not use this program in any manner prohibited above.
 ---------------------------------------------------------------
  

 Cite this work as:
 Gaussian 16, Revision C.01,
 M. J. Frisch, G. W. Trucks, H. B. Schlegel, G. E. Scuseria, 
 M. A. Robb, J. R. Cheeseman, G. Scalmani, V. Barone, 
 G. A. Petersson, H. Nakatsuji, X. Li, M. Caricato, A. V. Marenich, 
 J. Bloino, B. G. Janesko, R. Gomperts, B. Mennucci, H. P. Hratchian, 
 J. V. Ortiz, A. F. Izmaylov, J. L. Sonnenberg, D. Williams-Young, 
 F. Ding, F. Lipparini, F. Egidi, J. Goings, B. Peng, A. Petrone, 
 T. Henderson, D. Ranasinghe, V. G. Zakrzewski, J. Gao, N. Rega, 
 G. Zheng, W. Liang, M. Hada, M. Ehara, K. Toyota, R. Fukuda, 
 J. Hasegawa, M. Ishida, T. Nakajima, Y. Honda, O. Kitao, H. Nakai, 
 T. Vreven, K. Throssell, J. A. Montgomery, Jr., J. E. Peralta, 
 F. Ogliaro, M. J. Bearpark, J. J. Heyd, E. N. Brothers, K. N. Kudin, 
 V. N. Staroverov, T. A. Keith, R. Kobayashi, J. Normand, 
 K. Raghavachari, A. P. Rendell, J. C. Burant, S. S. Iyengar, 
 J. Tomasi, M. Cossi, J. M. Millam, M. Klene, C. Adamo, R. Cammi, 
 J. W. Ochterski, R. L. Martin, K. Morokuma, O. Farkas, 
 J. B. Foresman, and D. J. Fox, Gaussian, Inc., Wallingford CT, 2019.
 
 ******************************************
 Gaussian 16:  ES64L-G16RevC.01  3-Jul-2019
                11-Jul-2024 
 ******************************************
 %nprocshared=32
 Will use up to   32 processors via shared memory.
 %mem=64GB
 --------------------------
 # wb97xd/6-31G(d) prop=efg
 --------------------------
 1/38=1,172=1/1;
 2/12=2,17=6,18=5,40=1/2;
 3/5=1,6=6,7=1,11=2,25=1,30=1,74=-58/1,2,3;
 4//1;
 5/5=2,38=5/2;
 6/7=2,8=2,9=2,10=2,14=1,28=1/1,2;
 99/5=1,9=1/99;
 --------------------------------------
 19nt_xstal_distance_cutoff5_xtb_conf_1
 --------------------------------------
 Symbolic Z-matrix:
 Charge = -1 Multiplicity = 1
 H                     46.9194   33.6133   30.8206 
 C                     46.309    34.451    30.471 
 H                     45.8767   34.1851   29.5052 
 C                     45.1801   34.715    31.4791 
 H                     44.5685   33.8109   31.5439 
 H                     45.6063   34.9002   32.4686 
 C                     44.3158   35.8846   31.0904 
 C                     43.2285   35.748    30.2393 
 H                     42.9939   34.7782   29.8217 
 C                     42.4246   36.8315   29.9232 
 H                     41.5753   36.7047   29.2641 
 C                     42.7028   38.0848   30.456 
 O                     41.9467   39.1839   30.227 
 H                     41.1923   39.0072   29.6414 
 C                     43.8078   38.2343   31.2905 
 H                     44.0178   39.2115   31.6904 
 C                     44.5929   37.1464   31.6006 
 H                     45.4349   37.274    32.2629 
 C                     47.2293   35.6429   30.2168 
 O                     47.3685   36.1101   29.1031 
 N                     47.9092   36.1091   31.2867 
 H                     47.8174   35.6562   32.1818 
 C                     48.938    37.126    31.156 
 H                     48.6479   37.7574   30.3143 
 C                     49.1508   37.96     32.4194 
 H                     49.4323   37.2805   33.2349 
 C                     50.3158   38.9209   32.1862 
 H                     50.1161   39.5685   31.3374 
 H                     50.4655   39.5416   33.0655 
 H                     51.2341   38.3719   31.9858 
 C                     47.8916   38.7091   32.8714 
 H                     47.1734   37.9751   33.2422 
 H                     48.158    39.3421   33.7202 
 C                     47.2342   39.5631   31.796 
 H                     46.8499   38.9473   30.9882 
 H                     46.4043   40.1204   32.2232 
 H                     47.938    40.2835   31.3891 
 H                     49.8883   36.6392   30.8914 
 H                     48.1884   37.9961   26.7136 
 C                     48.106    39.077    26.631 
 H                     47.4873   39.3118   25.7668 
 C                     47.4814   39.6464   27.9001 
 H                     48.1279   39.3836   28.7444 
 C                     47.3861   41.1669   27.8231 
 H                     46.7018   41.4592   27.0303 
 H                     47.022    41.5725   28.7632 
 H                     48.3596   41.6069   27.6154 
 C                     46.1089   39.0192   28.1269 
 H                     46.2071   37.9435   28.248 
 H                     45.6372   39.4185   29.0218 
 H                     45.4552   39.2164   27.2791 
 H                     49.0995   39.4913   26.4672 
 H                     36.2849   46.3014   32.7255 
 C                     37.339    46.524    32.531 
 H                     37.8907   46.4483   33.4657 
 C                     37.9059   45.5216   31.5289 
 H                     37.7115   44.4959   31.8537 
 H                     37.4415   45.6739   30.5517 
 C                     39.4304   45.7068   31.3479 
 O                     39.9916   46.6128   31.9724 
 O                     40.008    44.9034   30.5711 
 C                     37.4156   47.9279   31.958 
 O                     37.2012   48.1661   30.781 
 N                     37.6698   48.9281   32.8281 
 C                     37.7357   50.3043   32.3645 
 H                     36.9513   50.4792   31.6247 
 H                     38.7051   50.4896   31.8897 
 C                     37.5857   51.1317   33.6347 
 H                     36.5305   51.257    33.8844 
 H                     38.046    52.1133   33.5442 
 C                     38.2756   50.2514   34.6737 
 H                     37.9799   50.4842   35.6954 
 H                     39.3567   50.3608   34.587 
 C                     37.862    48.838    34.26 
 H                     38.6377   48.1114   34.5133 
 H                     36.9258   48.5397   34.7515 
 H                     39.7098   42.5599   23.2642 
 C                     40.793    42.627    23.19 
 H                     41.1357   43.4073   23.8645 
 C                     41.4342   41.2876   23.5576 
 H                     41.1288   40.5222   22.8401 
 H                     42.5202   41.3887   23.507 
 C                     41.0284   40.8793   24.9453 
 C                     40.1917   39.7968   25.1714 
 H                     39.8663   39.188    24.3387 
 C                     39.7465   39.4907   26.4454 
 H                     39.0825   38.6565   26.616 
 C                     40.1283   40.2847   27.5181 
 O                     39.6438   40.0124   28.7669 
 H                     39.6427   40.8552   29.2633 
 C                     41.0054   41.3422   27.307 
 H                     41.3157   41.9355   28.1536 
 C                     41.4487   41.6335   26.0347 
 H                     42.1105   42.4712   25.8773 
 H                     41.0524   42.9077   22.1701 
 H                     42.5981   46.9095   22.4047 
 C                     43.146    46.945    23.342 
 H                     43.1591   47.9603   23.7261 
 H                     42.6457   46.3069   24.0722 
 C                     44.5668   46.4472   23.181 
 O                     45.4947   46.8784   23.8392 
 N                     44.7256   45.4799   22.245 
 H                     43.9023   45.0946   21.8096 
 C                     45.975    44.783    22.003 
 H                     46.7355   45.3015   22.5885 
 C                     45.9021   43.3041   22.3931 
 H                     45.2283   42.7898   21.701 
 H                     46.8977   42.8729   22.2675 
 C                     45.4172   43.0479   23.8262 
 H                     44.3956   43.432    23.9214 
 C                     45.3979   41.5426   24.0917 
 H                     46.4133   41.1506   24.1054 
 H                     44.9338   41.3284   25.0518 
 H                     44.8414   41.0142   23.3197 
 C                     46.2969   43.7436   24.8612 
 H                     46.2304   44.8241   24.7767 
 H                     45.981    43.4646   25.8638 
 H                     47.3363   43.4462   24.7376 
 H                     46.2313   44.8681   20.9408 
 H                     51.6009   46.5687   23.56 
 C                     51.425    46.229    24.579 
 H                     51.6565   47.0439   25.2618 
 C                     49.9712   45.7918   24.763 
 H                     49.7755   44.9534   24.0828 
 C                     49.7346   45.3288   26.1978 
 H                     49.9241   46.1482   26.8882 
 H                     48.705    45.0063   26.329 
 H                     50.3931   44.5      26.4512 
 C                     49.0197   46.9348   24.421 
 H                     49.2279   47.3308   23.4286 
 H                     47.9839   46.6079   24.445 
 H                     49.1313   47.7354   25.1471 
 H                     52.1038   45.4047   24.7891 
 H                     52.926    43.1287   29.6514 
 C                     52.18     42.582    30.224 
 H                     51.9549   43.1511   31.1233 
 C                     50.9176   42.3749   29.4002 
 H                     51.1341   41.7967   28.5045 
 H                     50.1684   41.8385   29.9781 
 H                     50.4973   43.332    29.0986 
 H                     52.6054   41.6258   30.522 
 H                     45.5131   38.2188   40.5213 
 C                     46.46     38.723    40.34 
 H                     47.1755   38.3938   41.09 
 C                     46.9713   38.4073   38.939 
 H                     47.9292   38.9046   38.772 
 H                     47.1337   37.3325   38.8357 
 C                     45.9817   38.863    37.8815 
 H                     45.0212   38.3578   38.0032 
 H                     45.8308   39.9435   37.9318 
 S                     46.5829   38.4795   36.1987 
 C                     45.1816   39.1925   35.3028 
 H                     45.1234   40.252    35.5288 
 H                     45.3537   39.0577   34.2422 
 H                     44.2757   38.6745   35.6052 
 H                     46.3057   39.7937   40.4572 
 H                     49.3749   43.2513   37.4213 
 C                     50.254    42.792    36.975 
 H                     50.9391   42.5032   37.7698 
 C                     49.8501   41.5742   36.1396 
 H                     50.7456   41.1225   35.7058 
 H                     49.3756   40.8318   36.7855 
 C                     48.8967   41.9756   35.0487 
 C                     49.358    42.2928   33.7786 
 H                     50.4144   42.2119   33.5575 
 C                     48.4797   42.7099   32.7942 
 H                     48.8547   42.9514   31.8099 
 C                     47.1287   42.8203   33.0699 
 H                     46.4415   43.1521   32.3058 
 C                     46.6539   42.4943   34.3284 
 H                     45.5984   42.5608   34.5416 
 C                     47.5363   42.0769   35.3084 
 H                     47.1674   41.8254   36.293 
 H                     50.7422   43.5348   36.3473 
 H                     51.2781   47.4499   31.803 
 C                     50.929    46.54     31.316 
 H                     51.6284   45.7407   31.5509 
 C                     49.523    46.1862   31.7951 
 H                     49.223    45.2488   31.3162 
 C                     49.5039   45.9832   33.308 
 H                     49.781    46.9044   33.8187 
 H                     48.5129   45.6845   33.6425 
 H                     50.2036   45.2042   33.6023 
 C                     48.5281   47.2696   31.39 
 H                     48.5261   47.4025   30.31 
 H                     47.5241   47.0011   31.7113 
 H                     48.7906   48.2182   31.8541 
 H                     50.936    46.6982   30.2393 
 H                     52.2872   50.0007   26.986 
 C                     51.956    50.753    26.273 
 H                     52.7105   50.8388   25.4941 
 C                     50.6135   50.3544   25.6747 
 H                     50.2979   51.1016   24.9415 
 H                     50.7211   49.4015   25.1539 
 C                     49.5162   50.2317   26.7213 
 H                     49.382    51.166    27.2637 
 H                     48.5673   49.9603   26.26 
 S                     49.8775   48.949    27.9765 
 C                     50.235    49.9998   29.4154 
 H                     49.3479   50.575    29.6687 
 H                     50.4917   49.3355   30.233 
 H                     51.0693   50.659    29.1944 
 H                     51.8809   51.712    26.7843 
 H                     50.1845   51.4902   33.5939 
 C                     49.556    50.794    34.147 
 H                     49.5585   51.099    35.1904 
 C                     48.1458   50.7808   33.5723 
 H                     47.6957   51.7694   33.6872 
 H                     48.2048   50.5736   32.5005 
 C                     47.2381   49.7307   34.22 
 H                     47.7435   48.7595   34.1667 
 C                     46.9629   50.0464   35.6867 
 H                     46.4241   50.9882   35.774 
 H                     46.3563   49.2584   36.1245 
 H                     47.8834   50.1176   36.2613 
 C                     45.9235   49.6365   33.4504 
 H                     46.1059   49.3608   32.4147 
 H                     45.2677   48.8921   33.8938 
 H                     45.4012   50.5911   33.4621 
 H                     50.0035   49.8039   34.0799 
 H                     47.073    46.8585   36.8941 
 C                     46.185    46.409    37.335 
 H                     45.4472   47.1919   37.4986 
 C                     45.6191   45.3275   36.4202 
 H                     46.384    44.5552   36.2814 
 C                     44.3896   44.6856   37.0554 
 H                     43.5967   45.423    37.1741 
 H                     44.0225   43.8749   36.433 
 H                     44.6309   44.2834   38.0383 
 C                     45.2737   45.9069   35.0517 
 H                     46.1515   46.3599   34.5946 
 H                     44.9138   45.1216   34.3927 
 H                     44.5011   46.6693   35.1412 
 H                     46.4589   45.9913   38.3025 
 H                     43.2903   40.7381   37.8714 
 C                     42.309    41.172    37.693 
 H                     42.4115   42.2539   37.6914 
 C                     41.757    40.6997   36.3586 
 H                     41.7045   39.6111   36.3206 
 H                     40.7509   41.0947   36.1925 
 C                     42.6135   41.1705   35.2051 
 O                     43.4238   42.0624   35.2842 
 O                     42.3866   40.4928   34.0984 
 H                     42.9986   40.8133   33.3631 
 H                     41.647    40.881    38.5057 
 H                     38.2248   37.0495   37.918 
 C                     38.538    36.018    37.77 
 H                     37.9873   35.6104   36.9245 
 C                     40.039    35.947    37.5156 
 H                     40.5811   36.3522   38.3724 
 H                     40.3475   34.9072   37.3895 
 C                     40.4148   36.7324   36.2709 
 H                     39.9149   36.3261   35.3904 
 H                     40.1435   37.7832   36.3872 
 S                     42.2147   36.6401   35.9562 
 C                     42.2356   37.1208   34.207 
 H                     41.9772   38.1704   34.0993 
 H                     43.2448   36.9563   33.8456 
 H                     41.5453   36.4909   33.6528 
 H                     38.2755   35.4486   38.6583 
 H                     35.7898   38.556    34.4901 
 C                     36.781    38.93     34.736 
 H                     37.1816   38.3374   35.5563 
 C                     37.7042   38.8551   33.5251 
 H                     37.8363   37.8119   33.2234 
 H                     37.2534   39.3894   32.6862 
 C                     39.0697   39.4541   33.8274 
 H                     39.4556   39.0571   34.7646 
 H                     39.7867   39.2513   33.0338 
 S                     39.0166   41.2696   34.0281 
 C                     39.5949   41.7668   32.3868 
 H                     38.8807   41.4407   31.637 
 H                     39.6731   42.8488   32.3813 
 H                     40.572    41.3276   32.2052 
 H                     36.6942   39.9623   35.0673 
 H                     38.9757   44.1891   35.7691 
 C                     39.97     44.538    36.04 
 H                     40.3268   43.9342   36.8721 
 C                     40.9128   44.4167   34.8524 
 H                     40.5875   45.047    34.0274 
 H                     41.9248   44.7001   35.1332 
 H                     40.9384   43.3877   34.5055 
 H                     39.893    45.5715   36.3759 
 H                     41.5263   49.7726   37.9431 
 C                     42.544    50.103    37.743 
 H                     43.0943   50.1193   38.6822 
 C                     43.2198   49.1685   36.7413 
 H                     44.2478   49.5071   36.5914 
 H                     43.2493   48.1587   37.1582 
 C                     42.5226   49.1245   35.4203 
 C                     41.8302   48.0687   34.8936 
 H                     41.6462   47.1061   35.33 
 N                     41.354    48.3693   33.6532 
 H                     40.8508   47.7362   33.0352 
 C                     41.7409   49.6326   33.3396 
 C                     41.5262   50.3738   32.1829 
 H                     40.9845   49.9445   31.3533 
 C                     42.0403   51.6502   32.1346 
 H                     41.8961   52.2539   31.2497 
 C                     42.7582   52.184    33.2105 
 H                     43.1476   53.1899   33.1292 
 C                     42.9844   51.4545   34.3557 
 H                     43.5496   51.8764   35.1752 
 C                     42.4766   50.1571   34.4364 
 H                     42.4998   51.1153   37.3485 
 H                     50.0133   54.8804   35.3903 
 C                     48.976    55.173    35.241 
 H                     48.7455   55.0671   34.1841 
 C                     48.0561   54.3051   36.0938 
 H                     48.1586   53.2615   35.7908 
 H                     48.3772   54.3792   37.1362 
 C                     46.5786   54.7073   36.0093 
 H                     46.5074   55.7914   36.1607 
 C                     45.9735   54.3664   34.6497 
 H                     46.0121   53.2934   34.4746 
 H                     44.9314   54.6767   34.6131 
 H                     46.5038   54.8673   33.8439 
 C                     45.7832   54.0131   37.1143 
 H                     46.1556   54.295    38.0971 
 H                     44.7309   54.2834   37.0564 
 H                     45.8647   52.9326   37.0166 
 H                     48.8725   56.2218   35.5127 
 C                     43.9058   42.2593   31.4672 
 O                     43.9687   41.2508   32.1728 
 C                     43.5774   43.5593   31.9789 
 C                     43.6033   44.6853   31.2347 
 C                     44.0811   44.6941   29.8115 
 C                     44.8453   43.4115   29.4725 
 C                     44.1197   42.1775   29.984 
 C                     43.0772   45.9569   31.7918 
 C                     43.8816   47.1889   31.391 
 C                     44.1354   47.2074   29.887 
 C                     44.933    45.9477   29.5143 
 C                     44.9327   48.4386   29.4774 
 C                     45.2947   48.4624   27.9842 
 C                     46.1586   47.244    27.6783 
 C                     45.4066   45.9664   28.055 
 C                     44.3172   49.8193   29.7104 
 C                     45.1605   50.746    28.8156 
 C                     46.0237   49.8205   27.9169 
 C                     44.0804   48.4867   27.0471 
 O                     46.2546   50.3368   26.6306 
 H                     43.2683   43.6003   33.0148 
 H                     43.1797   44.7432   29.185 
 H                     45.8414   43.459    29.9231 
 H                     44.9695   43.3205   28.3935 
 H                     43.1271   42.1139   29.5291 
 H                     44.6571   41.2618   29.7344 
 H                     43.0075   45.891    32.8781 
 H                     42.0495   46.0649   31.42 
 H                     44.8389   47.1803   31.9187 
 H                     43.3432   48.0861   31.6941 
 H                     43.1696   47.1948   29.3751 
 H                     45.8245   45.9141   30.1531 
 H                     45.8824   48.4031   30.0271 
 H                     47.0903   47.3017   28.2453 
 H                     46.4169   47.2146   26.6181 
 H                     44.5416   45.8567   27.4011 
 H                     46.0735   45.1221   27.8777 
 H                     44.3562   50.1208   30.7557 
 H                     43.271    49.8195   29.4062 
 H                     45.7959   51.4029   29.4089 
 H                     44.5352   51.3834   28.1884 
 H                     47.0206   49.7103   28.3553 
 H                     43.5815   49.4534   27.0617 
 H                     44.4021   48.2643   26.0301 
 H                     43.3476   47.7392   27.331 
 H                     45.4548   50.2019   26.1097 
 O                     41.1985   44.7607   28.1609 
 H                     40.6571   43.9936   27.9513 
 H                     40.875    45.0303   29.0456 
 O                     42.5268   44.8389   25.6924 
 H                     43.4544   44.8932   25.9368 
 H                     42.026    44.92     26.5216 
 O                     39.1654   42.6838   29.4398 
 H                     38.2706   42.9079   29.181 
 H                     39.4999   43.4867   29.9266 
 
 Stoichiometry    C122H233N4O14S4(1-)
 Framework group  C1[X(C122H233N4O14S4)]
 Deg. of freedom  1125
 Full point group                 C1      NOp   1
 Largest Abelian subgroup         C1      NOp   1
 Largest concise Abelian subgroup C1      NOp   1
                         Standard orientation:                         
 ---------------------------------------------------------------------
 Center     Atomic      Atomic             Coordinates (Angstroms)
 Number     Number       Type             X           Y           Z
 ---------------------------------------------------------------------
      1          1           0       -9.508040    4.148271   -3.086593
      2          6           0       -8.772745    3.987125   -2.292916
      3          1           0       -8.953958    4.714442   -1.500119
      4          6           0       -8.934524    2.567398   -1.728487
      5          1           0       -9.945769    2.480116   -1.321772
      6          1           0       -8.836301    1.837038   -2.535941
      7          6           0       -7.927659    2.250625   -0.655200
      8          6           0       -8.144445    2.570321    0.677485
      9          1           0       -9.054881    3.078665    0.964942
     10          6           0       -7.219990    2.237145    1.654482
     11          1           0       -7.409634    2.486919    2.690557
     12          6           0       -6.047561    1.575700    1.308169
     13          8           0       -5.112936    1.182732    2.204942
     14          1           0       -5.342964    1.420755    3.118014
     15          6           0       -5.811720    1.274693   -0.031062
     16          1           0       -4.896371    0.769600   -0.287884
     17          6           0       -6.743388    1.606304   -0.989236
     18          1           0       -6.555089    1.350472   -2.020245
     19          6           0       -7.386049    4.297311   -2.852430
     20          8           0       -6.714644    5.210333   -2.412446
     21          7           0       -6.977294    3.533110   -3.888387
     22          1           0       -7.587041    2.827101   -4.268534
     23          6           0       -5.756993    3.824949   -4.620023
     24          1           0       -5.066520    4.279247   -3.907181
     25          6           0       -5.127935    2.603668   -5.290678
     26          1           0       -5.861966    2.180646   -5.989430
     27          6           0       -3.914638    3.056155   -6.101913
     28          1           0       -3.188031    3.550577   -5.463699
     29          1           0       -3.437784    2.196768   -6.565496
     30          1           0       -4.211478    3.754180   -6.882607
     31          6           0       -4.755082    1.492874   -4.301661
     32          1           0       -5.678453    1.051326   -3.921554
     33          1           0       -4.236176    0.706047   -4.852805
     34          6           0       -3.888751    1.940987   -3.132626
     35          1           0       -4.423418    2.638207   -2.494306
     36          1           0       -3.604217    1.080201   -2.532705
     37          1           0       -2.975298    2.411375   -3.485068
     38          1           0       -5.976093    4.576855   -5.392480
     39          1           0       -4.313098    7.167191   -1.827448
     40          6           0       -3.277200    6.934155   -1.593851
     41          1           0       -3.034426    7.369243   -0.626111
     42          6           0       -3.082606    5.422249   -1.558770
     43          1           0       -3.342918    5.023206   -2.545112
     44          6           0       -1.627775    5.068911   -1.266277
     45          1           0       -1.356083    5.399769   -0.266800
     46          1           0       -1.478112    3.994422   -1.329070
     47          1           0       -0.960662    5.549030   -1.979640
     48          6           0       -4.018330    4.804658   -0.523600
     49          1           0       -5.052502    5.009450   -0.788152
     50          1           0       -3.889924    3.725960   -0.471542
     51          1           0       -3.822025    5.220144    0.463219
     52          1           0       -2.638106    7.390816   -2.347864
     53          1           0        0.087793   -5.156534    6.865780
     54          6           0        0.560839   -4.599664    6.050531
     55          1           0        0.444524   -5.164210    5.127748
     56          6           0       -0.108544   -3.236552    5.894853
     57          1           0       -1.192413   -3.344895    5.800843
     58          1           0        0.107432   -2.617421    6.768817
     59          6           0        0.426804   -2.484445    4.654329
     60          8           0        1.309990   -3.020064    3.976924
     61          8           0       -0.087891   -1.363150    4.408812
     62          6           0        2.026029   -4.418957    6.405063
     63          8           0        2.412581   -3.541996    7.159751
     64          7           0        2.891695   -5.321369    5.896767
     65          6           0        4.309061   -5.233651    6.207529
     66          1           0        4.437314   -4.961708    7.257661
     67          1           0        4.776567   -4.458544    5.590963
     68          6           0        4.853015   -6.611655    5.852958
     69          1           0        4.704688   -7.304187    6.683558
     70          1           0        5.910859   -6.584921    5.600260
     71          6           0        3.974637   -7.007781    4.668919
     72          1           0        3.958687   -8.081467    4.488787
     73          1           0        4.325992   -6.505271    3.767645
     74          6           0        2.598744   -6.467054    5.061912
     75          1           0        2.022256   -6.180253    4.179174
     76          1           0        2.026807   -7.214504    5.628686
     77          1           0       -1.142252    5.471455    7.747702
     78          6           0       -0.833278    5.974529    6.834038
     79          1           0       -0.126313    5.334940    6.312129
     80          6           0       -2.047463    6.258451    5.947808
     81          1           0       -2.724695    6.947491    6.458193
     82          1           0       -1.709278    6.733608    5.024751
     83          6           0       -2.766595    4.979671    5.624291
     84          6           0       -4.025373    4.701749    6.135398
     85          1           0       -4.536411    5.443686    6.733964
     86          6           0       -4.635023    3.480017    5.910287
     87          1           0       -5.608548    3.260941    6.322772
     88          6           0       -3.975332    2.506095    5.173282
     89          8           0       -4.556533    1.281374    4.998208
     90          1           0       -3.832223    0.637037    4.868091
     91          6           0       -2.734542    2.794164    4.616836
     92          1           0       -2.244038    2.037636    4.023461
     93          6           0       -2.139823    4.017318    4.841158
     94          1           0       -1.165683    4.223079    4.424973
     95          1           0       -0.331690    6.902905    7.103859
     96          1           0        3.805899    6.346421    6.089307
     97          6           0        3.795236    5.750187    5.181354
     98          1           0        4.707841    5.166608    5.109744
     99          1           0        2.948564    5.062710    5.215800
    100          6           0        3.648273    6.612175    3.945322
    101          8           0        4.147551    6.320046    2.875022
    102          7           0        2.913945    7.737372    4.123298
    103          1           0        2.442668    7.867627    5.004652
    104          6           0        2.552898    8.647812    3.052795
    105          1           0        3.112875    8.326914    2.173328
    106          6           0        1.047993    8.646962    2.770132
    107          1           0        0.529014    9.096222    3.622387
    108          1           0        0.868019    9.282746    1.900467
    109          6           0        0.450339    7.257287    2.512928
    110          1           0        0.584721    6.648880    3.414063
    111          6           0       -1.046956    7.394247    2.236992
    112          1           0       -1.209077    7.907037    1.290603
    113          1           0       -1.518048    6.415381    2.182627
    114          1           0       -1.540601    7.966016    3.020751
    115          6           0        1.128507    6.550054    1.342882
    116          1           0        2.167748    6.325456    1.563281
    117          1           0        0.619460    5.612602    1.130996
    118          1           0        1.086197    7.169018    0.448920
    119          1           0        2.873070    9.660726    3.322418
    120          1           0        5.203820    9.206791   -2.417477
    121          6           0        4.663517    8.329047   -2.767245
    122          1           0        5.378534    7.626837   -3.190944
    123          6           0        3.900481    7.667087   -1.619152
    124          1           0        3.170076    8.387952   -1.230891
    125          6           0        3.156801    6.432005   -2.119664
    126          1           0        3.865850    5.704391   -2.509288
    127          1           0        2.603882    5.965640   -1.308442
    128          1           0        2.456972    6.695046   -2.910734
    129          6           0        4.855054    7.279595   -0.493361
    130          1           0        5.451798    8.133621   -0.177833
    131          1           0        4.315103    6.905233    0.371871
    132          1           0        5.523200    6.492814   -0.832761
    133          1           0        3.979838    8.637261   -3.555895
    134          1           0        1.127190    5.311046   -6.764765
    135          6           0        0.343086    4.634929   -6.431126
    136          1           0        0.686724    3.613523   -6.579209
    137          6           0        0.016356    4.874879   -4.964545
    138          1           0       -0.338492    5.891808   -4.811562
    139          1           0       -0.759445    4.190217   -4.629336
    140          1           0        0.898808    4.721865   -4.346871
    141          1           0       -0.536787    4.793001   -7.051548
    142          1           0       -7.056987   -6.056547   -5.759777
    143          6           0       -6.338398   -5.626697   -6.454447
    144          1           0       -6.631501   -5.897879   -7.466061
    145          6           0       -6.290506   -4.110827   -6.300364
    146          1           0       -5.578670   -3.687101   -7.012062
    147          1           0       -7.271309   -3.683549   -6.518768
    148          6           0       -5.881259   -3.718250   -4.891933
    149          1           0       -6.593419   -4.101578   -4.158117
    150          1           0       -4.883359   -4.095892   -4.658774
    151         16           0       -5.830636   -1.901838   -4.695933
    152          6           0       -5.289969   -1.887589   -2.969050
    153          1           0       -4.322796   -2.374282   -2.900416
    154          1           0       -5.199505   -0.856427   -2.650956
    155          1           0       -6.033984   -2.402390   -2.367513
    156          1           0       -5.362208   -6.061669   -6.250012
    157          1           0       -0.856926   -2.989111   -7.173862
    158          6           0       -1.033415   -2.115514   -7.797268
    159          1           0       -1.301917   -2.448656   -8.797967
    160          6           0       -2.146304   -1.251822   -7.197619
    161          1           0       -2.314139   -0.384139   -7.840341
    162          1           0       -3.073173   -1.828829   -7.159241
    163          6           0       -1.775752   -0.801314   -5.812018
    164          6           0       -1.152661    0.421004   -5.601625
    165          1           0       -0.966331    1.077983   -6.441309
    166          6           0       -0.769357    0.806243   -4.329189
    167          1           0       -0.286889    1.761949   -4.182066
    168          6           0       -0.999758   -0.029529   -3.251321
    169          1           0       -0.695667    0.265193   -2.257916
    170          6           0       -1.632192   -1.245199   -3.445504
    171          1           0       -1.830810   -1.891307   -2.604640
    172          6           0       -2.014148   -1.624803   -4.719577
    173          1           0       -2.504978   -2.575705   -4.873356
    174          1           0       -0.106377   -1.548726   -7.856009
    175          1           0        4.557681    1.660625   -5.803575
    176          6           0        3.692343    2.166405   -5.376567
    177          1           0        3.032821    2.455387   -6.191882
    178          6           0        2.968723    1.246256   -4.396135
    179          1           0        2.086045    1.772483   -4.019267
    180          6           0        2.508040   -0.030616   -5.094567
    181          1           0        3.364750   -0.590149   -5.467634
    182          1           0        1.951129   -0.664047   -4.407684
    183          1           0        1.857835    0.201600   -5.935009
    184          6           0        3.867616    0.910482   -3.209992
    185          1           0        4.181585    1.818428   -2.698989
    186          1           0        3.339242    0.275546   -2.502165
    187          1           0        4.755600    0.378606   -3.545742
    188          1           0        4.031992    3.068923   -4.872129
    189          1           0        8.058328    5.648047   -4.199114
    190          6           0        8.834014    5.942563   -3.495133
    191          1           0        9.212445    6.917525   -3.794393
    192          6           0        8.267069    6.000079   -2.082895
    193          1           0        9.044678    6.320046   -1.384011
    194          1           0        7.463892    6.737998   -2.048079
    195          6           0        7.733596    4.656808   -1.608002
    196          1           0        8.509469    3.893526   -1.631361
    197          1           0        7.349447    4.728380   -0.591059
    198         16           0        6.360698    4.034716   -2.647009
    199          6           0        7.198819    2.666906   -3.500864
    200          1           0        7.518380    1.929293   -2.768902
    201          1           0        6.473736    2.227828   -4.176974
    202          1           0        8.049215    3.045289   -4.060413
    203          1           0        9.651647    5.225061   -3.553569
    204          1           0        7.898960   -1.371978   -5.198193
    205          6           0        6.999613   -1.944306   -4.976287
    206          1           0        7.113100   -2.929689   -5.421098
    207          6           0        6.784661   -2.032257   -3.471236
    208          1           0        7.619057   -2.568971   -3.014242
    209          1           0        6.783265   -1.020733   -3.056525
    210          6           0        5.469001   -2.715864   -3.086705
    211          1           0        4.652516   -2.213999   -3.618667
    212          6           0        5.460245   -4.189835   -3.479058
    213          1           0        6.235446   -4.728035   -2.936545
    214          1           0        4.497243   -4.629420   -3.234173
    215          1           0        5.626259   -4.322074   -4.545598
    216          6           0        5.230291   -2.573373   -1.586023
    217          1           0        5.183185   -1.524347   -1.304456
    218          1           0        4.297720   -3.049426   -1.295345
    219          1           0        6.034390   -3.041900   -1.022017
    220          1           0        6.154960   -1.450004   -5.453027
    221          1           0        2.210108   -4.399065   -4.491716
    222          6           0        1.511850   -5.044293   -3.961524
    223          1           0        2.078534   -5.692902   -3.296527
    224          6           0        0.509084   -4.213518   -3.167157
    225          1           0       -0.045899   -3.577807   -3.866191
    226          6           0       -0.480763   -5.123576   -2.446613
    227          1           0        0.038150   -5.744788   -1.717666
    228          1           0       -1.231176   -4.532078   -1.930486
    229          1           0       -0.985702   -5.778892   -3.154907
    230          6           0        1.228764   -3.309939   -2.170460
    231          1           0        1.931006   -2.655742   -2.683846
    232          1           0        0.510635   -2.689846   -1.641044
    233          1           0        1.781100   -3.903406   -1.443208
    234          1           0        1.001640   -5.668599   -4.693288
    235          1           0       -4.652221   -5.309505   -2.300195
    236          6           0       -4.414063   -5.674789   -1.303754
    237          1           0       -3.351660   -5.901037   -1.270160
    238          6           0       -4.755628   -4.624608   -0.260276
    239          1           0       -5.806937   -4.341132   -0.320610
    240          1           0       -4.562300   -5.001307    0.747977
    241          6           0       -3.920492   -3.376373   -0.434248
    242          8           0       -2.903351   -3.328066   -1.083416
    243          8           0       -4.429365   -2.336809    0.194958
    244          1           0       -3.863286   -1.518480    0.028157
    245          1           0       -4.975846   -6.589021   -1.124909
    246          1           0       -9.289966   -6.555626    1.725440
    247          6           0      -10.189165   -6.036829    1.399431
    248          1           0      -10.552725   -5.428739    2.225463
    249          6           0       -9.892486   -5.166467    0.184024
    250          1           0       -9.535026   -5.787428   -0.639867
    251          1           0      -10.804455   -4.666671   -0.148804
    252          6           0       -8.841911   -4.119383    0.511537
    253          1           0       -9.187310   -3.459744    1.308930
    254          1           0       -7.909719   -4.597753    0.817297
    255         16           0       -8.491373   -3.065502   -0.942303
    256          6           0       -7.722475   -1.651244   -0.105715
    257          1           0       -6.749972   -1.928507    0.291011
    258          1           0       -7.602374   -0.870800   -0.849111
    259          1           0       -8.379956   -1.300276    0.684833
    260          1           0      -10.946251   -6.779481    1.159661
    261          1           0       -7.769914   -4.965706    5.612709
    262          6           0       -7.240852   -4.857292    4.668696
    263          1           0       -7.866692   -5.256202    3.872616
    264          6           0       -6.906205   -3.394419    4.399994
    265          1           0       -7.828822   -2.814724    4.302679
    266          1           0       -6.343940   -2.985791    5.242212
    267          6           0       -6.090517   -3.234226    3.125722
    268          1           0       -6.551638   -3.790223    2.311409
    269          1           0       -5.995044   -2.189986    2.833380
    270         16           0       -4.391016   -3.885874    3.287560
    271          6           0       -3.505700   -2.335651    3.585103
    272          1           0       -3.842401   -1.900129    4.520825
    273          1           0       -2.447724   -2.568733    3.641922
    274          1           0       -3.687646   -1.656793    2.756462
    275          1           0       -6.324143   -5.441046    4.711278
    276          1           0       -1.893607   -6.152179    2.859726
    277          6           0       -1.392335   -6.057989    1.898683
    278          1           0       -2.040349   -6.482792    1.134555
    279          6           0       -1.102134   -4.595593    1.596750
    280          1           0       -0.423132   -4.170378    2.332869
    281          1           0       -0.661764   -4.486212    0.608106
    282          1           0       -2.026063   -4.024774    1.615652
    283          1           0       -0.473171   -6.641936    1.930655
    284          1           0        3.644503   -8.373855    0.251892
    285          6           0        4.214379   -7.854369   -0.516413
    286          1           0        4.185441   -8.446448   -1.429539
    287          6           0        3.633498   -6.462837   -0.760576
    288          1           0        4.204786   -5.984862   -1.559997
    289          1           0        2.596882   -6.561415   -1.092363
    290          6           0        3.670362   -5.592523    0.453615
    291          6           0        2.598193   -5.159857    1.184914
    292          1           0        1.557933   -5.376963    1.037864
    293          7           0        2.999710   -4.353212    2.206593
    294          1           0        2.390188   -3.867178    2.860964
    295          6           0        4.351252   -4.233206    2.152785
    296          6           0        5.217848   -3.499938    2.955754
    297          1           0        4.832602   -2.896505    3.764102
    298          6           0        6.563344   -3.561173    2.669888
    299          1           0        7.265849   -3.000958    3.270672
    300          6           0        7.044184   -4.331555    1.605375
    301          1           0        8.108640   -4.348717    1.413761
    302          6           0        6.193283   -5.052887    0.798858
    303          1           0        6.578185   -5.635784   -0.026437
    304          6           0        4.823345   -5.012012    1.061953
    305          1           0        5.246384   -7.782132   -0.181626
    306          1           0       10.811492   -3.859134   -5.482839
    307          6           0       10.896792   -4.237975   -4.466424
    308          1           0       10.928308   -3.386438   -3.791684
    309          6           0        9.718261   -5.151199   -4.144210
    310          1           0        8.789154   -4.582706   -4.214872
    311          1           0        9.678050   -5.944063   -4.895837
    312          6           0        9.803604   -5.798950   -2.756749
    313          1           0       10.804539   -6.232190   -2.639719
    314          6           0        9.581375   -4.781978   -1.639944
    315          1           0        8.588236   -4.344541   -1.716118
    316          1           0        9.663192   -5.265569   -0.668840
    317          1           0       10.315613   -3.981624   -1.681890
    318          6           0        8.775124   -6.923308   -2.639922
    319          1           0        8.955974   -7.694626   -3.385849
    320          1           0        8.819982   -7.382596   -1.654634
    321          1           0        7.770574   -6.533481   -2.790193
    322          1           0       11.836093   -4.780887   -4.379967
    323          6           0       -1.951406    0.154609    0.260219
    324          8           0       -3.029515   -0.182081   -0.232955
    325          6           0       -0.860150   -0.754999    0.463829
    326          6           0        0.356590   -0.376728    0.909737
    327          6           0        0.713149    1.063233    1.140488
    328          6           0       -0.298025    2.000964    0.475526
    329          6           0       -1.728022    1.558690    0.740827
    330          6           0        1.370418   -1.401901    1.263690
    331          6           0        2.796215   -1.022575    0.878023
    332          6           0        3.128160    0.391317    1.344387
    333          6           0        2.151970    1.366747    0.667997
    334          6           0        4.553190    0.775536    0.968917
    335          6           0        4.911503    2.224145    1.335524
    336          6           0        3.977657    3.158832    0.574809
    337          6           0        2.523387    2.833955    0.920095
    338          6           0        5.708799   -0.031801    1.562414
    339          6           0        6.934741    0.871159    1.333666
    340          6           0        6.384790    2.249338    0.878142
    341          6           0        4.837119    2.525232    2.837883
    342          8           0        7.152837    3.339157    1.321814
    343          1           0       -1.065829   -1.798710    0.267167
    344          1           0        0.675851    1.218666    2.227633
    345          1           0       -0.117204    2.014582   -0.603654
    346          1           0       -0.172512    3.017089    0.849270
    347          1           0       -1.922831    1.554322    1.817054
    348          1           0       -2.450383    2.231338    0.276775
    349          1           0        1.104445   -2.362234    0.820669
    350          1           0        1.318731   -1.536440    2.352402
    351          1           0        2.901478   -1.078474   -0.208604
    352          1           0        3.491330   -1.737680    1.316374
    353          1           0        2.997966    0.435168    2.428867
    354          1           0        2.199927    1.192548   -0.414279
    355          1           0        4.627163    0.703985   -0.124138
    356          1           0        4.134399    3.041307   -0.499669
    357          1           0        4.187824    4.199491    0.828709
    358          1           0        2.345928    3.068317    1.969584
    359          1           0        1.884874    3.480087    0.316896
    360          1           0        5.826397   -1.002628    1.084145
    361          1           0        5.537829   -0.206104    2.624233
    362          1           0        7.599684    0.456262    0.576721
    363          1           0        7.522236    0.996010    2.244665
    364          1           0        6.416267    2.313393   -0.214129
    365          1           0        5.657355    2.060981    3.381306
    366          1           0        4.867817    3.603141    2.994121
    367          1           0        3.912662    2.156727    3.269085
    368          1           0        6.942110    3.491210    2.250086
    369          8           0        0.445964    1.275103    4.445336
    370          1           0       -0.371133    1.422386    4.931288
    371          1           0        0.483123    0.300027    4.356591
    372          8           0        1.231747    3.966837    4.412176
    373          1           0        1.440088    4.129831    3.488515
    374          1           0        1.059346    3.012840    4.483704
    375          8           0       -2.206658   -0.175021    5.416587
    376          1           0       -2.137825   -0.381334    6.349627
    377          1           0       -1.447285   -0.659988    4.990357
 ---------------------------------------------------------------------
 Rotational constants (GHZ):           0.0077084           0.0062479           0.0055464
 Standard basis: 6-31G(d) (6D, 7F)
 There are  2642 symmetry adapted cartesian basis functions of A   symmetry.
 There are  2642 symmetry adapted basis functions of A   symmetry.
  2642 basis functions,  5060 primitive gaussians,  2642 cartesian basis functions
   585 alpha electrons      585 beta electrons
       nuclear repulsion energy     45249.6654610491 Hartrees.
 NAtoms=  377 NActive=  377 NUniq=  377 SFac= 1.00D+00 NAtFMM=   60 NAOKFM=T Big=T
 Integral buffers will be    131072 words long.
 Raffenetti 2 integral format.
 Two-electron integral symmetry is turned on.
 Nuclear repulsion after empirical dispersion term =    45249.1994754326 Hartrees.
 One-electron integrals computed using PRISM.
 NBasis=  2642 RedAO= T EigKep=  3.30D-04  NBF=  2642
 NBsUse=  2642 1.00D-06 EigRej= -1.00D+00 NBFU=  2642
 ExpMin= 1.17D-01 ExpMax= 2.19D+04 ExpMxC= 3.30D+03 IAcc=3 IRadAn=         5 AccDes= 0.00D+00
 Harris functional with IExCor= 4639 and IRadAn=       5 diagonalized for initial guess.
 HarFok:  IExCor= 4639 AccDes= 0.00D+00 IRadAn=         5 IDoV= 1 UseB2=F ITyADJ=14
 ICtDFT=  3500011 ScaDFX=  1.000000  1.000000  1.000000  1.000000
 FoFCou: FMM=F IPFlag=           0 FMFlag=      100000 FMFlg1=        2001
         NFxFlg=           0 DoJE=T BraDBF=F KetDBF=T FulRan=T
         wScrn=  0.000000 ICntrl=       500 IOpCl=  0 I1Cent=   200000004 NGrid=           0
         NMat0=    1 NMatS0=      1 NMatT0=    0 NMatD0=    1 NMtDS0=    0 NMtDT0=    0
 Petite list used in FoFCou.
 Requested convergence on RMS density matrix=1.00D-08 within 128 cycles.
 Requested convergence on MAX density matrix=1.00D-06.
 Requested convergence on             energy=1.00D-06.
 No special actions if energy rises.
 Integral accuracy reduced to 1.0D-05 until final iterations.
 Initial convergence to 1.0D-05 achieved.  Increase integral accuracy.
 SCF Done:  E(RwB97XD) =  -7652.88174299     A.U. after   15 cycles
            NFock= 15  Conv=0.35D-08     -V/T= 2.0078
 Hyperfine terms turned off by default for NAtoms > 100.

 **********************************************************************

            Population analysis using the SCF Density.

 **********************************************************************

 Orbital symmetries:
       Occupied  (A) (A) (A) (A) (A) (A) (A) (A) (A) (A) (A) (A)
                 (A) (A) (A) (A) (A) (A) (A) (A) (A) (A) (A) (A)
                 (A) (A) (A) (A) (A) (A) (A) (A) (A) (A) (A) (A)
                 (A) (A) (A) (A) (A) (A) (A) (A) (A) (A) (A) (A)
                 (A) (A) (A) (A) (A) (A) (A) (A) (A) (A) (A) (A)
                 (A) (A) (A) (A) (A) (A) (A) (A) (A) (A) (A) (A)
                 (A) (A) (A) (A) (A) (A) (A) (A) (A) (A) (A) (A)
                 (A) (A) (A) (A) (A) (A) (A) (A) (A) (A) (A) (A)
                 (A) (A) (A) (A) (A) (A) (A) (A) (A) (A) (A) (A)
                 (A) (A) (A) (A) (A) (A) (A) (A) (A) (A) (A) (A)
                 (A) (A) (A) (A) (A) (A) (A) (A) (A) (A) (A) (A)
                 (A) (A) (A) (A) (A) (A) (A) (A) (A) (A) (A) (A)
                 (A) (A) (A) (A) (A) (A) (A) (A) (A) (A) (A) (A)
                 (A) (A) (A) (A) (A) (A) (A) (A) (A) (A) (A) (A)
                 (A) (A) (A) (A) (A) (A) (A) (A) (A) (A) (A) (A)
                 (A) (A) (A) (A) (A) (A) (A) (A) (A) (A) (A) (A)
                 (A) (A) (A) (A) (A) (A) (A) (A) (A) (A) (A) (A)
                 (A) (A) (A) (A) (A) (A) (A) (A) (A) (A) (A) (A)
                 (A) (A) (A) (A) (A) (A) (A) (A) (A) (A) (A) (A)
                 (A) (A) (A) (A) (A) (A) (A) (A) (A) (A) (A) (A)
                 (A) (A) (A) (A) (A) (A) (A) (A) (A) (A) (A) (A)
                 (A) (A) (A) (A) (A) (A) (A) (A) (A) (A) (A) (A)
                 (A) (A) (A) (A) (A) (A) (A) (A) (A) (A) (A) (A)
                 (A) (A) (A) (A) (A) (A) (A) (A) (A) (A) (A) (A)
                 (A) (A) (A) (A) (A) (A) (A) (A) (A) (A) (A) (A)
                 (A) (A) (A) (A) (A) (A) (A) (A) (A) (A) (A) (A)
                 (A) (A) (A) (A) (A) (A) (A) (A) (A) (A) (A) (A)
                 (A) (A) (A) (A) (A) (A) (A) (A) (A) (A) (A) (A)
                 (A) (A) (A) (A) (A) (A) (A) (A) (A) (A) (A) (A)
                 (A) (A) (A) (A) (A) (A) (A) (A) (A) (A) (A) (A)
                 (A) (A) (A) (A) (A) (A) (A) (A) (A) (A) (A) (A)
                 (A) (A) (A) (A) (A) (A) (A) (A) (A) (A) (A) (A)
                 (A) (A) (A) (A) (A) (A) (A) (A) (A) (A) (A) (A)
                 (A) (A) (A) (A) (A) (A) (A) (A) (A) (A) (A) (A)
                 (A) (A) (A) (A) (A) (A) (A) (A) (A) (A) (A) (A)
                 (A) (A) (A) (A) (A) (A) (A) (A) (A) (A) (A) (A)
                 (A) (A) (A) (A) (A) (A) (A) (A) (A) (A) (A) (A)
                 (A) (A) (A) (A) (A) (A) (A) (A) (A) (A) (A) (A)
                 (A) (A) (A) (A) (A) (A) (A) (A) (A) (A) (A) (A)
                 (A) (A) (A) (A) (A) (A) (A) (A) (A) (A) (A) (A)
                 (A) (A) (A) (A) (A) (A) (A) (A) (A) (A) (A) (A)
                 (A) (A) (A) (A) (A) (A) (A) (A) (A) (A) (A) (A)
                 (A) (A) (A) (A) (A) (A) (A) (A) (A) (A) (A) (A)
                 (A) (A) (A) (A) (A) (A) (A) (A) (A) (A) (A) (A)
                 (A) (A) (A) (A) (A) (A) (A) (A) (A) (A) (A) (A)
                 (A) (A) (A) (A) (A) (A) (A) (A) (A) (A) (A) (A)
                 (A) (A) (A) (A) (A) (A) (A) (A) (A) (A) (A) (A)
                 (A) (A) (A) (A) (A) (A) (A) (A) (A) (A) (A) (A)
                 (A) (A) (A) (A) (A) (A) (A) (A) (A)
       Virtual   (A) (A) (A) (A) (A) (A) (A) (A) (A) (A) (A) (A)
                 (A) (A) (A) (A) (A) (A) (A) (A) (A) (A) (A) (A)
                 (A) (A) (A) (A) (A) (A) (A) (A) (A) (A) (A) (A)
                 (A) (A) (A) (A) (A) (A) (A) (A) (A) (A) (A) (A)
                 (A) (A) (A) (A) (A) (A) (A) (A) (A) (A) (A) (A)
                 (A) (A) (A) (A) (A) (A) (A) (A) (A) (A) (A) (A)
                 (A) (A) (A) (A) (A) (A) (A) (A) (A) (A) (A) (A)
                 (A) (A) (A) (A) (A) (A) (A) (A) (A) (A) (A) (A)
                 (A) (A) (A) (A) (A) (A) (A) (A) (A) (A) (A) (A)
                 (A) (A) (A) (A) (A) (A) (A) (A) (A) (A) (A) (A)
                 (A) (A) (A) (A) (A) (A) (A) (A) (A) (A) (A) (A)
                 (A) (A) (A) (A) (A) (A) (A) (A) (A) (A) (A) (A)
                 (A) (A) (A) (A) (A) (A) (A) (A) (A) (A) (A) (A)
                 (A) (A) (A) (A) (A) (A) (A) (A) (A) (A) (A) (A)
                 (A) (A) (A) (A) (A) (A) (A) (A) (A) (A) (A) (A)
                 (A) (A) (A) (A) (A) (A) (A) (A) (A) (A) (A) (A)
                 (A) (A) (A) (A) (A) (A) (A) (A) (A) (A) (A) (A)
                 (A) (A) (A) (A) (A) (A) (A) (A) (A) (A) (A) (A)
                 (A) (A) (A) (A) (A) (A) (A) (A) (A) (A) (A) (A)
                 (A) (A) (A) (A) (A) (A) (A) (A) (A) (A) (A) (A)
                 (A) (A) (A) (A) (A) (A) (A) (A) (A) (A) (A) (A)
                 (A) (A) (A) (A) (A) (A) (A) (A) (A) (A) (A) (A)
                 (A) (A) (A) (A) (A) (A) (A) (A) (A) (A) (A) (A)
                 (A) (A) (A) (A) (A) (A) (A) (A) (A) (A) (A) (A)
                 (A) (A) (A) (A) (A) (A) (A) (A) (A) (A) (A) (A)
                 (A) (A) (A) (A) (A) (A) (A) (A) (A) (A) (A) (A)
                 (A) (A) (A) (A) (A) (A) (A) (A) (A) (A) (A) (A)
                 (A) (A) (A) (A) (A) (A) (A) (A) (A) (A) (A) (A)
                 (A) (A) (A) (A) (A) (A) (A) (A) (A) (A) (A) (A)
                 (A) (A) (A) (A) (A) (A) (A) (A) (A) (A) (A) (A)
                 (A) (A) (A) (A) (A) (A) (A) (A) (A) (A) (A) (A)
                 (A) (A) (A) (A) (A) (A) (A) (A) (A) (A) (A) (A)
                 (A) (A) (A) (A) (A) (A) (A) (A) (A) (A) (A) (A)
                 (A) (A) (A) (A) (A) (A) (A) (A) (A) (A) (A) (A)
                 (A) (A) (A) (A) (A) (A) (A) (A) (A) (A) (A) (A)
                 (A) (A) (A) (A) (A) (A) (A) (A) (A) (A) (A) (A)
                 (A) (A) (A) (A) (A) (A) (A) (A) (A) (A) (A) (A)
                 (A) (A) (A) (A) (A) (A) (A) (A) (A) (A) (A) (A)
                 (A) (A) (A) (A) (A) (A) (A) (A) (A) (A) (A) (A)
                 (A) (A) (A) (A) (A) (A) (A) (A) (A) (A) (A) (A)
                 (A) (A) (A) (A) (A) (A) (A) (A) (A) (A) (A) (A)
                 (A) (A) (A) (A) (A) (A) (A) (A) (A) (A) (A) (A)
                 (A) (A) (A) (A) (A) (A) (A) (A) (A) (A) (A) (A)
                 (A) (A) (A) (A) (A) (A) (A) (A) (A) (A) (A) (A)
                 (A) (A) (A) (A) (A) (A) (A) (A) (A) (A) (A) (A)
                 (A) (A) (A) (A) (A) (A) (A) (A) (A) (A) (A) (A)
                 (A) (A) (A) (A) (A) (A) (A) (A) (A) (A) (A) (A)
                 (A) (A) (A) (A) (A) (A) (A) (A) (A) (A) (A) (A)
                 (A) (A) (A) (A) (A) (A) (A) (A) (A) (A) (A) (A)
                 (A) (A) (A) (A) (A) (A) (A) (A) (A) (A) (A) (A)
                 (A) (A) (A) (A) (A) (A) (A) (A) (A) (A) (A) (A)
                 (A) (A) (A) (A) (A) (A) (A) (A) (A) (A) (A) (A)
                 (A) (A) (A) (A) (A) (A) (A) (A) (A) (A) (A) (A)
                 (A) (A) (A) (A) (A) (A) (A) (A) (A) (A) (A) (A)
                 (A) (A) (A) (A) (A) (A) (A) (A) (A) (A) (A) (A)
                 (A) (A) (A) (A) (A) (A) (A) (A) (A) (A) (A) (A)
                 (A) (A) (A) (A) (A) (A) (A) (A) (A) (A) (A) (A)
                 (A) (A) (A) (A) (A) (A) (A) (A) (A) (A) (A) (A)
                 (A) (A) (A) (A) (A) (A) (A) (A) (A) (A) (A) (A)
                 (A) (A) (A) (A) (A) (A) (A) (A) (A) (A) (A) (A)
                 (A) (A) (A) (A) (A) (A) (A) (A) (A) (A) (A) (A)
                 (A) (A) (A) (A) (A) (A) (A) (A) (A) (A) (A) (A)
                 (A) (A) (A) (A) (A) (A) (A) (A) (A) (A) (A) (A)
                 (A) (A) (A) (A) (A) (A) (A) (A) (A) (A) (A) (A)
                 (A) (A) (A) (A) (A) (A) (A) (A) (A) (A) (A) (A)
                 (A) (A) (A) (A) (A) (A) (A) (A) (A) (A) (A) (A)
                 (A) (A) (A) (A) (A) (A) (A) (A) (A) (A) (A) (A)
                 (A) (A) (A) (A) (A) (A) (A) (A) (A) (A) (A) (A)
                 (A) (A) (A) (A) (A) (A) (A) (A) (A) (A) (A) (A)
                 (A) (A) (A) (A) (A) (A) (A) (A) (A) (A) (A) (A)
                 (A) (A) (A) (A) (A) (A) (A) (A) (A) (A) (A) (A)
                 (A) (A) (A) (A) (A) (A) (A) (A) (A) (A) (A) (A)
                 (A) (A) (A) (A) (A) (A) (A) (A) (A) (A) (A) (A)
                 (A) (A) (A) (A) (A) (A) (A) (A) (A) (A) (A) (A)
                 (A) (A) (A) (A) (A) (A) (A) (A) (A) (A) (A) (A)
                 (A) (A) (A) (A) (A) (A) (A) (A) (A) (A) (A) (A)
                 (A) (A) (A) (A) (A) (A) (A) (A) (A) (A) (A) (A)
                 (A) (A) (A) (A) (A) (A) (A) (A) (A) (A) (A) (A)
                 (A) (A) (A) (A) (A) (A) (A) (A) (A) (A) (A) (A)
                 (A) (A) (A) (A) (A) (A) (A) (A) (A) (A) (A) (A)
                 (A) (A) (A) (A) (A) (A) (A) (A) (A) (A) (A) (A)
                 (A) (A) (A) (A) (A) (A) (A) (A) (A) (A) (A) (A)
                 (A) (A) (A) (A) (A) (A) (A) (A) (A) (A) (A) (A)
                 (A) (A) (A) (A) (A) (A) (A) (A) (A) (A) (A) (A)
                 (A) (A) (A) (A) (A) (A) (A) (A) (A) (A) (A) (A)
                 (A) (A) (A) (A) (A) (A) (A) (A) (A) (A) (A) (A)
                 (A) (A) (A) (A) (A) (A) (A) (A) (A) (A) (A) (A)
                 (A) (A) (A) (A) (A) (A) (A) (A) (A) (A) (A) (A)
                 (A) (A) (A) (A) (A) (A) (A) (A) (A) (A) (A) (A)
                 (A) (A) (A) (A) (A) (A) (A) (A) (A) (A) (A) (A)
                 (A) (A) (A) (A) (A) (A) (A) (A) (A) (A) (A) (A)
                 (A) (A) (A) (A) (A) (A) (A) (A) (A) (A) (A) (A)
                 (A) (A) (A) (A) (A) (A) (A) (A) (A) (A) (A) (A)
                 (A) (A) (A) (A) (A) (A) (A) (A) (A) (A) (A) (A)
                 (A) (A) (A) (A) (A) (A) (A) (A) (A) (A) (A) (A)
                 (A) (A) (A) (A) (A) (A) (A) (A) (A) (A) (A) (A)
                 (A) (A) (A) (A) (A) (A) (A) (A) (A) (A) (A) (A)
                 (A) (A) (A) (A) (A) (A) (A) (A) (A) (A) (A) (A)
                 (A) (A) (A) (A) (A) (A) (A) (A) (A) (A) (A) (A)
                 (A) (A) (A) (A) (A) (A) (A) (A) (A) (A) (A) (A)
                 (A) (A) (A) (A) (A) (A) (A) (A) (A) (A) (A) (A)
                 (A) (A) (A) (A) (A) (A) (A) (A) (A) (A) (A) (A)
                 (A) (A) (A) (A) (A) (A) (A) (A) (A) (A) (A) (A)
                 (A) (A) (A) (A) (A) (A) (A) (A) (A) (A) (A) (A)
                 (A) (A) (A) (A) (A) (A) (A) (A) (A) (A) (A) (A)
                 (A) (A) (A) (A) (A) (A) (A) (A) (A) (A) (A) (A)
                 (A) (A) (A) (A) (A) (A) (A) (A) (A) (A) (A) (A)
                 (A) (A) (A) (A) (A) (A) (A) (A) (A) (A) (A) (A)
                 (A) (A) (A) (A) (A) (A) (A) (A) (A) (A) (A) (A)
                 (A) (A) (A) (A) (A) (A) (A) (A) (A) (A) (A) (A)
                 (A) (A) (A) (A) (A) (A) (A) (A) (A) (A) (A) (A)
                 (A) (A) (A) (A) (A) (A) (A) (A) (A) (A) (A) (A)
                 (A) (A) (A) (A) (A) (A) (A) (A) (A) (A) (A) (A)
                 (A) (A) (A) (A) (A) (A) (A) (A) (A) (A) (A) (A)
                 (A) (A) (A) (A) (A) (A) (A) (A) (A) (A) (A) (A)
                 (A) (A) (A) (A) (A) (A) (A) (A) (A) (A) (A) (A)
                 (A) (A) (A) (A) (A) (A) (A) (A) (A) (A) (A) (A)
                 (A) (A) (A) (A) (A) (A) (A) (A) (A) (A) (A) (A)
                 (A) (A) (A) (A) (A) (A) (A) (A) (A) (A) (A) (A)
                 (A) (A) (A) (A) (A) (A) (A) (A) (A) (A) (A) (A)
                 (A) (A) (A) (A) (A) (A) (A) (A) (A) (A) (A) (A)
                 (A) (A) (A) (A) (A) (A) (A) (A) (A) (A) (A) (A)
                 (A) (A) (A) (A) (A) (A) (A) (A) (A) (A) (A) (A)
                 (A) (A) (A) (A) (A) (A) (A) (A) (A) (A) (A) (A)
                 (A) (A) (A) (A) (A) (A) (A) (A) (A) (A) (A) (A)
                 (A) (A) (A) (A) (A) (A) (A) (A) (A) (A) (A) (A)
                 (A) (A) (A) (A) (A) (A) (A) (A) (A) (A) (A) (A)
                 (A) (A) (A) (A) (A) (A) (A) (A) (A) (A) (A) (A)
                 (A) (A) (A) (A) (A) (A) (A) (A) (A) (A) (A) (A)
                 (A) (A) (A) (A) (A) (A) (A) (A) (A) (A) (A) (A)
                 (A) (A) (A) (A) (A) (A) (A) (A) (A) (A) (A) (A)
                 (A) (A) (A) (A) (A) (A) (A) (A) (A) (A) (A) (A)
                 (A) (A) (A) (A) (A) (A) (A) (A) (A) (A) (A) (A)
                 (A) (A) (A) (A) (A) (A) (A) (A) (A) (A) (A) (A)
                 (A) (A) (A) (A) (A) (A) (A) (A) (A) (A) (A) (A)
                 (A) (A) (A) (A) (A) (A) (A) (A) (A) (A) (A) (A)
                 (A) (A) (A) (A) (A) (A) (A) (A) (A) (A) (A) (A)
                 (A) (A) (A) (A) (A) (A) (A) (A) (A) (A) (A) (A)
                 (A) (A) (A) (A) (A) (A) (A) (A) (A) (A) (A) (A)
                 (A) (A) (A) (A) (A) (A) (A) (A) (A) (A) (A) (A)
                 (A) (A) (A) (A) (A) (A) (A) (A) (A) (A) (A) (A)
                 (A) (A) (A) (A) (A) (A) (A) (A) (A) (A) (A) (A)
                 (A) (A) (A) (A) (A) (A) (A) (A) (A) (A) (A) (A)
                 (A) (A) (A) (A) (A) (A) (A) (A) (A) (A) (A) (A)
                 (A) (A) (A) (A) (A) (A) (A) (A) (A) (A) (A) (A)
                 (A) (A) (A) (A) (A) (A) (A) (A) (A) (A) (A) (A)
                 (A) (A) (A) (A) (A) (A) (A) (A) (A) (A) (A) (A)
                 (A) (A) (A) (A) (A) (A) (A) (A) (A) (A) (A) (A)
                 (A) (A) (A) (A) (A) (A) (A) (A) (A) (A) (A) (A)
                 (A) (A) (A) (A) (A) (A) (A) (A) (A) (A) (A) (A)
                 (A) (A) (A) (A) (A) (A) (A) (A) (A) (A) (A) (A)
                 (A) (A) (A) (A) (A) (A) (A) (A) (A) (A) (A) (A)
                 (A) (A) (A) (A) (A) (A) (A) (A) (A) (A) (A) (A)
                 (A) (A) (A) (A) (A) (A) (A) (A) (A) (A) (A) (A)
                 (A) (A) (A) (A) (A) (A) (A) (A) (A) (A) (A) (A)
                 (A) (A) (A) (A) (A) (A) (A) (A) (A) (A) (A) (A)
                 (A) (A) (A) (A) (A) (A) (A) (A) (A) (A) (A) (A)
                 (A) (A) (A) (A) (A) (A) (A) (A) (A) (A) (A) (A)
                 (A) (A) (A) (A) (A) (A) (A) (A) (A) (A) (A) (A)
                 (A) (A) (A) (A) (A) (A) (A) (A) (A) (A) (A) (A)
                 (A) (A) (A) (A) (A) (A) (A) (A) (A) (A) (A) (A)
                 (A) (A) (A) (A) (A) (A) (A) (A) (A) (A) (A) (A)
                 (A) (A) (A) (A) (A) (A) (A) (A) (A) (A) (A) (A)
                 (A) (A) (A) (A) (A) (A) (A) (A) (A) (A) (A) (A)
                 (A) (A) (A) (A) (A) (A) (A) (A) (A) (A) (A) (A)
                 (A) (A) (A) (A) (A) (A) (A) (A) (A) (A) (A) (A)
                 (A) (A) (A) (A) (A) (A) (A) (A) (A) (A) (A) (A)
                 (A) (A) (A) (A) (A) (A) (A) (A) (A) (A) (A) (A)
                 (A) (A) (A) (A) (A) (A) (A) (A) (A) (A) (A) (A)
                 (A) (A) (A) (A) (A) (A) (A) (A) (A) (A) (A) (A)
                 (A) (A) (A) (A) (A) (A) (A) (A) (A) (A) (A) (A)
                 (A) (A) (A) (A) (A)
 The electronic state is 1-A.
 Alpha  occ. eigenvalues --  -88.96894 -88.96825 -88.96136 -88.95563 -19.22327
 Alpha  occ. eigenvalues --  -19.22133 -19.21696 -19.19586 -19.19521 -19.19047
 Alpha  occ. eigenvalues --  -19.19017 -19.18446 -19.17935 -19.17367 -19.16641
 Alpha  occ. eigenvalues --  -19.14610 -19.14210 -19.14102 -14.41745 -14.41294
 Alpha  occ. eigenvalues --  -14.40163 -14.39305 -10.35054 -10.33954 -10.33202
 Alpha  occ. eigenvalues --  -10.31707 -10.31294 -10.30834 -10.28454 -10.28443
 Alpha  occ. eigenvalues --  -10.27272 -10.26662 -10.26243 -10.26219 -10.26009
 Alpha  occ. eigenvalues --  -10.25885 -10.25830 -10.25589 -10.25257 -10.25148
 Alpha  occ. eigenvalues --  -10.24918 -10.24911 -10.24839 -10.24701 -10.24690
 Alpha  occ. eigenvalues --  -10.24605 -10.24432 -10.24377 -10.24175 -10.24094
 Alpha  occ. eigenvalues --  -10.23975 -10.23904 -10.23849 -10.23784 -10.23751
 Alpha  occ. eigenvalues --  -10.23610 -10.23604 -10.23500 -10.23475 -10.23461
 Alpha  occ. eigenvalues --  -10.23453 -10.23311 -10.23273 -10.23159 -10.23145
 Alpha  occ. eigenvalues --  -10.23053 -10.23021 -10.22996 -10.22995 -10.22993
 Alpha  occ. eigenvalues --  -10.22965 -10.22931 -10.22871 -10.22859 -10.22829
 Alpha  occ. eigenvalues --  -10.22795 -10.22769 -10.22758 -10.22725 -10.22719
 Alpha  occ. eigenvalues --  -10.22718 -10.22712 -10.22710 -10.22689 -10.22687
 Alpha  occ. eigenvalues --  -10.22619 -10.22571 -10.22479 -10.22471 -10.22456
 Alpha  occ. eigenvalues --  -10.22442 -10.22426 -10.22421 -10.22398 -10.22338
 Alpha  occ. eigenvalues --  -10.22322 -10.22291 -10.22276 -10.22267 -10.22196
 Alpha  occ. eigenvalues --  -10.22186 -10.22102 -10.22097 -10.22001 -10.21952
 Alpha  occ. eigenvalues --  -10.21922 -10.21896 -10.21874 -10.21862 -10.21796
 Alpha  occ. eigenvalues --  -10.21718 -10.21668 -10.21661 -10.21651 -10.21623
 Alpha  occ. eigenvalues --  -10.21618 -10.21601 -10.21512 -10.21446 -10.21376
 Alpha  occ. eigenvalues --  -10.21301 -10.21287 -10.21269 -10.21245 -10.21136
 Alpha  occ. eigenvalues --  -10.21109 -10.21077 -10.21064 -10.20889 -10.20868
 Alpha  occ. eigenvalues --  -10.20756 -10.20736 -10.20609 -10.20561 -10.20456
 Alpha  occ. eigenvalues --  -10.20384 -10.20336 -10.20217 -10.20123 -10.19961
 Alpha  occ. eigenvalues --  -10.19859 -10.19808 -10.19541 -10.18774  -7.98714
 Alpha  occ. eigenvalues --   -7.98691  -7.98008  -7.97445  -5.93754  -5.93745
 Alpha  occ. eigenvalues --   -5.93378  -5.93360  -5.93045  -5.92703  -5.92689
 Alpha  occ. eigenvalues --   -5.92681  -5.92489  -5.92107  -5.91987  -5.91437
 Alpha  occ. eigenvalues --   -1.12667  -1.08545  -1.07870  -1.07766  -1.07386
 Alpha  occ. eigenvalues --   -1.07257  -1.06536  -1.05331  -1.05164  -1.03220
 Alpha  occ. eigenvalues --   -1.03192  -1.02643  -1.01832  -1.00447  -0.96931
 Alpha  occ. eigenvalues --   -0.96700  -0.96618  -0.96052  -0.90151  -0.89263
 Alpha  occ. eigenvalues --   -0.89053  -0.88901  -0.87943  -0.86956  -0.86327
 Alpha  occ. eigenvalues --   -0.86115  -0.85513  -0.85447  -0.85352  -0.85029
 Alpha  occ. eigenvalues --   -0.84876  -0.84838  -0.83943  -0.83592  -0.83259
 Alpha  occ. eigenvalues --   -0.83132  -0.82932  -0.82650  -0.82641  -0.82461
 Alpha  occ. eigenvalues --   -0.82330  -0.81956  -0.81690  -0.81095  -0.80635
 Alpha  occ. eigenvalues --   -0.80201  -0.80033  -0.79781  -0.79750  -0.79481
 Alpha  occ. eigenvalues --   -0.79289  -0.79120  -0.78482  -0.77965  -0.77774
 Alpha  occ. eigenvalues --   -0.77717  -0.77677  -0.77397  -0.77094  -0.76789
 Alpha  occ. eigenvalues --   -0.76744  -0.76533  -0.75855  -0.75835  -0.75442
 Alpha  occ. eigenvalues --   -0.75264  -0.74892  -0.74520  -0.73781  -0.73412
 Alpha  occ. eigenvalues --   -0.73255  -0.73128  -0.72987  -0.72604  -0.72266
 Alpha  occ. eigenvalues --   -0.71967  -0.71859  -0.71712  -0.71335  -0.71313
 Alpha  occ. eigenvalues --   -0.71163  -0.70748  -0.70466  -0.70425  -0.70113
 Alpha  occ. eigenvalues --   -0.69933  -0.69892  -0.69486  -0.69143  -0.69081
 Alpha  occ. eigenvalues --   -0.67972  -0.67417  -0.67109  -0.66483  -0.66381
 Alpha  occ. eigenvalues --   -0.65981  -0.65907  -0.65759  -0.65664  -0.65496
 Alpha  occ. eigenvalues --   -0.65353  -0.65086  -0.64983  -0.64583  -0.64538
 Alpha  occ. eigenvalues --   -0.64513  -0.64262  -0.64125  -0.64005  -0.63214
 Alpha  occ. eigenvalues --   -0.62905  -0.62021  -0.61992  -0.61860  -0.61772
 Alpha  occ. eigenvalues --   -0.61660  -0.61161  -0.60962  -0.60696  -0.60306
 Alpha  occ. eigenvalues --   -0.60294  -0.60133  -0.60123  -0.60055  -0.59861
 Alpha  occ. eigenvalues --   -0.59512  -0.59307  -0.58834  -0.58509  -0.58382
 Alpha  occ. eigenvalues --   -0.58338  -0.58223  -0.57551  -0.57450  -0.57214
 Alpha  occ. eigenvalues --   -0.57208  -0.56679  -0.56513  -0.56167  -0.55908
 Alpha  occ. eigenvalues --   -0.55629  -0.55066  -0.54427  -0.53668  -0.53268
 Alpha  occ. eigenvalues --   -0.52965  -0.52729  -0.52459  -0.52321  -0.51923
 Alpha  occ. eigenvalues --   -0.51712  -0.51527  -0.51332  -0.51074  -0.51065
 Alpha  occ. eigenvalues --   -0.50973  -0.50916  -0.50719  -0.50584  -0.50387
 Alpha  occ. eigenvalues --   -0.50189  -0.49950  -0.49910  -0.49761  -0.49738
 Alpha  occ. eigenvalues --   -0.49562  -0.49429  -0.49352  -0.49200  -0.49041
 Alpha  occ. eigenvalues --   -0.49002  -0.48929  -0.48877  -0.48827  -0.48784
 Alpha  occ. eigenvalues --   -0.48695  -0.48480  -0.48427  -0.48423  -0.48373
 Alpha  occ. eigenvalues --   -0.48282  -0.47919  -0.47724  -0.47679  -0.47601
 Alpha  occ. eigenvalues --   -0.47465  -0.47410  -0.47204  -0.47088  -0.46973
 Alpha  occ. eigenvalues --   -0.46903  -0.46881  -0.46820  -0.46754  -0.46669
 Alpha  occ. eigenvalues --   -0.46650  -0.46355  -0.46170  -0.46062  -0.45918
 Alpha  occ. eigenvalues --   -0.45851  -0.45730  -0.45665  -0.45610  -0.45549
 Alpha  occ. eigenvalues --   -0.45495  -0.45404  -0.45346  -0.45307  -0.45175
 Alpha  occ. eigenvalues --   -0.45141  -0.45073  -0.45006  -0.44967  -0.44882
 Alpha  occ. eigenvalues --   -0.44764  -0.44704  -0.44702  -0.44697  -0.44655
 Alpha  occ. eigenvalues --   -0.44648  -0.44592  -0.44313  -0.44285  -0.44244
 Alpha  occ. eigenvalues --   -0.44173  -0.44090  -0.44048  -0.44033  -0.43895
 Alpha  occ. eigenvalues --   -0.43840  -0.43793  -0.43691  -0.43546  -0.43524
 Alpha  occ. eigenvalues --   -0.43456  -0.43393  -0.43268  -0.43244  -0.43198
 Alpha  occ. eigenvalues --   -0.43149  -0.43115  -0.42947  -0.42896  -0.42865
 Alpha  occ. eigenvalues --   -0.42800  -0.42701  -0.42646  -0.42643  -0.42576
 Alpha  occ. eigenvalues --   -0.42424  -0.42394  -0.42357  -0.42208  -0.42058
 Alpha  occ. eigenvalues --   -0.41932  -0.41836  -0.41740  -0.41640  -0.41620
 Alpha  occ. eigenvalues --   -0.41586  -0.41500  -0.41389  -0.41346  -0.41274
 Alpha  occ. eigenvalues --   -0.40975  -0.40933  -0.40840  -0.40769  -0.40658
 Alpha  occ. eigenvalues --   -0.40651  -0.40583  -0.40504  -0.40301  -0.40233
 Alpha  occ. eigenvalues --   -0.40191  -0.40112  -0.40060  -0.39842  -0.39775
 Alpha  occ. eigenvalues --   -0.39654  -0.39610  -0.39506  -0.39439  -0.39385
 Alpha  occ. eigenvalues --   -0.39312  -0.39278  -0.39197  -0.39109  -0.39033
 Alpha  occ. eigenvalues --   -0.39004  -0.38964  -0.38916  -0.38874  -0.38748
 Alpha  occ. eigenvalues --   -0.38664  -0.38651  -0.38641  -0.38595  -0.38463
 Alpha  occ. eigenvalues --   -0.38333  -0.38327  -0.38258  -0.38227  -0.38047
 Alpha  occ. eigenvalues --   -0.37849  -0.37795  -0.37721  -0.37649  -0.37607
 Alpha  occ. eigenvalues --   -0.37526  -0.37482  -0.37354  -0.37304  -0.37203
 Alpha  occ. eigenvalues --   -0.37153  -0.37096  -0.37025  -0.36991  -0.36973
 Alpha  occ. eigenvalues --   -0.36895  -0.36857  -0.36776  -0.36757  -0.36710
 Alpha  occ. eigenvalues --   -0.36655  -0.36601  -0.36554  -0.36488  -0.36437
 Alpha  occ. eigenvalues --   -0.36357  -0.36208  -0.36140  -0.36023  -0.35967
 Alpha  occ. eigenvalues --   -0.35771  -0.35706  -0.35523  -0.35479  -0.35448
 Alpha  occ. eigenvalues --   -0.35306  -0.35180  -0.35148  -0.35041  -0.35028
 Alpha  occ. eigenvalues --   -0.34944  -0.34894  -0.34805  -0.34744  -0.34738
 Alpha  occ. eigenvalues --   -0.34682  -0.34630  -0.34612  -0.34533  -0.34497
 Alpha  occ. eigenvalues --   -0.34468  -0.34330  -0.34250  -0.34216  -0.34134
 Alpha  occ. eigenvalues --   -0.34069  -0.34058  -0.34003  -0.33966  -0.33818
 Alpha  occ. eigenvalues --   -0.33726  -0.33709  -0.33584  -0.33556  -0.33511
 Alpha  occ. eigenvalues --   -0.33489  -0.33440  -0.33395  -0.33303  -0.33152
 Alpha  occ. eigenvalues --   -0.33131  -0.33082  -0.32957  -0.32887  -0.32650
 Alpha  occ. eigenvalues --   -0.32533  -0.32384  -0.32343  -0.32273  -0.32262
 Alpha  occ. eigenvalues --   -0.32120  -0.32017  -0.31930  -0.31852  -0.31640
 Alpha  occ. eigenvalues --   -0.31419  -0.31339  -0.31332  -0.31123  -0.30967
 Alpha  occ. eigenvalues --   -0.30400  -0.30293  -0.28963  -0.28066  -0.27842
 Alpha  occ. eigenvalues --   -0.27692  -0.27333  -0.27106  -0.26891  -0.26504
 Alpha  occ. eigenvalues --   -0.26251  -0.26124  -0.25962  -0.25808  -0.25516
 Alpha  occ. eigenvalues --   -0.25457  -0.25334  -0.25116  -0.24493  -0.24456
 Alpha  occ. eigenvalues --   -0.24003  -0.23620  -0.23254  -0.23113  -0.22547
 Alpha  occ. eigenvalues --   -0.22171  -0.22125  -0.21862  -0.21575  -0.19507
 Alpha virt. eigenvalues --    0.08744   0.12928   0.13708   0.13815   0.13966
 Alpha virt. eigenvalues --    0.14059   0.15125   0.15285   0.16193   0.16689
 Alpha virt. eigenvalues --    0.16787   0.16865   0.16942   0.16993   0.17205
 Alpha virt. eigenvalues --    0.17334   0.17475   0.17785   0.18161   0.18742
 Alpha virt. eigenvalues --    0.18885   0.19047   0.19566   0.19784   0.19821
 Alpha virt. eigenvalues --    0.19913   0.20201   0.20424   0.20558   0.20651
 Alpha virt. eigenvalues --    0.20855   0.20943   0.21238   0.21384   0.21719
 Alpha virt. eigenvalues --    0.21812   0.21836   0.22063   0.22262   0.22409
 Alpha virt. eigenvalues --    0.22575   0.22651   0.22728   0.22842   0.22865
 Alpha virt. eigenvalues --    0.22970   0.23154   0.23393   0.23545   0.23654
 Alpha virt. eigenvalues --    0.23723   0.23858   0.23930   0.24015   0.24055
 Alpha virt. eigenvalues --    0.24154   0.24270   0.24391   0.24649   0.24750
 Alpha virt. eigenvalues --    0.24781   0.24971   0.25054   0.25112   0.25238
 Alpha virt. eigenvalues --    0.25320   0.25409   0.25442   0.25568   0.25662
 Alpha virt. eigenvalues --    0.25813   0.25880   0.25920   0.25998   0.26055
 Alpha virt. eigenvalues --    0.26183   0.26345   0.26433   0.26519   0.26617
 Alpha virt. eigenvalues --    0.26759   0.26847   0.26919   0.27046   0.27194
 Alpha virt. eigenvalues --    0.27301   0.27371   0.27480   0.27591   0.27678
 Alpha virt. eigenvalues --    0.27814   0.27822   0.27911   0.28046   0.28130
 Alpha virt. eigenvalues --    0.28217   0.28253   0.28386   0.28478   0.28532
 Alpha virt. eigenvalues --    0.28670   0.28758   0.28875   0.28906   0.28977
 Alpha virt. eigenvalues --    0.29011   0.29060   0.29143   0.29197   0.29226
 Alpha virt. eigenvalues --    0.29299   0.29376   0.29411   0.29506   0.29569
 Alpha virt. eigenvalues --    0.29609   0.29688   0.29770   0.29800   0.29957
 Alpha virt. eigenvalues --    0.29991   0.30078   0.30120   0.30151   0.30188
 Alpha virt. eigenvalues --    0.30240   0.30311   0.30346   0.30445   0.30450
 Alpha virt. eigenvalues --    0.30552   0.30572   0.30639   0.30719   0.30787
 Alpha virt. eigenvalues --    0.30829   0.30916   0.30985   0.30996   0.31038
 Alpha virt. eigenvalues --    0.31258   0.31266   0.31317   0.31380   0.31441
 Alpha virt. eigenvalues --    0.31559   0.31583   0.31669   0.31698   0.31841
 Alpha virt. eigenvalues --    0.31862   0.31986   0.32077   0.32179   0.32200
 Alpha virt. eigenvalues --    0.32243   0.32271   0.32310   0.32388   0.32431
 Alpha virt. eigenvalues --    0.32471   0.32600   0.32624   0.32683   0.32827
 Alpha virt. eigenvalues --    0.32887   0.32974   0.32989   0.33033   0.33098
[...]
  226 Atom       -0.047958     -0.025837      0.073795
  227 Atom       -0.305637      0.148941      0.156696
  228 Atom       -0.287632      0.141075      0.146557
  229 Atom       -0.306221      0.149467      0.156754
  230 Atom       -0.026391      0.003311      0.023080
  231 Atom       -0.305508      0.149624      0.155884
  232 Atom       -0.305391      0.150104      0.155287
  233 Atom       -0.299099      0.146673      0.152426
  234 Atom       -0.305481      0.150630      0.154851
  235 Atom       -0.305302      0.147498      0.157804
  236 Atom       -0.059469      0.014045      0.045424
  237 Atom       -0.303497      0.146765      0.156732
  238 Atom       -0.077130      0.016388      0.060742
  239 Atom       -0.291610      0.141135      0.150475
  240 Atom       -0.283498      0.139664      0.143834
  241 Atom       -0.411332      0.045667      0.365665
  242 Atom       -0.769848     -0.704073      1.473922
  243 Atom       -1.241510      0.445151      0.796359
  244 Atom       -0.268516      0.121341      0.147174
  245 Atom       -0.306546      0.149958      0.156587
  246 Atom       -0.303620      0.148678      0.154943
  247 Atom       -0.035603      0.014751      0.020851
  248 Atom       -0.303929      0.148664      0.155266
  249 Atom       -0.057981     -0.000827      0.058808
  250 Atom       -0.292982      0.142948      0.150034
  251 Atom       -0.292604      0.144005      0.148598
  252 Atom       -0.196609      0.080249      0.116360
  253 Atom       -0.293514      0.141022      0.152492
  254 Atom       -0.292250      0.142769      0.149481
  255 Atom       -2.246524     -0.518577      2.765101
  256 Atom       -0.258427      0.103965      0.154462
  257 Atom       -0.289724      0.139205      0.150520
  258 Atom       -0.305347      0.146149      0.159198
  259 Atom       -0.306439      0.147229      0.159210
  260 Atom       -0.306844      0.150915      0.155929
  261 Atom       -0.307347      0.150929      0.156417
  262 Atom       -0.038037      0.001748      0.036290
  263 Atom       -0.304905      0.149078      0.155827
  264 Atom       -0.036922     -0.005279      0.042201
  265 Atom       -0.292197      0.143353      0.148844
  266 Atom       -0.293327      0.142350      0.150977
  267 Atom       -0.211544      0.082016      0.129527
  268 Atom       -0.300085      0.146141      0.153945
  269 Atom       -0.294095      0.140943      0.153151
  270 Atom       -2.256808     -0.514789      2.771596
  271 Atom       -0.246034      0.113912      0.132122
  272 Atom       -0.304519      0.149305      0.155214
  273 Atom       -0.302782      0.145131      0.157651
  274 Atom       -0.300199      0.145510      0.154689
  275 Atom       -0.300569      0.148573      0.151996
  276 Atom       -0.304517      0.149648      0.154868
  277 Atom       -0.023332      0.003229      0.020103
  278 Atom       -0.305856      0.150706      0.155150
  279 Atom       -0.061304      0.019284      0.042020
  280 Atom       -0.295126      0.146117      0.149009
  281 Atom       -0.303404      0.147533      0.155871
  282 Atom       -0.304391      0.150038      0.154353
  283 Atom       -0.304135      0.149310      0.154825
  284 Atom       -0.304159      0.149201      0.154958
  285 Atom       -0.033854      0.012857      0.020997
  286 Atom       -0.304944      0.150073      0.154871
  287 Atom       -0.038263     -0.004910      0.043173
  288 Atom       -0.291745      0.144754      0.146991
  289 Atom       -0.292346      0.142957      0.149389
  290 Atom       -0.092938      0.022370      0.070568
  291 Atom       -0.120369     -0.095560      0.215929
  292 Atom       -0.325208      0.149633      0.175574
  293 Atom       -0.401141     -0.174682      0.575823
  294 Atom       -0.320018      0.133005      0.187014
  295 Atom       -0.147131     -0.083210      0.230341
  296 Atom       -0.206418      0.072686      0.133732
  297 Atom       -0.312977      0.147089      0.165888
  298 Atom       -0.223838      0.089295      0.134544
  299 Atom       -0.314946      0.146828      0.168118
  300 Atom       -0.203977      0.073840      0.130136
  301 Atom       -0.314306      0.146024      0.168282
  302 Atom       -0.229723      0.080118      0.149605
  303 Atom       -0.314600      0.148728      0.165872
  304 Atom       -0.192624      0.076654      0.115970
  305 Atom       -0.305600      0.148987      0.156613
  306 Atom       -0.305484      0.150547      0.154936
  307 Atom       -0.025788      0.009813      0.015975
  308 Atom       -0.306515      0.150865      0.155650
  309 Atom       -0.027854     -0.005107      0.032961
  310 Atom       -0.293211      0.143774      0.149436
  311 Atom       -0.292309      0.142251      0.150057
  312 Atom       -0.015033     -0.003400      0.018433
  313 Atom       -0.284337      0.141437      0.142899
  314 Atom       -0.025593      0.008681      0.016912
  315 Atom       -0.302886      0.148437      0.154449
  316 Atom       -0.305149      0.149530      0.155620
  317 Atom       -0.307318      0.151021      0.156297
  318 Atom       -0.020898      0.007048      0.013849
  319 Atom       -0.305488      0.149958      0.155530
  320 Atom       -0.304866      0.149552      0.155314
  321 Atom       -0.303492      0.148618      0.154874
  322 Atom       -0.305126      0.149885      0.155241
  323 Atom       -0.564300      0.187211      0.377089
  324 Atom       -0.847438     -0.801345      1.648783
  325 Atom       -0.140572      0.029244      0.111328
  326 Atom       -0.527868      0.227094      0.300775
  327 Atom       -0.060590     -0.003143      0.063732
  328 Atom       -0.038133     -0.001657      0.039790
  329 Atom       -0.036266     -0.014009      0.050275
  330 Atom       -0.092281      0.001627      0.090654
  331 Atom       -0.035889     -0.017581      0.053470
  332 Atom       -0.014687      0.005427      0.009259
  333 Atom       -0.038534      0.012080      0.026454
  334 Atom       -0.020731      0.004330      0.016400
  335 Atom       -0.050335      0.008912      0.041423
  336 Atom       -0.038008     -0.009726      0.047733
  337 Atom       -0.027344      0.000913      0.026430
  338 Atom       -0.055708      0.005713      0.049995
  339 Atom       -0.018076     -0.005626      0.023703
  340 Atom       -0.317416      0.121524      0.195892
  341 Atom       -0.028379      0.002119      0.026260
  342 Atom       -1.642982     -0.115174      1.758155
  343 Atom       -0.304029      0.139513      0.164517
  344 Atom       -0.257395      0.126674      0.130722
  345 Atom       -0.289301      0.141535      0.147766
  346 Atom       -0.296528      0.145454      0.151073
  347 Atom       -0.291717      0.141204      0.150512
  348 Atom       -0.292784      0.144141      0.148643
  349 Atom       -0.294319      0.139632      0.154686
  350 Atom       -0.260847      0.127955      0.132892
  351 Atom       -0.291265      0.142824      0.148441
  352 Atom       -0.293575      0.144661      0.148914
  353 Atom       -0.286676      0.141828      0.144847
  354 Atom       -0.280078      0.140036      0.140042
  355 Atom       -0.277378      0.135416      0.141963
  356 Atom       -0.290075      0.141430      0.148645
  357 Atom       -0.288797      0.142231      0.146566
  358 Atom       -0.303257      0.151242      0.152015
  359 Atom       -0.295664      0.146356      0.149308
  360 Atom       -0.296539      0.146278      0.150260
  361 Atom       -0.299523      0.147624      0.151899
  362 Atom       -0.300931      0.149807      0.151124
  363 Atom       -0.298789      0.147771      0.151018
  364 Atom       -0.276709      0.129813      0.146895
  365 Atom       -0.304523      0.149874      0.154648
  366 Atom       -0.291319      0.145041      0.146278
  367 Atom       -0.307719      0.150990      0.156730
  368 Atom       -0.454392      0.198028      0.256364
  369 Atom       -1.364232     -0.198542      1.562773
  370 Atom       -0.455178      0.199605      0.255573
  371 Atom       -0.356464      0.148200      0.208264
  372 Atom       -1.443613     -0.118468      1.562082
  373 Atom       -0.470406      0.208894      0.261511
  374 Atom       -0.386819      0.166557      0.220261
  375 Atom       -1.393088     -0.106607      1.499695
  376 Atom       -0.485193      0.217300      0.267893
  377 Atom       -0.290678      0.121438      0.169240
 -----------------------------------------------------
 Unable to Open any file for archive entry.
 1\1\GINC-EXP-1-45\SP\RwB97XD\6-31G(d)\C122H233N4O14S4(1-)\HKLEM\11-Jul
 -2024\0\\# wb97xd/6-31G(d) prop=efg\\19nt_xstal_distance_cutoff5_xtb_c
 onf_1\\-1,1\H,0,46.9194,33.6133,30.8206\C,0,46.309,34.451,30.471\H,0,4
 5.8767,34.1851,29.5052\C,0,45.1801,34.715,31.4791\H,0,44.5685,33.8109,
 31.5439\H,0,45.6063,34.9002,32.4686\C,0,44.3158,35.8846,31.0904\C,0,43
 .2285,35.748,30.2393\H,0,42.9939,34.7782,29.8217\C,0,42.4246,36.8315,2
 9.9232\H,0,41.5753,36.7047,29.2641\C,0,42.7028,38.0848,30.456\O,0,41.9
 467,39.1839,30.227\H,0,41.1923,39.0072,29.6414\C,0,43.8078,38.2343,31.
 2905\H,0,44.0178,39.2115,31.6904\C,0,44.5929,37.1464,31.6006\H,0,45.43
 49,37.274,32.2629\C,0,47.2293,35.6429,30.2168\O,0,47.3685,36.1101,29.1
 031\N,0,47.9092,36.1091,31.2867\H,0,47.8174,35.6562,32.1818\C,0,48.938
 ,37.126,31.156\H,0,48.6479,37.7574,30.3143\C,0,49.1508,37.96,32.4194\H
 ,0,49.4323,37.2805,33.2349\C,0,50.3158,38.9209,32.1862\H,0,50.1161,39.
 5685,31.3374\H,0,50.4655,39.5416,33.0655\H,0,51.2341,38.3719,31.9858\C
 ,0,47.8916,38.7091,32.8714\H,0,47.1734,37.9751,33.2422\H,0,48.158,39.3
 421,33.7202\C,0,47.2342,39.5631,31.796\H,0,46.8499,38.9473,30.9882\H,0
 ,46.4043,40.1204,32.2232\H,0,47.938,40.2835,31.3891\H,0,49.8883,36.639
 2,30.8914\H,0,48.1884,37.9961,26.7136\C,0,48.106,39.077,26.631\H,0,47.
 4873,39.3118,25.7668\C,0,47.4814,39.6464,27.9001\H,0,48.1279,39.3836,2
 8.7444\C,0,47.3861,41.1669,27.8231\H,0,46.7018,41.4592,27.0303\H,0,47.
 022,41.5725,28.7632\H,0,48.3596,41.6069,27.6154\C,0,46.1089,39.0192,28
 .1269\H,0,46.2071,37.9435,28.248\H,0,45.6372,39.4185,29.0218\H,0,45.45
 52,39.2164,27.2791\H,0,49.0995,39.4913,26.4672\H,0,36.2849,46.3014,32.
 7255\C,0,37.339,46.524,32.531\H,0,37.8907,46.4483,33.4657\C,0,37.9059,
 45.5216,31.5289\H,0,37.7115,44.4959,31.8537\H,0,37.4415,45.6739,30.551
 7\C,0,39.4304,45.7068,31.3479\O,0,39.9916,46.6128,31.9724\O,0,40.008,4
 4.9034,30.5711\C,0,37.4156,47.9279,31.958\O,0,37.2012,48.1661,30.781\N
 ,0,37.6698,48.9281,32.8281\C,0,37.7357,50.3043,32.3645\H,0,36.9513,50.
 4792,31.6247\H,0,38.7051,50.4896,31.8897\C,0,37.5857,51.1317,33.6347\H
 ,0,36.5305,51.257,33.8844\H,0,38.046,52.1133,33.5442\C,0,38.2756,50.25
 14,34.6737\H,0,37.9799,50.4842,35.6954\H,0,39.3567,50.3608,34.587\C,0,
 37.862,48.838,34.26\H,0,38.6377,48.1114,34.5133\H,0,36.9258,48.5397,34
 .7515\H,0,39.7098,42.5599,23.2642\C,0,40.793,42.627,23.19\H,0,41.1357,
 43.4073,23.8645\C,0,41.4342,41.2876,23.5576\H,0,41.1288,40.5222,22.840
 1\H,0,42.5202,41.3887,23.507\C,0,41.0284,40.8793,24.9453\C,0,40.1917,3
 9.7968,25.1714\H,0,39.8663,39.188,24.3387\C,0,39.7465,39.4907,26.4454\
 H,0,39.0825,38.6565,26.616\C,0,40.1283,40.2847,27.5181\O,0,39.6438,40.
 0124,28.7669\H,0,39.6427,40.8552,29.2633\C,0,41.0054,41.3422,27.307\H,
 0,41.3157,41.9355,28.1536\C,0,41.4487,41.6335,26.0347\H,0,42.1105,42.4
 712,25.8773\H,0,41.0524,42.9077,22.1701\H,0,42.5981,46.9095,22.4047\C,
 0,43.146,46.945,23.342\H,0,43.1591,47.9603,23.7261\H,0,42.6457,46.3069
 ,24.0722\C,0,44.5668,46.4472,23.181\O,0,45.4947,46.8784,23.8392\N,0,44
 .7256,45.4799,22.245\H,0,43.9023,45.0946,21.8096\C,0,45.975,44.783,22.
 003\H,0,46.7355,45.3015,22.5885\C,0,45.9021,43.3041,22.3931\H,0,45.228
 3,42.7898,21.701\H,0,46.8977,42.8729,22.2675\C,0,45.4172,43.0479,23.82
 62\H,0,44.3956,43.432,23.9214\C,0,45.3979,41.5426,24.0917\H,0,46.4133,
 41.1506,24.1054\H,0,44.9338,41.3284,25.0518\H,0,44.8414,41.0142,23.319
 7\C,0,46.2969,43.7436,24.8612\H,0,46.2304,44.8241,24.7767\H,0,45.981,4
 3.4646,25.8638\H,0,47.3363,43.4462,24.7376\H,0,46.2313,44.8681,20.9408
 \H,0,51.6009,46.5687,23.56\C,0,51.425,46.229,24.579\H,0,51.6565,47.043
 9,25.2618\C,0,49.9712,45.7918,24.763\H,0,49.7755,44.9534,24.0828\C,0,4
 9.7346,45.3288,26.1978\H,0,49.9241,46.1482,26.8882\H,0,48.705,45.0063,
 26.329\H,0,50.3931,44.5,26.4512\C,0,49.0197,46.9348,24.421\H,0,49.2279
 ,47.3308,23.4286\H,0,47.9839,46.6079,24.445\H,0,49.1313,47.7354,25.147
 1\H,0,52.1038,45.4047,24.7891\H,0,52.926,43.1287,29.6514\C,0,52.18,42.
 582,30.224\H,0,51.9549,43.1511,31.1233\C,0,50.9176,42.3749,29.4002\H,0
 ,51.1341,41.7967,28.5045\H,0,50.1684,41.8385,29.9781\H,0,50.4973,43.33
 2,29.0986\H,0,52.6054,41.6258,30.522\H,0,45.5131,38.2188,40.5213\C,0,4
 6.46,38.723,40.34\H,0,47.1755,38.3938,41.09\C,0,46.9713,38.4073,38.939
 \H,0,47.9292,38.9046,38.772\H,0,47.1337,37.3325,38.8357\C,0,45.9817,38
 .863,37.8815\H,0,45.0212,38.3578,38.0032\H,0,45.8308,39.9435,37.9318\S
 ,0,46.5829,38.4795,36.1987\C,0,45.1816,39.1925,35.3028\H,0,45.1234,40.
 252,35.5288\H,0,45.3537,39.0577,34.2422\H,0,44.2757,38.6745,35.6052\H,
 0,46.3057,39.7937,40.4572\H,0,49.3749,43.2513,37.4213\C,0,50.254,42.79
 2,36.975\H,0,50.9391,42.5032,37.7698\C,0,49.8501,41.5742,36.1396\H,0,5
 0.7456,41.1225,35.7058\H,0,49.3756,40.8318,36.7855\C,0,48.8967,41.9756
 ,35.0487\C,0,49.358,42.2928,33.7786\H,0,50.4144,42.2119,33.5575\C,0,48
 .4797,42.7099,32.7942\H,0,48.8547,42.9514,31.8099\C,0,47.1287,42.8203,
 33.0699\H,0,46.4415,43.1521,32.3058\C,0,46.6539,42.4943,34.3284\H,0,45
 .5984,42.5608,34.5416\C,0,47.5363,42.0769,35.3084\H,0,47.1674,41.8254,
 36.293\H,0,50.7422,43.5348,36.3473\H,0,51.2781,47.4499,31.803\C,0,50.9
 29,46.54,31.316\H,0,51.6284,45.7407,31.5509\C,0,49.523,46.1862,31.7951
 \H,0,49.223,45.2488,31.3162\C,0,49.5039,45.9832,33.308\H,0,49.781,46.9
 044,33.8187\H,0,48.5129,45.6845,33.6425\H,0,50.2036,45.2042,33.6023\C,
 0,48.5281,47.2696,31.39\H,0,48.5261,47.4025,30.31\H,0,47.5241,47.0011,
 31.7113\H,0,48.7906,48.2182,31.8541\H,0,50.936,46.6982,30.2393\H,0,52.
 2872,50.0007,26.986\C,0,51.956,50.753,26.273\H,0,52.7105,50.8388,25.49
 41\C,0,50.6135,50.3544,25.6747\H,0,50.2979,51.1016,24.9415\H,0,50.7211
 ,49.4015,25.1539\C,0,49.5162,50.2317,26.7213\H,0,49.382,51.166,27.2637
 \H,0,48.5673,49.9603,26.26\S,0,49.8775,48.949,27.9765\C,0,50.235,49.99
 98,29.4154\H,0,49.3479,50.575,29.6687\H,0,50.4917,49.3355,30.233\H,0,5
 1.0693,50.659,29.1944\H,0,51.8809,51.712,26.7843\H,0,50.1845,51.4902,3
 3.5939\C,0,49.556,50.794,34.147\H,0,49.5585,51.099,35.1904\C,0,48.1458
 ,50.7808,33.5723\H,0,47.6957,51.7694,33.6872\H,0,48.2048,50.5736,32.50
 05\C,0,47.2381,49.7307,34.22\H,0,47.7435,48.7595,34.1667\C,0,46.9629,5
 0.0464,35.6867\H,0,46.4241,50.9882,35.774\H,0,46.3563,49.2584,36.1245\
 H,0,47.8834,50.1176,36.2613\C,0,45.9235,49.6365,33.4504\H,0,46.1059,49
 .3608,32.4147\H,0,45.2677,48.8921,33.8938\H,0,45.4012,50.5911,33.4621\
 H,0,50.0035,49.8039,34.0799\H,0,47.073,46.8585,36.8941\C,0,46.185,46.4
 09,37.335\H,0,45.4472,47.1919,37.4986\C,0,45.6191,45.3275,36.4202\H,0,
 46.384,44.5552,36.2814\C,0,44.3896,44.6856,37.0554\H,0,43.5967,45.423,
 37.1741\H,0,44.0225,43.8749,36.433\H,0,44.6309,44.2834,38.0383\C,0,45.
 2737,45.9069,35.0517\H,0,46.1515,46.3599,34.5946\H,0,44.9138,45.1216,3
 4.3927\H,0,44.5011,46.6693,35.1412\H,0,46.4589,45.9913,38.3025\H,0,43.
 2903,40.7381,37.8714\C,0,42.309,41.172,37.693\H,0,42.4115,42.2539,37.6
 914\C,0,41.757,40.6997,36.3586\H,0,41.7045,39.6111,36.3206\H,0,40.7509
 ,41.0947,36.1925\C,0,42.6135,41.1705,35.2051\O,0,43.4238,42.0624,35.28
 42\O,0,42.3866,40.4928,34.0984\H,0,42.9986,40.8133,33.3631\H,0,41.647,
 40.881,38.5057\H,0,38.2248,37.0495,37.918\C,0,38.538,36.018,37.77\H,0,
 37.9873,35.6104,36.9245\C,0,40.039,35.947,37.5156\H,0,40.5811,36.3522,
 38.3724\H,0,40.3475,34.9072,37.3895\C,0,40.4148,36.7324,36.2709\H,0,39
 .9149,36.3261,35.3904\H,0,40.1435,37.7832,36.3872\S,0,42.2147,36.6401,
 35.9562\C,0,42.2356,37.1208,34.207\H,0,41.9772,38.1704,34.0993\H,0,43.
 2448,36.9563,33.8456\H,0,41.5453,36.4909,33.6528\H,0,38.2755,35.4486,3
 8.6583\H,0,35.7898,38.556,34.4901\C,0,36.781,38.93,34.736\H,0,37.1816,
 38.3374,35.5563\C,0,37.7042,38.8551,33.5251\H,0,37.8363,37.8119,33.223
 4\H,0,37.2534,39.3894,32.6862\C,0,39.0697,39.4541,33.8274\H,0,39.4556,
 39.0571,34.7646\H,0,39.7867,39.2513,33.0338\S,0,39.0166,41.2696,34.028
 1\C,0,39.5949,41.7668,32.3868\H,0,38.8807,41.4407,31.637\H,0,39.6731,4
 2.8488,32.3813\H,0,40.572,41.3276,32.2052\H,0,36.6942,39.9623,35.0673\
 H,0,38.9757,44.1891,35.7691\C,0,39.97,44.538,36.04\H,0,40.3268,43.9342
 ,36.8721\C,0,40.9128,44.4167,34.8524\H,0,40.5875,45.047,34.0274\H,0,41
 .9248,44.7001,35.1332\H,0,40.9384,43.3877,34.5055\H,0,39.893,45.5715,3
 6.3759\H,0,41.5263,49.7726,37.9431\C,0,42.544,50.103,37.743\H,0,43.094
 3,50.1193,38.6822\C,0,43.2198,49.1685,36.7413\H,0,44.2478,49.5071,36.5
 914\H,0,43.2493,48.1587,37.1582\C,0,42.5226,49.1245,35.4203\C,0,41.830
 2,48.0687,34.8936\H,0,41.6462,47.1061,35.33\N,0,41.354,48.3693,33.6532
 \H,0,40.8508,47.7362,33.0352\C,0,41.7409,49.6326,33.3396\C,0,41.5262,5
 0.3738,32.1829\H,0,40.9845,49.9445,31.3533\C,0,42.0403,51.6502,32.1346
 \H,0,41.8961,52.2539,31.2497\C,0,42.7582,52.184,33.2105\H,0,43.1476,53
 .1899,33.1292\C,0,42.9844,51.4545,34.3557\H,0,43.5496,51.8764,35.1752\
 C,0,42.4766,50.1571,34.4364\H,0,42.4998,51.1153,37.3485\H,0,50.0133,54
 .8804,35.3903\C,0,48.976,55.173,35.241\H,0,48.7455,55.0671,34.1841\C,0
 ,48.0561,54.3051,36.0938\H,0,48.1586,53.2615,35.7908\H,0,48.3772,54.37
 92,37.1362\C,0,46.5786,54.7073,36.0093\H,0,46.5074,55.7914,36.1607\C,0
 ,45.9735,54.3664,34.6497\H,0,46.0121,53.2934,34.4746\H,0,44.9314,54.67
 67,34.6131\H,0,46.5038,54.8673,33.8439\C,0,45.7832,54.0131,37.1143\H,0
 ,46.1556,54.295,38.0971\H,0,44.7309,54.2834,37.0564\H,0,45.8647,52.932
 6,37.0166\H,0,48.8725,56.2218,35.5127\C,0,43.9058,42.2593,31.4672\O,0,
 43.9687,41.2508,32.1728\C,0,43.5774,43.5593,31.9789\C,0,43.6033,44.685
 3,31.2347\C,0,44.0811,44.6941,29.8115\C,0,44.8453,43.4115,29.4725\C,0,
 44.1197,42.1775,29.984\C,0,43.0772,45.9569,31.7918\C,0,43.8816,47.1889
 ,31.391\C,0,44.1354,47.2074,29.887\C,0,44.933,45.9477,29.5143\C,0,44.9
 327,48.4386,29.4774\C,0,45.2947,48.4624,27.9842\C,0,46.1586,47.244,27.
 6783\C,0,45.4066,45.9664,28.055\C,0,44.3172,49.8193,29.7104\C,0,45.160
 5,50.746,28.8156\C,0,46.0237,49.8205,27.9169\C,0,44.0804,48.4867,27.04
 71\O,0,46.2546,50.3368,26.6306\H,0,43.2683,43.6003,33.0148\H,0,43.1797
 ,44.7432,29.185\H,0,45.8414,43.459,29.9231\H,0,44.9695,43.3205,28.3935
 \H,0,43.1271,42.1139,29.5291\H,0,44.6571,41.2618,29.7344\H,0,43.0075,4
 5.891,32.8781\H,0,42.0495,46.0649,31.42\H,0,44.8389,47.1803,31.9187\H,
 0,43.3432,48.0861,31.6941\H,0,43.1696,47.1948,29.3751\H,0,45.8245,45.9
 141,30.1531\H,0,45.8824,48.4031,30.0271\H,0,47.0903,47.3017,28.2453\H,
 0,46.4169,47.2146,26.6181\H,0,44.5416,45.8567,27.4011\H,0,46.0735,45.1
 221,27.8777\H,0,44.3562,50.1208,30.7557\H,0,43.271,49.8195,29.4062\H,0
 ,45.7959,51.4029,29.4089\H,0,44.5352,51.3834,28.1884\H,0,47.0206,49.71
 03,28.3553\H,0,43.5815,49.4534,27.0617\H,0,44.4021,48.2643,26.0301\H,0
 ,43.3476,47.7392,27.331\H,0,45.4548,50.2019,26.1097\O,0,41.1985,44.760
 7,28.1609\H,0,40.6571,43.9936,27.9513\H,0,40.875,45.0303,29.0456\O,0,4
 2.5268,44.8389,25.6924\H,0,43.4544,44.8932,25.9368\H,0,42.026,44.92,26
 .5216\O,0,39.1654,42.6838,29.4398\H,0,38.2706,42.9079,29.181\H,0,39.49
 99,43.4867,29.9266\\Version=ES64L-G16RevC.01\State=1-A\HF=-7652.881743
 \RMSD=3.514e-09\Dipole=1.4389074,-0.6515886,0.9843366\Quadrupole=-3.54
 90835,-15.6916137,19.2406972,14.0433154,9.7960342,-0.4203726\PG=C01 [X
 (C122H233N4O14S4)]\\@
 The archive entry for this job was punched.


 ONE OF THE BENEFITS OF A COLLEGE EDUCATION
 IS TO SHOW THE BOY ITS LITTLE AVAIL 
                                    EMERSON IN 'CULTURE'
 Job cpu time:       0 days  6 hours 29 minutes 32.4 seconds.
 Elapsed time:       0 days  0 hours 12 minutes 38.4 seconds.
 File lengths (MBytes):  RWF=   3745 Int=      0 D2E=      0 Chk=    402 Scr=      1
 Normal termination of Gaussian 16 at Thu Jul 11 12:04:02 2024.
