 Entering Gaussian System, Link 0=g16
 Initial command:
 /cm/shared/apps/spack/cpu/opt/spack/linux-centos8-zen/gcc-8.3.1/gaussian-16.C.01-po5bqktfeugvmjyga3v7eigbecnokxng/g16/l1.exe "/scratch/hklem/job_32090259/Gau-802921.inp" -scrdir="/scratch/hklem/job_32090259/"
 Entering Link 1 = /cm/shared/apps/spack/cpu/opt/spack/linux-centos8-zen/gcc-8.3.1/gaussian-16.C.01-po5bqktfeugvmjyga3v7eigbecnokxng/g16/l1.exe PID=    802922.
  
 Copyright (c) 1988-2019, Gaussian, Inc.  All Rights Reserved.
  
 This is part of the Gaussian(R) 16 program.  It is based on
 the Gaussian(R) 09 system (copyright 2009, Gaussian, Inc.),
 the Gaussian(R) 03 system (copyright 2003, Gaussian, Inc.),
 the Gaussian(R) 98 system (copyright 1998, Gaussian, Inc.),
 the Gaussian(R) 94 system (copyright 1995, Gaussian, Inc.),
 the Gaussian 92(TM) system (copyright 1992, Gaussian, Inc.),
 the Gaussian 90(TM) system (copyright 1990, Gaussian, Inc.),
 the Gaussian 88(TM) system (copyright 1988, Gaussian, Inc.),
 the Gaussian 86(TM) system (copyright 1986, Carnegie Mellon
 University), and the Gaussian 82(TM) system (copyright 1983,
 Carnegie Mellon University). Gaussian is a federally registered
 trademark of Gaussian, Inc.
  
 This software contains proprietary and confidential information,
 including trade secrets, belonging to Gaussian, Inc.
  
 This software is provided under written license and may be
 used, copied, transmitted, or stored only in accord with that
 written license.
  
 The following legend is applicable only to US Government
 contracts under FAR:
  
                    RESTRICTED RIGHTS LEGEND
  
 Use, reproduction and disclosure by the US Government is
 subject to restrictions as set forth in subparagraphs (a)
 and (c) of the Commercial Computer Software - Restricted
 Rights clause in FAR 52.227-19.
  
 Gaussian, Inc.
 340 Quinnipiac St., Bldg. 40, Wallingford CT 06492
  
  
 ---------------------------------------------------------------
 Warning -- This program may not be used in any manner that
 competes with the business of Gaussian, Inc. or will provide
 assistance to any competitor of Gaussian, Inc.  The licensee
 of this program is prohibited from giving any competitor of
 Gaussian, Inc. access to this program.  By using this program,
 the user acknowledges that Gaussian, Inc. is engaged in the
 business of creating and licensing software in the field of
 computational chemistry and represents and warrants to the
 licensee that it is not a competitor of Gaussian, Inc. and that
 it will not use this program in any manner prohibited above.
 ---------------------------------------------------------------
  

 Cite this work as:
 Gaussian 16, Revision C.01,
 M. J. Frisch, G. W. Trucks, H. B. Schlegel, G. E. Scuseria, 
 M. A. Robb, J. R. Cheeseman, G. Scalmani, V. Barone, 
 G. A. Petersson, H. Nakatsuji, X. Li, M. Caricato, A. V. Marenich, 
 J. Bloino, B. G. Janesko, R. Gomperts, B. Mennucci, H. P. Hratchian, 
 J. V. Ortiz, A. F. Izmaylov, J. L. Sonnenberg, D. Williams-Young, 
 F. Ding, F. Lipparini, F. Egidi, J. Goings, B. Peng, A. Petrone, 
 T. Henderson, D. Ranasinghe, V. G. Zakrzewski, J. Gao, N. Rega, 
 G. Zheng, W. Liang, M. Hada, M. Ehara, K. Toyota, R. Fukuda, 
 J. Hasegawa, M. Ishida, T. Nakajima, Y. Honda, O. Kitao, H. Nakai, 
 T. Vreven, K. Throssell, J. A. Montgomery, Jr., J. E. Peralta, 
 F. Ogliaro, M. J. Bearpark, J. J. Heyd, E. N. Brothers, K. N. Kudin, 
 V. N. Staroverov, T. A. Keith, R. Kobayashi, J. Normand, 
 K. Raghavachari, A. P. Rendell, J. C. Burant, S. S. Iyengar, 
 J. Tomasi, M. Cossi, J. M. Millam, M. Klene, C. Adamo, R. Cammi, 
 J. W. Ochterski, R. L. Martin, K. Morokuma, O. Farkas, 
 J. B. Foresman, and D. J. Fox, Gaussian, Inc., Wallingford CT, 2019.
 
 ******************************************
 Gaussian 16:  ES64L-G16RevC.01  3-Jul-2019
                11-Jul-2024 
 ******************************************
 %nprocshared=32
 Will use up to   32 processors via shared memory.
 %mem=64GB
 --------------------------
 # wb97xd/6-31G(d) prop=efg
 --------------------------
 1/38=1,172=1/1;
 2/12=2,17=6,18=5,40=1/2;
 3/5=1,6=6,7=1,11=2,25=1,30=1,74=-58/1,2,3;
 4//1;
 5/5=2,38=5/2;
 6/7=2,8=2,9=2,10=2,14=1,28=1/1,2;
 99/5=1,9=1/99;
 --------------------------------------
 19nt_xstal_distance_cutoff4_xtb_conf_1
 --------------------------------------
 Symbolic Z-matrix:
 Charge = -1 Multiplicity = 1
 H                     47.2011   33.8555   30.2861 
 C                     46.309    34.451    30.471 
 H                     46.4656   35.0423   31.3699 
 C                     46.0118   35.3621   29.279 
 H                     46.8692   36.0176   29.1092 
 H                     45.87     34.7515   28.3845 
 C                     44.7847   36.1964   29.5243 
 C                     44.8293   37.2643   30.4124 
 H                     45.7567   37.5048   30.9123 
 C                     43.7101   38.0312   30.6648 
 H                     43.759    38.8599   31.3554 
 C                     42.5057   37.7396   30.031 
 O                     41.3852   38.4712   30.2453 
 H                     41.5956   39.2266   30.8604 
 C                     42.4494   36.6692   29.1428 
 H                     41.5138   36.4398   28.6537 
 C                     43.5788   35.9106   28.8997 
 H                     43.5192   35.0827   28.2064 
 H                     45.4726   33.7779   30.6484 
 H                     48.5669   38.0924   26.6767 
 C                     48.106    39.077    26.631 
 H                     47.0381   38.948    26.4672 
 C                     48.3508   39.8481   27.9271 
 H                     49.4329   39.9524   28.0711 
 C                     47.7381   41.2431   27.8462 
 H                     46.6649   41.1743   27.6793 
 H                     47.9049   41.791    28.7707 
 H                     48.1806   41.8111   27.0312 
 C                     47.7732   39.0846   29.1156 
 H                     48.2434   38.1074   29.2087 
 H                     47.9374   39.6321   30.0413 
 H                     46.7021   38.9419   28.9873 
 H                     48.5222   39.6136   25.7811 
 H                     36.5631   46.4368   33.2916 
 C                     37.339    46.524    32.531 
 H                     37.8767   47.4584   32.6871 
 C                     38.3042   45.3456   32.6062 
 H                     38.7471   45.3009   33.5995 
 H                     37.7735   44.4117   32.4153 
 C                     39.4407   45.4856   31.5725 
 O                     40.3157   46.3536   31.7738 
 O                     39.4073   44.718    30.586 
 H                     36.8619   46.563    31.5525 
 H                     40.9019   41.6046   22.8317 
 C                     40.793    42.627    23.19 
 H                     39.7313   42.8392   23.2918 
 C                     41.5044   42.8016   24.5352 
 H                     42.566    42.5819   24.4103 
 H                     41.4082   43.8384   24.865 
 C                     40.9323   41.8973   25.5925 
 C                     41.5877   40.7397   25.987 
 H                     42.5273   40.471    25.5235 
 C                     41.0712   39.9252   26.98 
 H                     41.6079   39.0364   27.2869 
 C                     39.8722   40.2572   27.6011 
 O                     39.3352   39.5086   28.6002 
 H                     40.0133   38.9298   28.9932 
 C                     39.1952   41.4044   27.195 
 H                     38.2709   41.6607   27.6881 
 C                     39.7254   42.2092   26.2084 
 H                     39.2049   43.1122   25.9264 
 H                     41.2103   43.3028   22.4456 
 H                     42.5555   46.7503   22.4515 
 C                     43.146    46.945    23.342 
 H                     43.1762   48.0129   23.5407 
 H                     42.6738   46.4626   24.1999 
 C                     44.5615   46.4273   23.2064 
 O                     45.4912   46.8535   23.8684 
 N                     44.7209   45.4548   22.2794 
 H                     43.9039   45.0873   21.8178 
 C                     45.975    44.783    22.003 
 H                     46.7328   45.2685   22.6183 
 C                     45.8986   43.2846   22.2996 
 H                     45.1099   42.8472   21.6798 
 H                     46.8447   42.8262   22.0036 
 C                     45.615    42.9609   23.7709 
 H                     44.7344   43.5301   24.0882 
 C                     45.317    41.471    23.9288 
 H                     46.1805   40.8779   23.6329 
 H                     45.0859   41.2416   24.9662 
 H                     44.4701   41.1735   23.313 
 C                     46.7856   43.3555   24.664 
 H                     46.9622   44.425    24.62 
 H                     46.5703   43.0962   25.6967 
 H                     47.6927   42.8372   24.3577 
 H                     46.2332   44.9334   20.9477 
 H                     51.6185   46.5269   23.55 
 C                     51.425    46.229    24.579 
 H                     51.6339   47.0746   25.2308 
 C                     49.9744   45.7801   24.7529 
 H                     49.8085   44.8965   24.1238 
 C                     49.717    45.4044   26.2087 
 H                     49.8672   46.2739   26.8461 
 H                     48.6971   45.0533   26.3416 
 H                     50.3961   44.617    26.5308 
 C                     49.0135   46.8814   24.3142 
 H                     49.2172   47.1894   23.2901 
 H                     47.98     46.5503   24.3712 
 H                     49.115    47.747    24.9626 
 H                     52.1094   45.4234   24.838 
 H                     49.4074   43.2672   37.4657 
 C                     50.254    42.792    36.975 
 H                     51.0299   42.6085   37.7154 
 C                     49.8164   41.481    36.3171 
 H                     50.6832   41.0162   35.8397 
 H                     49.45     40.7999   37.0888 
 C                     48.7377   41.7055   35.2911 
 C                     49.066    42.0598   33.9886 
 H                     50.1072   42.1666   33.7133 
 C                     48.0786   42.2655   33.0411 
 H                     48.3505   42.5376   32.031 
 C                     46.7455   42.1207   33.3848 
 H                     45.9713   42.2778   32.648 
 C                     46.4036   41.7756   34.6819 
 H                     45.3639   41.6692   34.9519 
 C                     47.3958   41.5731   35.6256 
 H                     47.1259   41.3006   36.6369 
 H                     50.6411   43.4798   36.2263 
 H                     51.4013   45.6331   31.6894 
 C                     50.929    46.54     31.316 
 H                     51.3777   46.7927   30.3574 
 C                     49.425    46.3271   31.1576 
 H                     48.9815   47.2488   30.765 
 C                     49.1546   45.2084   30.1562 
 H                     49.6256   44.2835   30.4844 
 H                     48.0855   45.034    30.058 
 H                     49.5507   45.4729   29.1793 
 C                     48.7844   46.0091   32.5053 
 H                     48.9604   46.8141   33.2162 
 H                     47.7105   45.878    32.3986 
 H                     49.1972   45.0902   32.9174 
 H                     51.1329   47.344    32.0215 
 H                     52.3843   50.0266   26.9605 
 C                     51.956    50.753    26.273 
 H                     52.6444   50.8819   25.4406 
 C                     50.6009   50.2683   25.7753 
 H                     50.1847   50.9895   25.0669 
 H                     50.7319   49.3221   25.248 
 C                     49.5939   50.0786   26.9002 
 H                     49.4291   51.0095   27.4406 
 H                     48.6395   49.7237   26.5102 
 S                     50.1501   48.8501   28.1403 
 C                     50.5144   49.9461   29.5433 
 H                     49.6125   50.4827   29.8273 
 H                     50.8351   49.3116   30.3621 
 H                     51.3062   50.6404   29.2768 
 H                     51.8589   51.708    26.788 
 H                     50.2882   51.093    33.3985 
 C                     49.556    50.794    34.147 
 H                     49.3128   51.6672   34.7462 
 C                     48.3137   50.2224   33.4732 
 H                     47.822    51.0077   32.894 
 H                     48.6182   49.4408   32.7726 
 C                     47.3025   49.6273   34.4587 
 H                     47.8008   48.839    35.0361 
 C                     46.782    50.6831   35.4296 
 H                     46.3573   51.5196   34.879 
 H                     46.0038   50.26     36.0598 
 H                     47.5737   51.0535   36.0766 
 C                     46.1417   49.003    33.6888 
 H                     46.4999   48.2128   33.0331 
 H                     45.4092   48.578    34.3703 
 H                     45.6347   49.754    33.0866 
 H                     50.0153   50.0485   34.7939 
 H                     47.2612   46.5724   37.329 
 C                     46.185    46.409    37.335 
 H                     45.703    47.2856   36.9094 
 C                     45.8245   45.1678   36.5204 
 H                     46.3441   44.3026   36.9497 
 C                     44.3223   44.9046   36.5665 
 H                     43.7833   45.7326   36.1104 
 H                     44.0812   43.9938   36.0237 
 H                     43.9807   44.7929   37.5944 
 C                     46.2818   45.3376   35.076 
 H                     47.3562   45.5006   35.03 
 H                     46.0476   44.4487   34.4972 
 H                     45.7808   46.1891   34.6222 
 H                     45.8591   46.3041   38.3682 
 H                     43.3575   40.8856   37.748 
 C                     42.31     41.173    37.691 
 H                     42.2651   42.2417   37.4992 
 C                     41.6119   40.415    36.5742 
 H                     41.6532   39.3361   36.7361 
 H                     40.5585   40.6995   36.5129 
 C                     42.2088   40.7109   35.2127 
 O                     43.0476   41.5547   35.0059 
 O                     41.693    39.9337   34.2852 
 H                     41.9432   40.2233   33.3586 
 H                     41.8364   40.9662   38.6481 
 H                     35.7528   38.5864   34.8261 
 C                     36.781    38.93     34.736 
 H                     37.4036   38.3516   35.4154 
 C                     37.2779   38.7796   33.3016 
 H                     37.2726   37.7222   33.0211 
 H                     36.6013   39.305    32.6239 
 C                     38.6913   39.3193   33.1199 
 H                     39.3434   38.9755   33.9218 
 H                     39.1117   39.0059   32.1649 
 S                     38.7908   41.1436   33.1613 
 C                     38.4731   41.5305   31.4185 
 H                     37.4143   41.4135   31.2016 
 H                     38.7753   42.5616   31.2492 
 H                     39.0606   40.8636   30.7946 
 H                     36.8292   39.9756   35.0321 
 H                     39.0995   45.0972   35.7025 
 C                     39.969    44.538    36.041 
 H                     39.6164   43.6989   36.6387 
 C                     40.7987   44.0411   34.8669 
 H                     41.0691   44.8596   34.2046 
 H                     41.7126   43.5712   35.2196 
 H                     40.2397   43.3096   34.2874 
 H                     40.5582   45.1856   36.6898 
 H                     41.477    49.9541   37.8895 
 C                     42.545    50.103    37.743 
 H                     43.0292   50.1368   38.7173 
 C                     43.1285   48.9673   36.8983 
 H                     44.2082   49.1299   36.8098 
 H                     42.9781   48.0199   37.422 
 C                     42.543    48.8541   35.524 
 C                     41.8176   47.8038   35.0267 
 H                     41.4933   46.9176   35.5368 
 N                     41.5151   47.9946   33.7121 
 H                     40.9962   47.3581   33.097 
 C                     42.0521   49.1788   33.3198 
 C                     42.0441   49.794    32.0735 
 H                     41.5524   49.3216   31.2367 
 C                     42.6786   51.0099   31.9521 
 H                     42.6958   51.5147   30.996 
 C                     43.3029   51.6125   33.0494 
 H                     43.782    52.5736   32.9149 
 C                     43.32     51.0091   34.2862 
 H                     43.8072   51.4873   35.1237 
 C                     42.7019   49.7674   34.4382 
 H                     42.6886   51.06     37.2479 
 C                     42.3037   41.6528   31.1698 
 O                     42.1031   40.5722   31.7531 
 C                     42.7559   42.8357   31.8241 
 C                     43.0579   43.9723   31.1494 
 C                     43.1284   44.0247   29.6574 
 C                     43.1107   42.6248   29.045 
 C                     42.0279   41.7861   29.7035 
 C                     43.245    45.2538   31.8726 
 C                     44.37     46.1287   31.3219 
 C                     44.2753   46.2572   29.8037 
 C                     44.3377   44.8537   29.1782 
 C                     45.4117   47.0943   29.2302 
 C                     45.332    47.2176   27.7018 
 C                     45.4764   45.8222   27.1063 
 C                     44.3867   44.8948   27.6447 
 C                     45.5843   48.5402   29.6963 
 C                     46.4581   49.1737   28.5967 
 C                     46.531    48.1513   27.4414 
 C                     44.0571   47.8896   27.1907 
 O                     46.5341   48.8141   26.1973 
 H                     42.7913   42.8156   32.905 
 H                     42.2233   44.5517   29.3217 
 H                     44.0846   42.1442   29.1884 
 H                     42.905    42.679    27.9764 
 H                     41.0641   42.2937   29.5932 
 H                     41.9556   40.8057   29.2336 
 H                     43.388    45.0768   32.9399 
 H                     42.2891   45.7895   31.7539 
 H                     45.3353   45.6872   31.5892 
 H                     44.3134   47.1146   31.7858 
 H                     43.3175   46.7186   29.5572 
 H                     45.2561   44.367    29.535 
 H                     46.35     46.5703   29.4554 
 H                     46.4585   45.4213   27.3755 
 H                     45.4148   45.8633   26.0182 
 H                     43.416    45.2057   27.261 
 H                     44.5813   43.8907   27.2641 
 H                     46.066    48.599    30.6707 
 H                     44.6175   49.0367   29.7763 
 H                     47.4565   49.3947   28.9684 
 H                     46.03     50.1003   28.2157 
 H                     47.4593   47.5615   27.5336 
 H                     43.9667   48.899    27.5793 
 H                     44.0967   47.9486   26.1056 
 H                     43.1701   47.3293   27.462 
 H                     46.291    48.1753   25.5119 
 O                     40.7727   45.9324   28.7375 
 H                     40.9397   46.7271   29.251 
 H                     40.2217   45.3768   29.3711 
 O                     41.0996   45.8446   26.0131 
 H                     40.2112   46.1018   25.761 
 H                     41.0712   45.8089   26.99 
 
 Stoichiometry    C96H175N2O11S2(1-)
 Framework group  C1[X(C96H175N2O11S2)]
 Deg. of freedom   852
 Full point group                 C1      NOp   1
 Largest Abelian subgroup         C1      NOp   1
 Largest concise Abelian subgroup C1      NOp   1
                         Standard orientation:                         
 ---------------------------------------------------------------------
 Center     Atomic      Atomic             Coordinates (Angstroms)
 Number     Number       Type             X           Y           Z
 ---------------------------------------------------------------------
      1          1           0       -5.348856   -5.327920    7.771426
      2          6           0       -5.572833   -4.871264    6.809163
      3          1           0       -5.424420   -3.797260    6.890831
      4          6           0       -4.675669   -5.451397    5.714705
      5          1           0       -3.630715   -5.272060    5.978440
      6          1           0       -4.829665   -6.531192    5.656408
      7          6           0       -4.969938   -4.823535    4.380090
      8          6           0       -4.563851   -3.521611    4.113240
      9          1           0       -4.017662   -2.968120    4.863664
     10          6           0       -4.839372   -2.921126    2.901648
     11          1           0       -4.515896   -1.909582    2.706190
     12          6           0       -5.540641   -3.616247    1.920658
     13          8           0       -5.826071   -3.066380    0.715312
     14          1           0       -5.422272   -2.156771    0.662376
     15          6           0       -5.955675   -4.919505    2.179676
     16          1           0       -6.503653   -5.458105    1.420189
     17          6           0       -5.671793   -5.507789    3.397645
     18          1           0       -6.000341   -6.521280    3.583465
     19          1           0       -6.619600   -5.052769    6.573721
     20          1           0       -0.218046   -6.348075    5.430791
     21          6           0        0.180386   -5.897556    4.524017
     22          1           0       -0.508661   -6.104088    3.707659
     23          6           0        0.350955   -4.389545    4.700669
     24          1           0        1.039811   -4.212478    5.535343
     25          6           0        0.946870   -3.765238    3.442457
     26          1           0        0.296559   -3.944485    2.588459
     27          1           0        1.062229   -2.690641    3.563495
     28          1           0        1.925333   -4.189095    3.228891
     29          6           0       -0.989792   -3.739157    5.030031
     30          1           0       -1.395876   -4.144883    5.954778
     31          1           0       -0.876791   -2.663719    5.149624
     32          1           0       -1.703955   -3.921725    4.229582
     33          1           0        1.134762   -6.367320    4.296028
     34          1           0       -4.614748    3.540588   -6.416591
     35          6           0       -3.775849    2.924582   -6.092677
     36          1           0       -2.867894    3.525343   -6.128671
     37          6           0       -4.003006    2.403265   -4.677572
     38          1           0       -4.144349    3.242520   -3.998988
     39          1           0       -4.892702    1.772575   -4.647164
     40          6           0       -2.797221    1.576796   -4.184824
     41          8           0       -1.741752    2.183772   -3.907092
     42          8           0       -2.954319    0.339068   -4.102015
     43          1           0       -3.665446    2.095316   -6.790342
     44          1           0       -1.113725   -7.935504   -3.654891
     45          6           0       -0.627733   -7.115725   -4.181496
     46          1           0       -1.184976   -6.922030   -5.095039
     47          6           0       -0.590142   -5.862037   -3.302296
     48          1           0       -0.029048   -6.079500   -2.391940
     49          1           0       -0.075366   -5.059801   -3.835586
     50          6           0       -1.971844   -5.395536   -2.933223
     51          6           0       -2.502315   -5.629665   -1.672667
     52          1           0       -1.918554   -6.165194   -0.936249
     53          6           0       -3.763419   -5.174198   -1.328573
     54          1           0       -4.151408   -5.350481   -0.333290
     55          6           0       -4.527269   -4.470537   -2.253226
     56          8           0       -5.758826   -3.976972   -1.958890
     57          1           0       -5.882002   -3.924196   -0.993841
     58          6           0       -4.012791   -4.251651   -3.528654
     59          1           0       -4.606962   -3.696623   -4.237225
     60          6           0       -2.752224   -4.706394   -3.854805
     61          1           0       -2.354211   -4.501444   -4.837370
     62          1           0        0.380639   -7.424686   -4.451138
     63          1           0        3.554723   -5.702653   -5.260239
     64          6           0        3.707764   -4.833310   -4.627459
     65          1           0        4.373464   -4.129250   -5.119342
     66          1           0        2.752141   -4.329633   -4.470082
     67          6           0        4.291413   -5.208351   -3.282565
     68          8           0        4.901832   -4.421818   -2.580435
     69          7           0        4.092289   -6.496459   -2.919771
     70          1           0        3.513828   -7.079946   -3.503334
     71          6           0        4.525712   -7.070373   -1.661500
     72          1           0        5.087440   -6.294852   -1.140352
     73          6           0        3.346280   -7.559267   -0.819518
     74          1           0        2.799676   -8.314747   -1.392224
     75          1           0        3.740172   -8.043992    0.076441
     76          6           0        2.376828   -6.444573   -0.410185
     77          1           0        2.090597   -5.886190   -1.308185
     78          6           0        1.119126   -7.049570    0.210866
     79          1           0        1.370156   -7.601298    1.115043
     80          1           0        0.415387   -6.264195    0.475758
     81          1           0        0.629587   -7.731934   -0.481727
     82          6           0        3.025876   -5.473304    0.569108
     83          1           0        3.878430   -4.978888    0.115614
     84          1           0        2.313532   -4.706890    0.861059
     85          1           0        3.358855   -5.996797    1.463740
     86          1           0        5.199729   -7.910600   -1.868051
     87          1           0        8.622056   -4.859132    2.289939
     88          6           0        7.898556   -4.115141    2.618654
     89          1           0        8.348300   -3.128792    2.527179
     90          6           0        6.622529   -4.188190    1.780555
     91          1           0        6.164960   -5.173764    1.933238
     92          6           0        5.640171   -3.112824    2.233677
     93          1           0        6.075162   -2.127076    2.078907
     94          1           0        4.714802   -3.172631    1.666892
     95          1           0        5.403758   -3.225401    3.290256
     96          6           0        6.941689   -4.020497    0.297765
     97          1           0        7.676485   -4.755207   -0.026911
     98          1           0        6.050981   -4.136170   -0.314000
     99          1           0        7.339406   -3.027163    0.110422
    100          1           0        7.677685   -4.291501    3.669648
    101          1           0       -0.387889    5.585219    6.637092
    102          6           0        0.008468    4.923258    7.403931
    103          1           0        0.078992    5.474159    8.339570
    104          6           0       -0.897048    3.699830    7.566145
    105          1           0       -0.486233    3.054586    8.347287
    106          1           0       -1.887935    4.029840    7.886929
    107          6           0       -1.017160    2.921596    6.282948
    108          6           0       -0.064866    1.968535    5.944382
    109          1           0        0.763558    1.783212    6.615697
    110          6           0       -0.171427    1.249038    4.767099
    111          1           0        0.576059    0.508610    4.519509
    112          6           0       -1.234143    1.474690    3.909214
    113          1           0       -1.322916    0.913767    2.990288
    114          6           0       -2.186568    2.427646    4.230495
    115          1           0       -3.011720    2.608572    3.558494
    116          6           0       -2.073365    3.145442    5.408625
    117          1           0       -2.820344    3.886712    5.658368
    118          1           0        1.007837    4.616536    7.102849
    119          1           0        4.709481    1.754413    5.126956
    120          6           0        5.175779    1.882053    4.151642
    121          1           0        6.000200    1.176668    4.068794
    122          6           0        4.156006    1.638325    3.041195
    123          1           0        4.657766    1.756691    2.074456
    124          6           0        3.618917    0.212798    3.123752
    125          1           0        3.157210    0.036997    4.093760
    126          1           0        2.872773    0.040549    2.351332
    127          1           0        4.425698   -0.502594    2.987710
    128          6           0        3.016140    2.648586    3.129887
    129          1           0        3.394823    3.665964    3.052945
    130          1           0        2.299684    2.490525    2.327676
    131          1           0        2.489553    2.548518    4.077146
    132          1           0        5.573272    2.894257    4.095390
    133          1           0       10.144142   -0.158708    2.055140
    134          6           0       10.637802   -0.393327    1.114392
    135          1           0       11.478439   -1.050857    1.325067
    136          6           0        9.658645   -1.066604    0.162086
    137          1           0       10.164461   -1.321934   -0.772868
    138          1           0        9.303945   -1.994996    0.612393
    139          6           0        8.464308   -0.185761   -0.174232
    140          1           0        8.782468    0.746366   -0.638646
    141          1           0        7.780889   -0.700914   -0.849873
    142         16           0        7.494504    0.278104    1.309253
    143          6           0        7.918244    2.040625    1.436939
    144          1           0        7.609604    2.553892    0.529570
    145          1           0        7.368719    2.434845    2.284574
    146          1           0        8.986314    2.155407    1.598410
    147          1           0       11.024385    0.528788    0.682031
    148          1           0        7.053233    5.954948    1.835625
    149          6           0        6.102623    6.455010    1.656601
    150          1           0        6.309893    7.409380    1.180281
    151          6           0        5.203416    5.585772    0.784882
    152          1           0        5.655330    5.474386   -0.203705
    153          1           0        5.135972    4.589090    1.228205
    154          6           0        3.785811    6.143864    0.621141
    155          1           0        3.336676    6.252197    1.615953
    156          6           0        3.799341    7.511437   -0.055500
    157          1           0        4.316584    7.450362   -1.010483
    158          1           0        2.781990    7.847103   -0.240120
    159          1           0        4.291776    8.257144    0.564195
    160          6           0        2.939079    5.165065   -0.188150
    161          1           0        2.881768    4.203052    0.315746
    162          1           0        1.928927    5.544285   -0.320090
    163          1           0        3.367158    5.016651   -1.177299
    164          1           0        5.631141    6.644917    2.619330
    165          1           0        0.569876    7.111917    3.129801
    166          6           0       -0.213826    7.035507    2.378194
    167          1           0        0.246214    7.102789    1.395481
    168          6           0       -0.962914    5.710960    2.514401
    169          1           0       -1.393236    5.652572    3.521510
    170          6           0       -2.095352    5.619533    1.495957
    171          1           0       -1.691906    5.636152    0.485468
    172          1           0       -2.651845    4.695239    1.631280
    173          1           0       -2.784410    6.455249    1.607865
    174          6           0       -0.000097    4.543003    2.332443
    175          1           0        0.797796    4.584524    3.070456
    176          1           0       -0.523412    3.598395    2.450166
    177          1           0        0.442068    4.573327    1.339690
    178          1           0       -0.890555    7.879209    2.500350
    179          1           0       -5.882638    4.642759    3.279638
    180          6           0       -6.318163    4.736187    2.287321
    181          1           0       -5.546578    5.101978    1.615178
    182          6           0       -6.832136    3.390085    1.804629
    183          1           0       -7.601233    2.993284    2.470197
    184          1           0       -7.271628    3.478339    0.807931
    185          6           0       -5.729110    2.356843    1.689420
    186          8           0       -4.553617    2.597848    1.825372
    187          8           0       -6.216270    1.165388    1.418393
    188          1           0       -5.502966    0.506081    1.170264
    189          1           0       -7.126383    5.463121    2.325423
    190          1           0      -11.041912    0.962222   -2.332030
    191          6           0      -10.133133    1.055413   -1.741428
    192          1           0      -10.402197    1.356746   -0.731198
    193          6           0       -9.366712   -0.263298   -1.716268
    194          1           0       -9.977907   -1.033062   -1.235948
    195          1           0       -9.167903   -0.589559   -2.739566
    196          6           0       -8.049240   -0.151810   -0.958754
    197          1           0       -8.188533    0.372578   -0.014249
    198          1           0       -7.627806   -1.135956   -0.756688
    199         16           0       -6.766057    0.792484   -1.853984
    200          6           0       -6.022614   -0.526332   -2.851979
    201          1           0       -6.677165   -0.772936   -3.684170
    202          1           0       -5.069032   -0.159669   -3.225334
    203          1           0       -5.865819   -1.399320   -2.225505
    204          1           0       -9.509290    1.832840   -2.176979
    205          1           0       -4.882249    4.964936   -2.961166
    206          6           0       -4.851645    4.980253   -1.873900
    207          1           0       -5.873308    5.080697   -1.510890
    208          6           0       -4.214290    3.714825   -1.320462
    209          1           0       -3.232647    3.548082   -1.756666
    210          1           0       -4.100987    3.786931   -0.242325
    211          1           0       -4.832948    2.847907   -1.542069
    212          1           0       -4.298073    5.865499   -1.561842
    213          1           0       -0.958799    9.280481   -3.048185
    214          6           0       -0.135303    9.227824   -2.338721
    215          1           0       -0.190269   10.089698   -1.676148
    216          6           0       -0.212937    7.929925   -1.530491
    217          1           0        0.604544    7.934391   -0.801295
    218          1           0       -1.153241    7.912316   -0.973743
    219          6           0       -0.119103    6.681604   -2.353421
    220          6           0       -1.089687    5.727194   -2.507406
    221          1           0       -2.091534    5.728224   -2.123969
    222          7           0       -0.636599    4.682081   -3.254758
    223          1           0       -1.151970    3.831603   -3.507379
    224          6           0        0.653996    4.931642   -3.596346
    225          6           0        1.551812    4.157149   -4.321525
    226          1           0        1.251060    3.196125   -4.710300
    227          6           0        2.819116    4.657446   -4.519982
    228          1           0        3.544697    4.079656   -5.075802
    229          6           0        3.189305    5.909242   -4.017078
    230          1           0        4.192073    6.271271   -4.203446
    231          6           0        2.308863    6.681374   -3.294104
    232          1           0        2.610472    7.645892   -2.911767
    233          6           0        1.022357    6.194771   -3.059389
    234          1           0        0.796133    9.275013   -2.897107
    235          6           0       -3.456070   -0.680218    0.000997
    236          8           0       -4.541212   -0.712475    0.608945
    237          6           0       -2.626938    0.476307   -0.081685
    238          6           0       -1.405026    0.457208   -0.668926
    239          6           0       -0.744291   -0.810574   -1.104742
    240          6           0       -1.466205   -2.038711   -0.551942
    241          6           0       -2.966244   -1.885512   -0.741436
    242          6           0       -0.701036    1.722518   -0.990883
    243          6           0        0.807851    1.680840   -0.754517
    244          6           0        1.427477    0.428189   -1.368798
    245          6           0        0.758133   -0.813082   -0.755463
    246          6           0        2.926712    0.347919   -1.110158
    247          6           0        3.556131   -0.916163   -1.713059
    248          6           0        2.931684   -2.127365   -1.030661
    249          6           0        1.413976   -2.122486   -1.214857
    250          6           0        3.833334    1.472123   -1.612024
    251          6           0        5.235827    0.834169   -1.611885
    252          6           0        5.037907   -0.676792   -1.360573
    253          6           0        3.416687   -1.025089   -3.231897
    254          8           0        5.974067   -1.425673   -2.102113
    255          1           0       -3.039622    1.403684    0.292033
    256          1           0       -0.820006   -0.839504   -2.201583
    257          1           0       -1.241235   -2.153428    0.514008
    258          1           0       -1.141292   -2.938482   -1.073478
    259          1           0       -3.179505   -1.728644   -1.803814
    260          1           0       -3.493171   -2.781202   -0.413864
    261          1           0       -1.147797    2.560001   -0.452428
    262          1           0       -0.887043    1.886095   -2.064872
    263          1           0        1.005712    1.693038    0.321995
    264          1           0        1.260533    2.574035   -1.187744
    265          1           0        1.239682    0.443939   -2.443749
    266          1           0        0.861247   -0.745785    0.336544
    267          1           0        3.068197    0.282522   -0.023234
    268          1           0        3.166809   -2.093299    0.037640
    269          1           0        3.345093   -3.050536   -1.438453
    270          1           0        1.169520   -2.300659   -2.261107
    271          1           0        1.002479   -2.952472   -0.638025
    272          1           0        3.793727    2.346532   -0.964885
    273          1           0        3.536537    1.788495   -2.611741
    274          1           0        5.862973    1.266790   -0.835141
    275          1           0        5.745986    0.965038   -2.565630
    276          1           0        5.180349   -0.890295   -0.287152
    277          1           0        3.893584   -0.185502   -3.727610
    278          1           0        3.904121   -1.936722   -3.569277
    279          1           0        2.378315   -1.069008   -3.538759
    280          1           0        5.656365   -2.338197   -2.159566
    281          8           0       -0.559774   -0.658985   -4.263512
    282          1           0       -0.116779    0.182074   -4.403137
    283          1           0       -1.526757   -0.386292   -4.197763
    284          8           0        0.645756   -3.065278   -4.805157
    285          1           0        0.364887   -3.156044   -5.717206
    286          1           0        0.223257   -2.235874   -4.505159
 ---------------------------------------------------------------------
 Rotational constants (GHZ):           0.0120306           0.0107324           0.0085959
 Standard basis: 6-31G(d) (6D, 7F)
 There are  2023 symmetry adapted cartesian basis functions of A   symmetry.
 There are  2023 symmetry adapted basis functions of A   symmetry.
  2023 basis functions,  3856 primitive gaussians,  2023 cartesian basis functions
   443 alpha electrons      443 beta electrons
       nuclear repulsion energy     28475.4462283810 Hartrees.
 NAtoms=  286 NActive=  286 NUniq=  286 SFac= 1.00D+00 NAtFMM=   60 NAOKFM=T Big=T
 Integral buffers will be    131072 words long.
 Raffenetti 2 integral format.
 Two-electron integral symmetry is turned on.
 Nuclear repulsion after empirical dispersion term =    28475.1136700003 Hartrees.
 One-electron integrals computed using PRISM.
 NBasis=  2023 RedAO= T EigKep=  3.41D-04  NBF=  2023
 NBsUse=  2023 1.00D-06 EigRej= -1.00D+00 NBFU=  2023
 ExpMin= 1.17D-01 ExpMax= 2.19D+04 ExpMxC= 3.30D+03 IAcc=3 IRadAn=         5 AccDes= 0.00D+00
 Harris functional with IExCor= 4639 and IRadAn=       5 diagonalized for initial guess.
 HarFok:  IExCor= 4639 AccDes= 0.00D+00 IRadAn=         5 IDoV= 1 UseB2=F ITyADJ=14
 ICtDFT=  3500011 ScaDFX=  1.000000  1.000000  1.000000  1.000000
 FoFCou: FMM=F IPFlag=           0 FMFlag=      100000 FMFlg1=        2001
         NFxFlg=           0 DoJE=T BraDBF=F KetDBF=T FulRan=T
         wScrn=  0.000000 ICntrl=       500 IOpCl=  0 I1Cent=   200000004 NGrid=           0
         NMat0=    1 NMatS0=      1 NMatT0=    0 NMatD0=    1 NMtDS0=    0 NMtDT0=    0
 Petite list used in FoFCou.
 Requested convergence on RMS density matrix=1.00D-08 within 128 cycles.
 Requested convergence on MAX density matrix=1.00D-06.
 Requested convergence on             energy=1.00D-06.
 No special actions if energy rises.
 Integral accuracy reduced to 1.0D-05 until final iterations.
 Initial convergence to 1.0D-05 achieved.  Increase integral accuracy.
 SCF Done:  E(RwB97XD) =  -5495.93995337     A.U. after   15 cycles
            NFock= 15  Conv=0.36D-08     -V/T= 2.0081
 Hyperfine terms turned off by default for NAtoms > 100.

 **********************************************************************

            Population analysis using the SCF Density.

 **********************************************************************

 Orbital symmetries:
       Occupied  (A) (A) (A) (A) (A) (A) (A) (A) (A) (A) (A) (A)
                 (A) (A) (A) (A) (A) (A) (A) (A) (A) (A) (A) (A)
                 (A) (A) (A) (A) (A) (A) (A) (A) (A) (A) (A) (A)
                 (A) (A) (A) (A) (A) (A) (A) (A) (A) (A) (A) (A)
                 (A) (A) (A) (A) (A) (A) (A) (A) (A) (A) (A) (A)
                 (A) (A) (A) (A) (A) (A) (A) (A) (A) (A) (A) (A)
                 (A) (A) (A) (A) (A) (A) (A) (A) (A) (A) (A) (A)
                 (A) (A) (A) (A) (A) (A) (A) (A) (A) (A) (A) (A)
                 (A) (A) (A) (A) (A) (A) (A) (A) (A) (A) (A) (A)
                 (A) (A) (A) (A) (A) (A) (A) (A) (A) (A) (A) (A)
                 (A) (A) (A) (A) (A) (A) (A) (A) (A) (A) (A) (A)
                 (A) (A) (A) (A) (A) (A) (A) (A) (A) (A) (A) (A)
                 (A) (A) (A) (A) (A) (A) (A) (A) (A) (A) (A) (A)
                 (A) (A) (A) (A) (A) (A) (A) (A) (A) (A) (A) (A)
                 (A) (A) (A) (A) (A) (A) (A) (A) (A) (A) (A) (A)
                 (A) (A) (A) (A) (A) (A) (A) (A) (A) (A) (A) (A)
                 (A) (A) (A) (A) (A) (A) (A) (A) (A) (A) (A) (A)
                 (A) (A) (A) (A) (A) (A) (A) (A) (A) (A) (A) (A)
                 (A) (A) (A) (A) (A) (A) (A) (A) (A) (A) (A) (A)
                 (A) (A) (A) (A) (A) (A) (A) (A) (A) (A) (A) (A)
                 (A) (A) (A) (A) (A) (A) (A) (A) (A) (A) (A) (A)
                 (A) (A) (A) (A) (A) (A) (A) (A) (A) (A) (A) (A)
                 (A) (A) (A) (A) (A) (A) (A) (A) (A) (A) (A) (A)
                 (A) (A) (A) (A) (A) (A) (A) (A) (A) (A) (A) (A)
                 (A) (A) (A) (A) (A) (A) (A) (A) (A) (A) (A) (A)
                 (A) (A) (A) (A) (A) (A) (A) (A) (A) (A) (A) (A)
                 (A) (A) (A) (A) (A) (A) (A) (A) (A) (A) (A) (A)
                 (A) (A) (A) (A) (A) (A) (A) (A) (A) (A) (A) (A)
                 (A) (A) (A) (A) (A) (A) (A) (A) (A) (A) (A) (A)
                 (A) (A) (A) (A) (A) (A) (A) (A) (A) (A) (A) (A)
                 (A) (A) (A) (A) (A) (A) (A) (A) (A) (A) (A) (A)
                 (A) (A) (A) (A) (A) (A) (A) (A) (A) (A) (A) (A)
                 (A) (A) (A) (A) (A) (A) (A) (A) (A) (A) (A) (A)
                 (A) (A) (A) (A) (A) (A) (A) (A) (A) (A) (A) (A)
                 (A) (A) (A) (A) (A) (A) (A) (A) (A) (A) (A) (A)
                 (A) (A) (A) (A) (A) (A) (A) (A) (A) (A) (A) (A)
                 (A) (A) (A) (A) (A) (A) (A) (A) (A) (A) (A)
       Virtual   (A) (A) (A) (A) (A) (A) (A) (A) (A) (A) (A) (A)
                 (A) (A) (A) (A) (A) (A) (A) (A) (A) (A) (A) (A)
                 (A) (A) (A) (A) (A) (A) (A) (A) (A) (A) (A) (A)
                 (A) (A) (A) (A) (A) (A) (A) (A) (A) (A) (A) (A)
                 (A) (A) (A) (A) (A) (A) (A) (A) (A) (A) (A) (A)
                 (A) (A) (A) (A) (A) (A) (A) (A) (A) (A) (A) (A)
                 (A) (A) (A) (A) (A) (A) (A) (A) (A) (A) (A) (A)
                 (A) (A) (A) (A) (A) (A) (A) (A) (A) (A) (A) (A)
                 (A) (A) (A) (A) (A) (A) (A) (A) (A) (A) (A) (A)
                 (A) (A) (A) (A) (A) (A) (A) (A) (A) (A) (A) (A)
                 (A) (A) (A) (A) (A) (A) (A) (A) (A) (A) (A) (A)
                 (A) (A) (A) (A) (A) (A) (A) (A) (A) (A) (A) (A)
                 (A) (A) (A) (A) (A) (A) (A) (A) (A) (A) (A) (A)
                 (A) (A) (A) (A) (A) (A) (A) (A) (A) (A) (A) (A)
                 (A) (A) (A) (A) (A) (A) (A) (A) (A) (A) (A) (A)
                 (A) (A) (A) (A) (A) (A) (A) (A) (A) (A) (A) (A)
                 (A) (A) (A) (A) (A) (A) (A) (A) (A) (A) (A) (A)
                 (A) (A) (A) (A) (A) (A) (A) (A) (A) (A) (A) (A)
                 (A) (A) (A) (A) (A) (A) (A) (A) (A) (A) (A) (A)
                 (A) (A) (A) (A) (A) (A) (A) (A) (A) (A) (A) (A)
                 (A) (A) (A) (A) (A) (A) (A) (A) (A) (A) (A) (A)
                 (A) (A) (A) (A) (A) (A) (A) (A) (A) (A) (A) (A)
                 (A) (A) (A) (A) (A) (A) (A) (A) (A) (A) (A) (A)
                 (A) (A) (A) (A) (A) (A) (A) (A) (A) (A) (A) (A)
                 (A) (A) (A) (A) (A) (A) (A) (A) (A) (A) (A) (A)
                 (A) (A) (A) (A) (A) (A) (A) (A) (A) (A) (A) (A)
                 (A) (A) (A) (A) (A) (A) (A) (A) (A) (A) (A) (A)
                 (A) (A) (A) (A) (A) (A) (A) (A) (A) (A) (A) (A)
                 (A) (A) (A) (A) (A) (A) (A) (A) (A) (A) (A) (A)
                 (A) (A) (A) (A) (A) (A) (A) (A) (A) (A) (A) (A)
                 (A) (A) (A) (A) (A) (A) (A) (A) (A) (A) (A) (A)
                 (A) (A) (A) (A) (A) (A) (A) (A) (A) (A) (A) (A)
                 (A) (A) (A) (A) (A) (A) (A) (A) (A) (A) (A) (A)
                 (A) (A) (A) (A) (A) (A) (A) (A) (A) (A) (A) (A)
                 (A) (A) (A) (A) (A) (A) (A) (A) (A) (A) (A) (A)
                 (A) (A) (A) (A) (A) (A) (A) (A) (A) (A) (A) (A)
                 (A) (A) (A) (A) (A) (A) (A) (A) (A) (A) (A) (A)
                 (A) (A) (A) (A) (A) (A) (A) (A) (A) (A) (A) (A)
                 (A) (A) (A) (A) (A) (A) (A) (A) (A) (A) (A) (A)
                 (A) (A) (A) (A) (A) (A) (A) (A) (A) (A) (A) (A)
                 (A) (A) (A) (A) (A) (A) (A) (A) (A) (A) (A) (A)
                 (A) (A) (A) (A) (A) (A) (A) (A) (A) (A) (A) (A)
                 (A) (A) (A) (A) (A) (A) (A) (A) (A) (A) (A) (A)
                 (A) (A) (A) (A) (A) (A) (A) (A) (A) (A) (A) (A)
                 (A) (A) (A) (A) (A) (A) (A) (A) (A) (A) (A) (A)
                 (A) (A) (A) (A) (A) (A) (A) (A) (A) (A) (A) (A)
                 (A) (A) (A) (A) (A) (A) (A) (A) (A) (A) (A) (A)
                 (A) (A) (A) (A) (A) (A) (A) (A) (A) (A) (A) (A)
                 (A) (A) (A) (A) (A) (A) (A) (A) (A) (A) (A) (A)
                 (A) (A) (A) (A) (A) (A) (A) (A) (A) (A) (A) (A)
                 (A) (A) (A) (A) (A) (A) (A) (A) (A) (A) (A) (A)
                 (A) (A) (A) (A) (A) (A) (A) (A) (A) (A) (A) (A)
                 (A) (A) (A) (A) (A) (A) (A) (A) (A) (A) (A) (A)
                 (A) (A) (A) (A) (A) (A) (A) (A) (A) (A) (A) (A)
                 (A) (A) (A) (A) (A) (A) (A) (A) (A) (A) (A) (A)
                 (A) (A) (A) (A) (A) (A) (A) (A) (A) (A) (A) (A)
                 (A) (A) (A) (A) (A) (A) (A) (A) (A) (A) (A) (A)
                 (A) (A) (A) (A) (A) (A) (A) (A) (A) (A) (A) (A)
                 (A) (A) (A) (A) (A) (A) (A) (A) (A) (A) (A) (A)
                 (A) (A) (A) (A) (A) (A) (A) (A) (A) (A) (A) (A)
                 (A) (A) (A) (A) (A) (A) (A) (A) (A) (A) (A) (A)
                 (A) (A) (A) (A) (A) (A) (A) (A) (A) (A) (A) (A)
                 (A) (A) (A) (A) (A) (A) (A) (A) (A) (A) (A) (A)
                 (A) (A) (A) (A) (A) (A) (A) (A) (A) (A) (A) (A)
                 (A) (A) (A) (A) (A) (A) (A) (A) (A) (A) (A) (A)
                 (A) (A) (A) (A) (A) (A) (A) (A) (A) (A) (A) (A)
                 (A) (A) (A) (A) (A) (A) (A) (A) (A) (A) (A) (A)
                 (A) (A) (A) (A) (A) (A) (A) (A) (A) (A) (A) (A)
                 (A) (A) (A) (A) (A) (A) (A) (A) (A) (A) (A) (A)
                 (A) (A) (A) (A) (A) (A) (A) (A) (A) (A) (A) (A)
                 (A) (A) (A) (A) (A) (A) (A) (A) (A) (A) (A) (A)
                 (A) (A) (A) (A) (A) (A) (A) (A) (A) (A) (A) (A)
                 (A) (A) (A) (A) (A) (A) (A) (A) (A) (A) (A) (A)
                 (A) (A) (A) (A) (A) (A) (A) (A) (A) (A) (A) (A)
                 (A) (A) (A) (A) (A) (A) (A) (A) (A) (A) (A) (A)
                 (A) (A) (A) (A) (A) (A) (A) (A) (A) (A) (A) (A)
                 (A) (A) (A) (A) (A) (A) (A) (A) (A) (A) (A) (A)
                 (A) (A) (A) (A) (A) (A) (A) (A) (A) (A) (A) (A)
                 (A) (A) (A) (A) (A) (A) (A) (A) (A) (A) (A) (A)
                 (A) (A) (A) (A) (A) (A) (A) (A) (A) (A) (A) (A)
                 (A) (A) (A) (A) (A) (A) (A) (A) (A) (A) (A) (A)
                 (A) (A) (A) (A) (A) (A) (A) (A) (A) (A) (A) (A)
                 (A) (A) (A) (A) (A) (A) (A) (A) (A) (A) (A) (A)
                 (A) (A) (A) (A) (A) (A) (A) (A) (A) (A) (A) (A)
                 (A) (A) (A) (A) (A) (A) (A) (A) (A) (A) (A) (A)
                 (A) (A) (A) (A) (A) (A) (A) (A) (A) (A) (A) (A)
                 (A) (A) (A) (A) (A) (A) (A) (A) (A) (A) (A) (A)
                 (A) (A) (A) (A) (A) (A) (A) (A) (A) (A) (A) (A)
                 (A) (A) (A) (A) (A) (A) (A) (A) (A) (A) (A) (A)
                 (A) (A) (A) (A) (A) (A) (A) (A) (A) (A) (A) (A)
                 (A) (A) (A) (A) (A) (A) (A) (A) (A) (A) (A) (A)
                 (A) (A) (A) (A) (A) (A) (A) (A) (A) (A) (A) (A)
                 (A) (A) (A) (A) (A) (A) (A) (A) (A) (A) (A) (A)
                 (A) (A) (A) (A) (A) (A) (A) (A) (A) (A) (A) (A)
                 (A) (A) (A) (A) (A) (A) (A) (A) (A) (A) (A) (A)
                 (A) (A) (A) (A) (A) (A) (A) (A) (A) (A) (A) (A)
                 (A) (A) (A) (A) (A) (A) (A) (A) (A) (A) (A) (A)
                 (A) (A) (A) (A) (A) (A) (A) (A) (A) (A) (A) (A)
                 (A) (A) (A) (A) (A) (A) (A) (A) (A) (A) (A) (A)
                 (A) (A) (A) (A) (A) (A) (A) (A) (A) (A) (A) (A)
                 (A) (A) (A) (A) (A) (A) (A) (A) (A) (A) (A) (A)
                 (A) (A) (A) (A) (A) (A) (A) (A) (A) (A) (A) (A)
                 (A) (A) (A) (A) (A) (A) (A) (A) (A) (A) (A) (A)
                 (A) (A) (A) (A) (A) (A) (A) (A) (A) (A) (A) (A)
                 (A) (A) (A) (A) (A) (A) (A) (A) (A) (A) (A) (A)
                 (A) (A) (A) (A) (A) (A) (A) (A) (A) (A) (A) (A)
                 (A) (A) (A) (A) (A) (A) (A) (A) (A) (A) (A) (A)
                 (A) (A) (A) (A) (A) (A) (A) (A) (A) (A) (A) (A)
                 (A) (A) (A) (A) (A) (A) (A) (A) (A) (A) (A) (A)
                 (A) (A) (A) (A) (A) (A) (A) (A) (A) (A) (A) (A)
                 (A) (A) (A) (A) (A) (A) (A) (A) (A) (A) (A) (A)
                 (A) (A) (A) (A) (A) (A) (A) (A) (A) (A) (A) (A)
                 (A) (A) (A) (A) (A) (A) (A) (A) (A) (A) (A) (A)
                 (A) (A) (A) (A) (A) (A) (A) (A) (A) (A) (A) (A)
                 (A) (A) (A) (A) (A) (A) (A) (A) (A) (A) (A) (A)
                 (A) (A) (A) (A) (A) (A) (A) (A) (A) (A) (A) (A)
                 (A) (A) (A) (A) (A) (A) (A) (A) (A) (A) (A) (A)
                 (A) (A) (A) (A) (A) (A) (A) (A) (A) (A) (A) (A)
                 (A) (A) (A) (A) (A) (A) (A) (A) (A) (A) (A) (A)
                 (A) (A) (A) (A) (A) (A) (A) (A) (A) (A) (A) (A)
                 (A) (A) (A) (A) (A) (A) (A) (A) (A) (A) (A) (A)
                 (A) (A) (A) (A) (A) (A) (A) (A) (A) (A) (A) (A)
                 (A) (A) (A) (A) (A) (A) (A) (A) (A) (A) (A) (A)
                 (A) (A) (A) (A) (A) (A) (A) (A) (A) (A) (A) (A)
                 (A) (A) (A) (A) (A) (A) (A) (A) (A) (A) (A) (A)
                 (A) (A) (A) (A) (A) (A) (A) (A) (A) (A) (A) (A)
                 (A) (A) (A) (A) (A) (A) (A) (A) (A) (A) (A) (A)
                 (A) (A) (A) (A) (A) (A) (A) (A) (A) (A) (A) (A)
                 (A) (A) (A) (A) (A) (A) (A) (A) (A) (A) (A) (A)
                 (A) (A) (A) (A) (A) (A) (A) (A) (A) (A) (A) (A)
                 (A) (A) (A) (A) (A) (A) (A) (A) (A) (A) (A) (A)
                 (A) (A) (A) (A) (A) (A) (A) (A)
 The electronic state is 1-A.
 Alpha  occ. eigenvalues --  -88.96702 -88.93986 -19.22657 -19.21758 -19.20963
 Alpha  occ. eigenvalues --  -19.20797 -19.18396 -19.17777 -19.17758 -19.16789
 Alpha  occ. eigenvalues --  -19.15873 -19.12137 -19.11957 -14.42618 -14.38768
 Alpha  occ. eigenvalues --  -10.34896 -10.34877 -10.31923 -10.29308 -10.28855
 Alpha  occ. eigenvalues --  -10.27887 -10.27879 -10.25743 -10.25296 -10.25059
 Alpha  occ. eigenvalues --  -10.24866 -10.24505 -10.24215 -10.23948 -10.23927
 Alpha  occ. eigenvalues --  -10.23862 -10.23733 -10.23688 -10.23562 -10.23521
 Alpha  occ. eigenvalues --  -10.23515 -10.23506 -10.23494 -10.23493 -10.23433
 Alpha  occ. eigenvalues --  -10.23421 -10.23175 -10.23103 -10.23092 -10.22969
 Alpha  occ. eigenvalues --  -10.22947 -10.22899 -10.22798 -10.22694 -10.22661
 Alpha  occ. eigenvalues --  -10.22653 -10.22583 -10.22397 -10.22331 -10.22326
 Alpha  occ. eigenvalues --  -10.22250 -10.22199 -10.22198 -10.22144 -10.22101
 Alpha  occ. eigenvalues --  -10.22097 -10.22075 -10.22005 -10.21981 -10.21959
 Alpha  occ. eigenvalues --  -10.21915 -10.21892 -10.21866 -10.21828 -10.21779
 Alpha  occ. eigenvalues --  -10.21652 -10.21618 -10.21549 -10.21547 -10.21546
 Alpha  occ. eigenvalues --  -10.21514 -10.21493 -10.21469 -10.21302 -10.21207
 Alpha  occ. eigenvalues --  -10.21168 -10.21154 -10.21104 -10.20999 -10.20971
 Alpha  occ. eigenvalues --  -10.20886 -10.20863 -10.20780 -10.20753 -10.20718
 Alpha  occ. eigenvalues --  -10.20688 -10.20638 -10.20589 -10.20414 -10.20414
 Alpha  occ. eigenvalues --  -10.20359 -10.20338 -10.20171 -10.20163 -10.20050
 Alpha  occ. eigenvalues --  -10.20016 -10.19975 -10.19956 -10.19907 -10.19844
 Alpha  occ. eigenvalues --  -10.19473 -10.19373 -10.19213 -10.19034 -10.18962
 Alpha  occ. eigenvalues --  -10.18565  -7.98500  -7.95837  -5.93555  -5.93171
 Alpha  occ. eigenvalues --   -5.92487  -5.90885  -5.90498  -5.89830  -1.12176
 Alpha  occ. eigenvalues --   -1.09225  -1.08773  -1.07687  -1.07145  -1.04160
 Alpha  occ. eigenvalues --   -1.03316  -1.02981  -1.00876  -0.99091  -0.98953
 Alpha  occ. eigenvalues --   -0.97488  -0.94416  -0.89562  -0.89312  -0.89300
 Alpha  occ. eigenvalues --   -0.88212  -0.87065  -0.86029  -0.85671  -0.85288
 Alpha  occ. eigenvalues --   -0.84550  -0.84173  -0.83837  -0.83536  -0.83263
 Alpha  occ. eigenvalues --   -0.82530  -0.82492  -0.82382  -0.82295  -0.82054
 Alpha  occ. eigenvalues --   -0.81208  -0.81063  -0.80963  -0.80209  -0.79887
 Alpha  occ. eigenvalues --   -0.78460  -0.78331  -0.77550  -0.77455  -0.77222
 Alpha  occ. eigenvalues --   -0.77176  -0.76878  -0.76716  -0.76436  -0.75919
 Alpha  occ. eigenvalues --   -0.75885  -0.75644  -0.75433  -0.74529  -0.74222
 Alpha  occ. eigenvalues --   -0.74072  -0.72991  -0.72617  -0.72561  -0.72274
 Alpha  occ. eigenvalues --   -0.72190  -0.71901  -0.71541  -0.71364  -0.71082
 Alpha  occ. eigenvalues --   -0.70850  -0.70555  -0.70519  -0.70125  -0.69456
 Alpha  occ. eigenvalues --   -0.69361  -0.69041  -0.68259  -0.68017  -0.66903
 Alpha  occ. eigenvalues --   -0.66632  -0.65713  -0.65641  -0.65188  -0.65124
 Alpha  occ. eigenvalues --   -0.64943  -0.64875  -0.63693  -0.63616  -0.63425
 Alpha  occ. eigenvalues --   -0.63159  -0.63004  -0.62859  -0.62826  -0.62325
 Alpha  occ. eigenvalues --   -0.61594  -0.60947  -0.60282  -0.60189  -0.60039
 Alpha  occ. eigenvalues --   -0.59905  -0.59804  -0.59619  -0.59295  -0.58688
 Alpha  occ. eigenvalues --   -0.58595  -0.58264  -0.57748  -0.57730  -0.57489
 Alpha  occ. eigenvalues --   -0.57047  -0.56357  -0.56198  -0.56113  -0.55658
 Alpha  occ. eigenvalues --   -0.54323  -0.53824  -0.53413  -0.53109  -0.52687
 Alpha  occ. eigenvalues --   -0.52185  -0.51989  -0.51620  -0.51471  -0.51286
 Alpha  occ. eigenvalues --   -0.50968  -0.50432  -0.50072  -0.49859  -0.49633
 Alpha  occ. eigenvalues --   -0.49598  -0.49500  -0.49445  -0.49372  -0.49279
 Alpha  occ. eigenvalues --   -0.49222  -0.49060  -0.49015  -0.48691  -0.48634
 Alpha  occ. eigenvalues --   -0.48546  -0.48436  -0.48361  -0.48181  -0.48032
 Alpha  occ. eigenvalues --   -0.47744  -0.47628  -0.47325  -0.47230  -0.47124
 Alpha  occ. eigenvalues --   -0.46962  -0.46739  -0.46669  -0.46458  -0.46410
 Alpha  occ. eigenvalues --   -0.46242  -0.46115  -0.46007  -0.45962  -0.45831
 Alpha  occ. eigenvalues --   -0.45787  -0.45434  -0.45403  -0.45336  -0.45222
 Alpha  occ. eigenvalues --   -0.45104  -0.45019  -0.44941  -0.44837  -0.44780
 Alpha  occ. eigenvalues --   -0.44724  -0.44642  -0.44600  -0.44571  -0.44410
 Alpha  occ. eigenvalues --   -0.44366  -0.44129  -0.44043  -0.44027  -0.43819
 Alpha  occ. eigenvalues --   -0.43751  -0.43682  -0.43580  -0.43389  -0.43360
 Alpha  occ. eigenvalues --   -0.43296  -0.43176  -0.43099  -0.43012  -0.42893
 Alpha  occ. eigenvalues --   -0.42851  -0.42767  -0.42735  -0.42517  -0.42468
 Alpha  occ. eigenvalues --   -0.42131  -0.41973  -0.41928  -0.41754  -0.41662
 Alpha  occ. eigenvalues --   -0.41607  -0.41448  -0.41434  -0.41251  -0.41098
 Alpha  occ. eigenvalues --   -0.41080  -0.41054  -0.40888  -0.40856  -0.40710
 Alpha  occ. eigenvalues --   -0.40655  -0.40552  -0.40506  -0.40442  -0.40287
 Alpha  occ. eigenvalues --   -0.40173  -0.40140  -0.40025  -0.39908  -0.39781
 Alpha  occ. eigenvalues --   -0.39705  -0.39442  -0.39350  -0.39285  -0.39266
 Alpha  occ. eigenvalues --   -0.39160  -0.39073  -0.38881  -0.38659  -0.38594
 Alpha  occ. eigenvalues --   -0.38517  -0.38490  -0.38325  -0.38114  -0.38003
 Alpha  occ. eigenvalues --   -0.37921  -0.37892  -0.37742  -0.37699  -0.37647
 Alpha  occ. eigenvalues --   -0.37356  -0.37225  -0.37148  -0.37107  -0.36978
 Alpha  occ. eigenvalues --   -0.36886  -0.36819  -0.36657  -0.36623  -0.36559
 Alpha  occ. eigenvalues --   -0.36501  -0.36315  -0.36211  -0.36106  -0.36071
 Alpha  occ. eigenvalues --   -0.35999  -0.35896  -0.35838  -0.35760  -0.35644
 Alpha  occ. eigenvalues --   -0.35532  -0.35421  -0.35324  -0.35134  -0.35123
 Alpha  occ. eigenvalues --   -0.34960  -0.34832  -0.34774  -0.34675  -0.34580
 Alpha  occ. eigenvalues --   -0.34483  -0.34461  -0.34422  -0.34236  -0.34222
 Alpha  occ. eigenvalues --   -0.34174  -0.34156  -0.34136  -0.34058  -0.33979
 Alpha  occ. eigenvalues --   -0.33930  -0.33874  -0.33852  -0.33790  -0.33706
 Alpha  occ. eigenvalues --   -0.33571  -0.33517  -0.33426  -0.33371  -0.33337
 Alpha  occ. eigenvalues --   -0.33282  -0.32963  -0.32857  -0.32661  -0.32609
 Alpha  occ. eigenvalues --   -0.32452  -0.32276  -0.32235  -0.32149  -0.32058
 Alpha  occ. eigenvalues --   -0.31990  -0.31903  -0.31555  -0.31244  -0.31070
 Alpha  occ. eigenvalues --   -0.30910  -0.30252  -0.29463  -0.28963  -0.28634
 Alpha  occ. eigenvalues --   -0.28503  -0.28310  -0.28081  -0.28023  -0.27462
 Alpha  occ. eigenvalues --   -0.27076  -0.26580  -0.26531  -0.26375  -0.25595
 Alpha  occ. eigenvalues --   -0.25454  -0.25188  -0.24714  -0.24618  -0.23659
 Alpha  occ. eigenvalues --   -0.22922  -0.22410  -0.22388  -0.22199  -0.21011
 Alpha  occ. eigenvalues --   -0.20603  -0.20591  -0.18296
 Alpha virt. eigenvalues --    0.08814   0.13160   0.13972   0.14042   0.14420
 Alpha virt. eigenvalues --    0.14443   0.14928   0.15932   0.16173   0.16469
 Alpha virt. eigenvalues --    0.17303   0.17577   0.18282   0.18329   0.19133
 Alpha virt. eigenvalues --    0.19946   0.20169   0.20370   0.20629   0.20850
 Alpha virt. eigenvalues --    0.21134   0.21303   0.21447   0.21785   0.21952
 Alpha virt. eigenvalues --    0.22313   0.22494   0.22585   0.22802   0.23048
 Alpha virt. eigenvalues --    0.23168   0.23429   0.23609   0.23678   0.23899
 Alpha virt. eigenvalues --    0.24160   0.24197   0.24277   0.24456   0.24720
 Alpha virt. eigenvalues --    0.24977   0.25082   0.25145   0.25252   0.25346
 Alpha virt. eigenvalues --    0.25553   0.25609   0.25925   0.26017   0.26099
 Alpha virt. eigenvalues --    0.26241   0.26427   0.26651   0.26905   0.27005
 Alpha virt. eigenvalues --    0.27155   0.27186   0.27267   0.27375   0.27507
 Alpha virt. eigenvalues --    0.27588   0.27744   0.27927   0.28041   0.28161
 Alpha virt. eigenvalues --    0.28320   0.28412   0.28456   0.28600   0.28648
 Alpha virt. eigenvalues --    0.28734   0.28796   0.28833   0.28899   0.29045
 Alpha virt. eigenvalues --    0.29155   0.29303   0.29403   0.29573   0.29635
 Alpha virt. eigenvalues --    0.29718   0.29822   0.29984   0.29997   0.30110
 Alpha virt. eigenvalues --    0.30129   0.30370   0.30379   0.30434   0.30522
 Alpha virt. eigenvalues --    0.30643   0.30688   0.30780   0.30848   0.30950
 Alpha virt. eigenvalues --    0.31025   0.31106   0.31235   0.31281   0.31382
 Alpha virt. eigenvalues --    0.31441   0.31469   0.31524   0.31622   0.31711
 Alpha virt. eigenvalues --    0.31777   0.31934   0.32009   0.32103   0.32136
 Alpha virt. eigenvalues --    0.32243   0.32288   0.32364   0.32367   0.32425
 Alpha virt. eigenvalues --    0.32535   0.32563   0.32654   0.32713   0.32779
 Alpha virt. eigenvalues --    0.32956   0.33018   0.33081   0.33196   0.33270
 Alpha virt. eigenvalues --    0.33302   0.33374   0.33477   0.33627   0.33644
 Alpha virt. eigenvalues --    0.33727   0.33801   0.33901   0.34008   0.34032
 Alpha virt. eigenvalues --    0.34124   0.34210   0.34289   0.34356   0.34369
 Alpha virt. eigenvalues --    0.34538   0.34580   0.34697   0.34758   0.34814
 Alpha virt. eigenvalues --    0.34910   0.35016   0.35208   0.35225   0.35499
 Alpha virt. eigenvalues --    0.35585   0.35615   0.35689   0.35752   0.35897
 Alpha virt. eigenvalues --    0.36024   0.36070   0.36151   0.36321   0.36356
 Alpha virt. eigenvalues --    0.36421   0.36465   0.36543   0.36710   0.36772
 Alpha virt. eigenvalues --    0.36889   0.36938   0.36964   0.37090   0.37268
 Alpha virt. eigenvalues --    0.37366   0.37417   0.37529   0.37563   0.37691
 Alpha virt. eigenvalues --    0.37729   0.37805   0.37880   0.37956   0.38047
 Alpha virt. eigenvalues --    0.38127   0.38240   0.38328   0.38475   0.38521
 Alpha virt. eigenvalues --    0.38578   0.38629   0.38808   0.38965   0.39047
 Alpha virt. eigenvalues --    0.39079   0.39172   0.39244   0.39326   0.39452
 Alpha virt. eigenvalues --    0.39613   0.39812   0.39968   0.40007   0.40138
 Alpha virt. eigenvalues --    0.40177   0.40241   0.40345   0.40457   0.40645
 Alpha virt. eigenvalues --    0.40764   0.40838   0.40979   0.41139   0.41204
 Alpha virt. eigenvalues --    0.41313   0.41383   0.41518   0.41631   0.41799
 Alpha virt. eigenvalues --    0.41965   0.42080   0.42159   0.42235   0.42353
 Alpha virt. eigenvalues --    0.42404   0.42553   0.42635   0.42657   0.42952
 Alpha virt. eigenvalues --    0.42991   0.43280   0.43410   0.43573   0.43798
 Alpha virt. eigenvalues --    0.43842   0.43927   0.44083   0.44128   0.44272
 Alpha virt. eigenvalues --    0.44397   0.44566   0.44720   0.45022   0.45158
 Alpha virt. eigenvalues --    0.45326   0.45445   0.45635   0.45718   0.45992
 Alpha virt. eigenvalues --    0.46363   0.46664   0.46752   0.47202   0.47325
 Alpha virt. eigenvalues --    0.47461   0.47601   0.47802   0.47954   0.48018
 Alpha virt. eigenvalues --    0.48131   0.48364   0.48577   0.48874   0.49084
 Alpha virt. eigenvalues --    0.49400   0.49632   0.50063   0.50269   0.50425
 Alpha virt. eigenvalues --    0.50711   0.50723   0.51033   0.51096   0.51242
 Alpha virt. eigenvalues --    0.51505   0.51725   0.52115   0.52126   0.52859
 Alpha virt. eigenvalues --    0.53502   0.53878   0.54461   0.54698   0.55065
 Alpha virt. eigenvalues --    0.55931   0.57045   0.57154   0.57807   0.58581
 Alpha virt. eigenvalues --    0.58905   0.59015   0.59646   0.59830   0.60573
 Alpha virt. eigenvalues --    0.60877   0.61138   0.61738   0.62030   0.62134
 Alpha virt. eigenvalues --    0.62464   0.62802   0.63254   0.63579   0.63837
 Alpha virt. eigenvalues --    0.63923   0.64199   0.64378   0.64693   0.64887
 Alpha virt. eigenvalues --    0.64980   0.65103   0.65210   0.65366   0.65662
 Alpha virt. eigenvalues --    0.65703   0.65891   0.65965   0.66087   0.66182
 Alpha virt. eigenvalues --    0.66335   0.66505   0.66602   0.66673   0.66765
 Alpha virt. eigenvalues --    0.66964   0.67043   0.67113   0.67154   0.67274
 Alpha virt. eigenvalues --    0.67372   0.67574   0.67668   0.67839   0.68039
 Alpha virt. eigenvalues --    0.68120   0.68180   0.68335   0.68499   0.68612
 Alpha virt. eigenvalues --    0.68721   0.68927   0.69020   0.69126   0.69190
 Alpha virt. eigenvalues --    0.69278   0.69486   0.69612   0.69664   0.69807
 Alpha virt. eigenvalues --    0.69838   0.69986   0.70087   0.70279   0.70359
 Alpha virt. eigenvalues --    0.70439   0.70532   0.70727   0.70784   0.70829
 Alpha virt. eigenvalues --    0.70887   0.71205   0.71318   0.71469   0.71565
 Alpha virt. eigenvalues --    0.71664   0.71840   0.72022   0.72145   0.72392
 Alpha virt. eigenvalues --    0.72396   0.72531   0.72646   0.72879   0.73038
 Alpha virt. eigenvalues --    0.73242   0.73408   0.73662   0.73690   0.73733
 Alpha virt. eigenvalues --    0.73850   0.73914   0.74114   0.74192   0.74343
 Alpha virt. eigenvalues --    0.74465   0.74533   0.74852   0.74973   0.75065
 Alpha virt. eigenvalues --    0.75197   0.75225   0.75302   0.75454   0.75528
 Alpha virt. eigenvalues --    0.75754   0.75962   0.76135   0.76192   0.76280
 Alpha virt. eigenvalues --    0.76488   0.76609   0.76874   0.76892   0.77139
 Alpha virt. eigenvalues --    0.77160   0.77242   0.77351   0.77421   0.77558
 Alpha virt. eigenvalues --    0.77636   0.77719   0.78055   0.78194   0.78446
 Alpha virt. eigenvalues --    0.78549   0.78628   0.78850   0.78965   0.79168
 Alpha virt. eigenvalues --    0.79207   0.79429   0.79583   0.79757   0.79866
 Alpha virt. eigenvalues --    0.79936   0.80117   0.80228   0.80395   0.80519
 Alpha virt. eigenvalues --    0.80654   0.80900   0.80972   0.81092   0.81109
 Alpha virt. eigenvalues --    0.81201   0.81298   0.81356   0.81648   0.81817
 Alpha virt. eigenvalues --    0.81909   0.82050   0.82154   0.82324   0.82516
 Alpha virt. eigenvalues --    0.82600   0.82676   0.82706   0.82850   0.83013
 Alpha virt. eigenvalues --    0.83259   0.83450   0.83553   0.83649   0.83820
 Alpha virt. eigenvalues --    0.83989   0.84010   0.84250   0.84289   0.84540
 Alpha virt. eigenvalues --    0.84703   0.84850   0.85013   0.85205   0.85311
 Alpha virt. eigenvalues --    0.85448   0.85502   0.85684   0.86007   0.86054
 Alpha virt. eigenvalues --    0.86380   0.86502   0.86640   0.86717   0.86924
 Alpha virt. eigenvalues --    0.87002   0.87111   0.87228   0.87284   0.87407
 Alpha virt. eigenvalues --    0.87583   0.87685   0.87800   0.87930   0.87976
 Alpha virt. eigenvalues --    0.88205   0.88250   0.88416   0.88461   0.88647
 Alpha virt. eigenvalues --    0.88773   0.88876   0.89070   0.89226   0.89297
 Alpha virt. eigenvalues --    0.89367   0.89510   0.89697   0.89815   0.90076
 Alpha virt. eigenvalues --    0.90179   0.90276   0.90460   0.90827   0.91022
 Alpha virt. eigenvalues --    0.91116   0.91270   0.91562   0.91627   0.91688
 Alpha virt. eigenvalues --    0.92062   0.92199   0.92290   0.92484   0.92743
 Alpha virt. eigenvalues --    0.92817   0.92986   0.93274   0.93328   0.93421
 Alpha virt. eigenvalues --    0.93473   0.93801   0.93839   0.94054   0.94495
 Alpha virt. eigenvalues --    0.94630   0.94642   0.94912   0.95052   0.95368
 Alpha virt. eigenvalues --    0.95493   0.95907   0.95998   0.96033   0.96432
 Alpha virt. eigenvalues --    0.96597   0.96738   0.96858   0.97345   0.97427
 Alpha virt. eigenvalues --    0.97633   0.97707   0.97809   0.97977   0.98327
 Alpha virt. eigenvalues --    0.98415   0.98451   0.98627   0.98753   0.98980
 Alpha virt. eigenvalues --    0.99098   0.99245   0.99391   0.99396   0.99491
 Alpha virt. eigenvalues --    0.99665   0.99872   0.99997   1.00250   1.00396
 Alpha virt. eigenvalues --    1.00472   1.00585   1.00718   1.00812   1.00876
 Alpha virt. eigenvalues --    1.00968   1.01171   1.01204   1.01328   1.01442
 Alpha virt. eigenvalues --    1.01785   1.01874   1.01890   1.02225   1.02249
 Alpha virt. eigenvalues --    1.02339   1.02483   1.02584   1.02757   1.02774
 Alpha virt. eigenvalues --    1.03153   1.03314   1.03391   1.03477   1.03535
 Alpha virt. eigenvalues --    1.03676   1.03795   1.03885   1.03944   1.04170
 Alpha virt. eigenvalues --    1.04372   1.04445   1.04519   1.04565   1.04720
 Alpha virt. eigenvalues --    1.04915   1.04947   1.05074   1.05135   1.05294
 Alpha virt. eigenvalues --    1.05366   1.05522   1.05572   1.05648   1.05678
 Alpha virt. eigenvalues --    1.05792   1.05835   1.05998   1.06115   1.06202
 Alpha virt. eigenvalues --    1.06236   1.06339   1.06514   1.06649   1.06755
 Alpha virt. eigenvalues --    1.06811   1.06878   1.07016   1.07094   1.07231
 Alpha virt. eigenvalues --    1.07290   1.07330   1.07357   1.07561   1.07635
 Alpha virt. eigenvalues --    1.07727   1.08006   1.08020   1.08070   1.08266
 Alpha virt. eigenvalues --    1.08366   1.08383   1.08448   1.08657   1.08722
 Alpha virt. eigenvalues --    1.08801   1.08903   1.09037   1.09155   1.09265
 Alpha virt. eigenvalues --    1.09372   1.09498   1.09602   1.09643   1.09708
 Alpha virt. eigenvalues --    1.09758   1.09938   1.10119   1.10168   1.10329
 Alpha virt. eigenvalues --    1.10353   1.10471   1.10633   1.10662   1.10736
 Alpha virt. eigenvalues --    1.10825   1.11000   1.11061   1.11131   1.11252
 Alpha virt. eigenvalues --    1.11320   1.11427   1.11574   1.11803   1.11871
 Alpha virt. eigenvalues --    1.11951   1.12218   1.12263   1.12388   1.12482
 Alpha virt. eigenvalues --    1.12736   1.12808   1.13010   1.13091   1.13252
 Alpha virt. eigenvalues --    1.13390   1.13443   1.13543   1.13616   1.13873
 Alpha virt. eigenvalues --    1.13987   1.14124   1.14196   1.14374   1.14620
 Alpha virt. eigenvalues --    1.14648   1.14747   1.14830   1.14873   1.15087
 Alpha virt. eigenvalues --    1.15256   1.15381   1.15425   1.15526   1.15714
 Alpha virt. eigenvalues --    1.15814   1.16043   1.16169   1.16228   1.16422
 Alpha virt. eigenvalues --    1.16624   1.16764   1.16874   1.17012   1.17056
 Alpha virt. eigenvalues --    1.17115   1.17379   1.17431   1.17538   1.17641
 Alpha virt. eigenvalues --    1.17835   1.17842   1.17974   1.18173   1.18320
 Alpha virt. eigenvalues --    1.18621   1.18742   1.18823   1.19058   1.19301
 Alpha virt. eigenvalues --    1.19429   1.19590   1.19678   1.19757   1.19846
 Alpha virt. eigenvalues --    1.20076   1.20180   1.20385   1.20667   1.20745
 Alpha virt. eigenvalues --    1.20972   1.21304   1.21366   1.21531   1.21665
 Alpha virt. eigenvalues --    1.21780   1.22064   1.22218   1.22370   1.22605
 Alpha virt. eigenvalues --    1.22735   1.23045   1.23106   1.23264   1.23688
 Alpha virt. eigenvalues --    1.23784   1.23843   1.24129   1.24175   1.24339
 Alpha virt. eigenvalues --    1.24686   1.24978   1.25082   1.25369   1.25632
 Alpha virt. eigenvalues --    1.25836   1.26217   1.26451   1.26657   1.26745
 Alpha virt. eigenvalues --    1.26886   1.27113   1.27395   1.27759   1.27960
 Alpha virt. eigenvalues --    1.28027   1.28261   1.28350   1.28559   1.28697
 Alpha virt. eigenvalues --    1.29358   1.29436   1.29617   1.29679   1.29905
 Alpha virt. eigenvalues --    1.30439   1.30608   1.30718   1.31077   1.31212
 Alpha virt. eigenvalues --    1.31543   1.31844   1.32042   1.32108   1.32340
 Alpha virt. eigenvalues --    1.32596   1.33034   1.33346   1.33413   1.33960
 Alpha virt. eigenvalues --    1.34019   1.34761   1.34863   1.34940   1.35317
 Alpha virt. eigenvalues --    1.35509   1.35677   1.35855   1.36222   1.36320
 Alpha virt. eigenvalues --    1.36506   1.36863   1.37076   1.37397   1.37662
 Alpha virt. eigenvalues --    1.37762   1.38250   1.38479   1.38557   1.38803
 Alpha virt. eigenvalues --    1.39119   1.39327   1.39508   1.39533   1.40095
 Alpha virt. eigenvalues --    1.40255   1.40547   1.40613   1.40894   1.41075
 Alpha virt. eigenvalues --    1.41478   1.41602   1.41767   1.41982   1.42589
 Alpha virt. eigenvalues --    1.42796   1.43351   1.43659   1.44114   1.44281
 Alpha virt. eigenvalues --    1.44592   1.44798   1.45368   1.45866   1.46219
 Alpha virt. eigenvalues --    1.46566   1.47288   1.47536   1.47795   1.48143
 Alpha virt. eigenvalues --    1.48563   1.49146   1.49174   1.49466   1.49789
 Alpha virt. eigenvalues --    1.50141   1.50464   1.50739   1.51030   1.51767
 Alpha virt. eigenvalues --    1.52113   1.52345   1.52462   1.52756   1.52801
 Alpha virt. eigenvalues --    1.53280   1.53546   1.53784   1.54303   1.54352
 Alpha virt. eigenvalues --    1.54544   1.54904   1.55189   1.55505   1.56321
 Alpha virt. eigenvalues --    1.56661   1.56916   1.57152   1.57355   1.57571
 Alpha virt. eigenvalues --    1.57686   1.57844   1.58133   1.58340   1.58399
 Alpha virt. eigenvalues --    1.58580   1.58700   1.58965   1.59047   1.59333
 Alpha virt. eigenvalues --    1.59534   1.59669   1.59782   1.59879   1.59954
 Alpha virt. eigenvalues --    1.60107   1.60173   1.60276   1.60415   1.60808
 Alpha virt. eigenvalues --    1.60971   1.61359   1.61418   1.61593   1.61725
 Alpha virt. eigenvalues --    1.62109   1.62325   1.62485   1.62572   1.62749
 Alpha virt. eigenvalues --    1.62903   1.62995   1.63227   1.63321   1.63454
 Alpha virt. eigenvalues --    1.63767   1.63902   1.64021   1.64193   1.64488
 Alpha virt. eigenvalues --    1.64694   1.64817   1.64933   1.65345   1.65459
 Alpha virt. eigenvalues --    1.65855   1.65890   1.66193   1.66225   1.66474
 Alpha virt. eigenvalues --    1.66556   1.66860   1.66975   1.67132   1.67263
 Alpha virt. eigenvalues --    1.67483   1.67526   1.67728   1.67842   1.68320
 Alpha virt. eigenvalues --    1.68375   1.68836   1.68938   1.69014   1.69393
 Alpha virt. eigenvalues --    1.69971   1.70351   1.70571   1.70990   1.71215
 Alpha virt. eigenvalues --    1.71717   1.72050   1.72472   1.72670   1.73223
 Alpha virt. eigenvalues --    1.74146   1.74782   1.75076   1.75324   1.75705
 Alpha virt. eigenvalues --    1.76573   1.76828   1.77259   1.78025   1.78198
 Alpha virt. eigenvalues --    1.78339   1.78921   1.79281   1.80020   1.80633
 Alpha virt. eigenvalues --    1.80838   1.81053   1.81444   1.82554   1.82954
 Alpha virt. eigenvalues --    1.83488   1.84148   1.84611   1.84742   1.85020
 Alpha virt. eigenvalues --    1.85185   1.85591   1.85835   1.86057   1.86157
 Alpha virt. eigenvalues --    1.86221   1.86561   1.87089   1.87430   1.87618
 Alpha virt. eigenvalues --    1.87808   1.87837   1.87953   1.88100   1.88360
 Alpha virt. eigenvalues --    1.88671   1.88816   1.88876   1.89014   1.89313
 Alpha virt. eigenvalues --    1.89418   1.89501   1.89919   1.90180   1.90213
 Alpha virt. eigenvalues --    1.90492   1.91007   1.91490   1.91622   1.91679
 Alpha virt. eigenvalues --    1.91855   1.92505   1.92547   1.92696   1.93295
 Alpha virt. eigenvalues --    1.93401   1.94007   1.94129   1.94249   1.94494
 Alpha virt. eigenvalues --    1.94729   1.94870   1.94972   1.95190   1.95604
 Alpha virt. eigenvalues --    1.95957   1.96174   1.96498   1.96613   1.96893
 Alpha virt. eigenvalues --    1.96983   1.97150   1.97189   1.97222   1.97310
 Alpha virt. eigenvalues --    1.97480   1.97535   1.97553   1.97751   1.97802
 Alpha virt. eigenvalues --    1.98094   1.98320   1.98427   1.98476   1.98730
 Alpha virt. eigenvalues --    1.98975   1.99115   1.99234   1.99487   1.99752
 Alpha virt. eigenvalues --    1.99844   1.99984   2.00299   2.00507   2.01268
 Alpha virt. eigenvalues --    2.01314   2.01907   2.01986   2.02188   2.02739
 Alpha virt. eigenvalues --    2.03020   2.03143   2.03585   2.03974   2.04437
 Alpha virt. eigenvalues --    2.04584   2.04896   2.05400   2.05488   2.05763
 Alpha virt. eigenvalues --    2.06013   2.06314   2.06526   2.06691   2.06967
 Alpha virt. eigenvalues --    2.07210   2.07796   2.08023   2.08127   2.08217
 Alpha virt. eigenvalues --    2.08477   2.08639   2.08947   2.09046   2.09199
 Alpha virt. eigenvalues --    2.09521   2.09562   2.09778   2.09803   2.10018
 Alpha virt. eigenvalues --    2.10072   2.10481   2.10676   2.10933   2.10983
 Alpha virt. eigenvalues --    2.11034   2.11086   2.11261   2.11419   2.11449
 Alpha virt. eigenvalues --    2.11494   2.11638   2.11759   2.11810   2.11848
 Alpha virt. eigenvalues --    2.12011   2.12270   2.12438   2.12643   2.12938
 Alpha virt. eigenvalues --    2.12998   2.13136   2.13174   2.13223   2.13553
 Alpha virt. eigenvalues --    2.13639   2.13789   2.13862   2.14039   2.14337
 Alpha virt. eigenvalues --    2.14549   2.14649   2.15130   2.15184   2.15238
 Alpha virt. eigenvalues --    2.15543   2.15568   2.15793   2.16058   2.16374
 Alpha virt. eigenvalues --    2.16519   2.16611   2.16683   2.16739   2.16807
 Alpha virt. eigenvalues --    2.16846   2.17295   2.17414   2.17728   2.17783
 Alpha virt. eigenvalues --    2.17941   2.17998   2.18173   2.18420   2.18521
 Alpha virt. eigenvalues --    2.18763   2.18785   2.18990   2.19132   2.19268
 Alpha virt. eigenvalues --    2.19325   2.19522   2.19747   2.20057   2.20273
 Alpha virt. eigenvalues --    2.20662   2.21088   2.21234   2.21484   2.21504
 Alpha virt. eigenvalues --    2.21606   2.22453   2.22627   2.22697   2.22991
 Alpha virt. eigenvalues --    2.23094   2.23557   2.24191   2.24482   2.24630
 Alpha virt. eigenvalues --    2.24992   2.25334   2.25388   2.25416   2.25684
 Alpha virt. eigenvalues --    2.25944   2.26135   2.26524   2.26565   2.26918
 Alpha virt. eigenvalues --    2.27025   2.27263   2.27347   2.27468   2.28115
 Alpha virt. eigenvalues --    2.28276   2.28425   2.28568   2.28860   2.29283
 Alpha virt. eigenvalues --    2.29337   2.29625   2.29893   2.30259   2.30405
 Alpha virt. eigenvalues --    2.30731   2.30972   2.31036   2.31309   2.31546
 Alpha virt. eigenvalues --    2.31618   2.31757   2.32002   2.32075   2.32377
 Alpha virt. eigenvalues --    2.32587   2.32971   2.32996   2.33298   2.33639
 Alpha virt. eigenvalues --    2.33888   2.34144   2.34698   2.34947   2.35050
 Alpha virt. eigenvalues --    2.35562   2.35795   2.35873   2.36062   2.36196
 Alpha virt. eigenvalues --    2.37126   2.37147   2.37152   2.37543   2.37659
 Alpha virt. eigenvalues --    2.37904   2.38705   2.39217   2.39904   2.39955
 Alpha virt. eigenvalues --    2.40557   2.40765   2.40901   2.40961   2.41021
 Alpha virt. eigenvalues --    2.41296   2.41374   2.41632   2.41686   2.41714
 Alpha virt. eigenvalues --    2.41809   2.41825   2.41997   2.42121   2.42365
[...]
   87 Atom       -0.305604      0.150491      0.155112
   88 Atom       -0.011194      0.000658      0.010536
   89 Atom       -0.303069      0.148821      0.154248
   90 Atom       -0.022363      0.001350      0.021012
   91 Atom       -0.285141      0.142041      0.143100
   92 Atom       -0.031257      0.005406      0.025852
   93 Atom       -0.297309      0.144048      0.153262
   94 Atom       -0.305461      0.149275      0.156185
   95 Atom       -0.305682      0.149638      0.156044
   96 Atom       -0.035304      0.000653      0.034651
   97 Atom       -0.306236      0.150378      0.155858
   98 Atom       -0.298375      0.147433      0.150942
   99 Atom       -0.307082      0.149723      0.157358
  100 Atom       -0.305737      0.150376      0.155361
  101 Atom       -0.303503      0.148020      0.155483
  102 Atom       -0.051347      0.019357      0.031990
  103 Atom       -0.305888      0.150165      0.155723
  104 Atom       -0.025520     -0.012510      0.038031
  105 Atom       -0.292129      0.143821      0.148309
  106 Atom       -0.292898      0.143744      0.149155
  107 Atom       -0.276632      0.098340      0.178292
  108 Atom       -0.231241      0.076391      0.154850
  109 Atom       -0.311894      0.145374      0.166519
  110 Atom       -0.273979      0.109033      0.164947
  111 Atom       -0.312491      0.147012      0.165478
  112 Atom       -0.267956      0.117911      0.150045
  113 Atom       -0.310625      0.147049      0.163576
  114 Atom       -0.316803      0.143602      0.173201
  115 Atom       -0.297417      0.140917      0.156500
  116 Atom       -0.243575      0.082694      0.160881
  117 Atom       -0.312830      0.146311      0.166519
  118 Atom       -0.304078      0.148093      0.155986
  119 Atom       -0.305134      0.149820      0.155314
  120 Atom       -0.011043     -0.001879      0.012922
  121 Atom       -0.302935      0.150448      0.152488
  122 Atom       -0.031487     -0.009163      0.040650
  123 Atom       -0.283612      0.139938      0.143674
  124 Atom       -0.031050      0.006226      0.024824
  125 Atom       -0.306013      0.149801      0.156212
  126 Atom       -0.304761      0.149515      0.155247
  127 Atom       -0.304356      0.149740      0.154616
  128 Atom       -0.024781      0.005562      0.019219
  129 Atom       -0.305282      0.149705      0.155577
  130 Atom       -0.304687      0.149774      0.154913
  131 Atom       -0.302853      0.147916      0.154937
  132 Atom       -0.304502      0.150778      0.153724
  133 Atom       -0.299922      0.149061      0.150861
  134 Atom       -0.033902     -0.003149      0.037051
  135 Atom       -0.306890      0.150772      0.156118
  136 Atom       -0.043352     -0.001701      0.045053
  137 Atom       -0.292850      0.143597      0.149253
  138 Atom       -0.292934      0.142166      0.150769
  139 Atom       -0.256064      0.069463      0.186601
  140 Atom       -0.298800      0.141375      0.157425
  141 Atom       -0.271209      0.131541      0.139668
  142 Atom       -2.279137     -0.551817      2.830955
  143 Atom       -0.209001      0.101869      0.107133
  144 Atom       -0.301974      0.146911      0.155063
  145 Atom       -0.307398      0.147435      0.159962
  146 Atom       -0.305349      0.149016      0.156332
  147 Atom       -0.304027      0.149082      0.154946
  148 Atom       -0.304990      0.150757      0.154234
  149 Atom       -0.013544      0.002760      0.010784
  150 Atom       -0.307745      0.152170      0.155575
  151 Atom       -0.035818      0.005654      0.030164
  152 Atom       -0.293442      0.144082      0.149360
  153 Atom       -0.292198      0.142700      0.149498
  154 Atom       -0.028029      0.000622      0.027406
  155 Atom       -0.284244      0.140991      0.143253
  156 Atom       -0.013820      0.005715      0.008104
  157 Atom       -0.305409      0.149374      0.156035
  158 Atom       -0.306665      0.150457      0.156208
  159 Atom       -0.307130      0.151694      0.155436
  160 Atom       -0.045720      0.015353      0.030367
  161 Atom       -0.305161      0.149107      0.156054
  162 Atom       -0.303504      0.146839      0.156665
  163 Atom       -0.299672      0.145118      0.154554
  164 Atom       -0.304564      0.150113      0.154450
  165 Atom       -0.305849      0.150757      0.155092
  166 Atom       -0.006518     -0.003621      0.010139
  167 Atom       -0.305482      0.149899      0.155583
  168 Atom       -0.028304      0.000786      0.027518
  169 Atom       -0.285314      0.141469      0.143845
  170 Atom       -0.033031     -0.002030      0.035061
  171 Atom       -0.301404      0.146945      0.154460
  172 Atom       -0.298099      0.146262      0.151838
  173 Atom       -0.306185      0.150033      0.156152
  174 Atom       -0.039395      0.001597      0.037798
  175 Atom       -0.307026      0.149892      0.157134
  176 Atom       -0.303157      0.147788      0.155370
  177 Atom       -0.304080      0.148182      0.155898
  178 Atom       -0.306359      0.150967      0.155392
  179 Atom       -0.305291      0.147202      0.158088
  180 Atom       -0.063208      0.018185      0.045023
  181 Atom       -0.303483      0.146295      0.157188
  182 Atom       -0.052468      0.021295      0.031173
  183 Atom       -0.294904      0.143631      0.151273
  184 Atom       -0.291368      0.141781      0.149588
  185 Atom       -0.402288      0.050460      0.351828
  186 Atom       -0.772114     -0.700763      1.472877
  187 Atom       -1.297664      0.433286      0.864378
  188 Atom       -0.285082      0.124484      0.160598
  189 Atom       -0.306485      0.149937      0.156548
  190 Atom       -0.307488      0.151012      0.156476
  191 Atom       -0.036228     -0.001655      0.037884
  192 Atom       -0.306110      0.149756      0.156353
  193 Atom       -0.032760     -0.005625      0.038385
  194 Atom       -0.292357      0.143302      0.149054
  195 Atom       -0.293504      0.142866      0.150638
  196 Atom       -0.210117      0.079337      0.130780
  197 Atom       -0.293438      0.143235      0.150204
  198 Atom       -0.294403      0.141388      0.153015
  199 Atom       -2.272715     -0.511897      2.784612
  200 Atom       -0.250102      0.092135      0.157967
  201 Atom       -0.306995      0.148104      0.158890
  202 Atom       -0.279192      0.133683      0.145508
  203 Atom       -0.300266      0.143956      0.156310
  204 Atom       -0.300762      0.149610      0.151152
  205 Atom       -0.305320      0.149940      0.155380
  206 Atom       -0.013194      0.001019      0.012175
  207 Atom       -0.305629      0.150583      0.155047
  208 Atom       -0.073344      0.027514      0.045830
  209 Atom       -0.303411      0.146881      0.156530
  210 Atom       -0.299011      0.145536      0.153475
  211 Atom       -0.296892      0.145421      0.151471
  212 Atom       -0.303645      0.149797      0.153848
  213 Atom       -0.304745      0.149801      0.154944
  214 Atom       -0.033220      0.010997      0.022223
  215 Atom       -0.305626      0.150526      0.155100
  216 Atom       -0.035559     -0.001407      0.036966
  217 Atom       -0.289899      0.143098      0.146800
  218 Atom       -0.292640      0.142627      0.150013
  219 Atom       -0.080183      0.013826      0.066357
  220 Atom       -0.120647     -0.091960      0.212607
  221 Atom       -0.326016      0.149383      0.176632
  222 Atom       -0.402206     -0.165747      0.567953
  223 Atom       -0.291297      0.120194      0.171102
  224 Atom       -0.151683     -0.078728      0.230411
  225 Atom       -0.204793      0.071535      0.133258
  226 Atom       -0.316318      0.148857      0.167461
  227 Atom       -0.218720      0.083015      0.135705
  228 Atom       -0.314742      0.146654      0.168089
  229 Atom       -0.195259      0.065061      0.130198
  230 Atom       -0.314115      0.145850      0.168265
  231 Atom       -0.226698      0.078669      0.148029
  232 Atom       -0.316216      0.148665      0.167550
  233 Atom       -0.190483      0.076800      0.113682
  234 Atom       -0.306517      0.149672      0.156845
  235 Atom       -0.582813      0.160074      0.422740
  236 Atom       -0.886440     -0.482874      1.369314
  237 Atom       -0.131330      0.019356      0.111974
  238 Atom       -0.566457      0.259391      0.307066
  239 Atom       -0.079292     -0.017876      0.097167
  240 Atom       -0.056686     -0.004956      0.061642
  241 Atom       -0.058756     -0.000269      0.059025
  242 Atom       -0.088741     -0.004461      0.093202
  243 Atom       -0.038035     -0.010374      0.048409
  244 Atom       -0.015292     -0.002133      0.017426
  245 Atom       -0.033472      0.004065      0.029406
  246 Atom       -0.022531     -0.000331      0.022863
  247 Atom       -0.024410      0.005374      0.019037
  248 Atom       -0.031425     -0.011966      0.043391
  249 Atom       -0.034460     -0.005713      0.040173
  250 Atom       -0.050691      0.011914      0.038777
  251 Atom       -0.045145     -0.005360      0.050505
  252 Atom       -0.310636      0.138171      0.172465
  253 Atom       -0.038214      0.006919      0.031295
  254 Atom       -1.582583     -0.125524      1.708107
  255 Atom       -0.299020      0.135382      0.163638
  256 Atom       -0.248691      0.121871      0.126820
  257 Atom       -0.288238      0.140710      0.147528
  258 Atom       -0.292491      0.144277      0.148213
  259 Atom       -0.281553      0.137985      0.143569
  260 Atom       -0.291321      0.141916      0.149405
  261 Atom       -0.293062      0.139556      0.153506
  262 Atom       -0.246409      0.120402      0.126007
  263 Atom       -0.290375      0.142937      0.147438
  264 Atom       -0.291584      0.143930      0.147654
  265 Atom       -0.291520      0.143390      0.148129
  266 Atom       -0.279580      0.139626      0.139955
  267 Atom       -0.278327      0.136796      0.141532
  268 Atom       -0.290468      0.142919      0.147549
  269 Atom       -0.287136      0.141670      0.145466
  270 Atom       -0.292359      0.144467      0.147892
  271 Atom       -0.296746      0.144944      0.151802
  272 Atom       -0.300172      0.148554      0.151617
  273 Atom       -0.297883      0.147211      0.150672
  274 Atom       -0.301537      0.148363      0.153174
  275 Atom       -0.300443      0.148714      0.151729
  276 Atom       -0.264288      0.124359      0.139929
  277 Atom       -0.309963      0.149646      0.160317
  278 Atom       -0.303370      0.146184      0.157186
  279 Atom       -0.307803      0.149658      0.158145
  280 Atom       -0.421514      0.182640      0.238874
  281 Atom       -1.341181     -0.122889      1.464070
  282 Atom       -0.472491      0.214103      0.258388
  283 Atom       -0.264119      0.105831      0.158288
  284 Atom       -1.475460     -0.123839      1.599299
  285 Atom       -0.485946      0.215972      0.269974
  286 Atom       -0.357864      0.150635      0.207228
 -----------------------------------------------------
 Unable to Open any file for archive entry.
 1\1\GINC-EXP-14-49\SP\RwB97XD\6-31G(d)\C96H175N2O11S2(1-)\HKLEM\11-Jul
 -2024\0\\# wb97xd/6-31G(d) prop=efg\\19nt_xstal_distance_cutoff4_xtb_c
 onf_1\\-1,1\H,0,47.2011,33.8555,30.2861\C,0,46.309,34.451,30.471\H,0,4
 6.4656,35.0423,31.3699\C,0,46.0118,35.3621,29.279\H,0,46.8692,36.0176,
 29.1092\H,0,45.87,34.7515,28.3845\C,0,44.7847,36.1964,29.5243\C,0,44.8
 293,37.2643,30.4124\H,0,45.7567,37.5048,30.9123\C,0,43.7101,38.0312,30
 .6648\H,0,43.759,38.8599,31.3554\C,0,42.5057,37.7396,30.031\O,0,41.385
 2,38.4712,30.2453\H,0,41.5956,39.2266,30.8604\C,0,42.4494,36.6692,29.1
 428\H,0,41.5138,36.4398,28.6537\C,0,43.5788,35.9106,28.8997\H,0,43.519
 2,35.0827,28.2064\H,0,45.4726,33.7779,30.6484\H,0,48.5669,38.0924,26.6
 767\C,0,48.106,39.077,26.631\H,0,47.0381,38.948,26.4672\C,0,48.3508,39
 .8481,27.9271\H,0,49.4329,39.9524,28.0711\C,0,47.7381,41.2431,27.8462\
 H,0,46.6649,41.1743,27.6793\H,0,47.9049,41.791,28.7707\H,0,48.1806,41.
 8111,27.0312\C,0,47.7732,39.0846,29.1156\H,0,48.2434,38.1074,29.2087\H
 ,0,47.9374,39.6321,30.0413\H,0,46.7021,38.9419,28.9873\H,0,48.5222,39.
 6136,25.7811\H,0,36.5631,46.4368,33.2916\C,0,37.339,46.524,32.531\H,0,
 37.8767,47.4584,32.6871\C,0,38.3042,45.3456,32.6062\H,0,38.7471,45.300
 9,33.5995\H,0,37.7735,44.4117,32.4153\C,0,39.4407,45.4856,31.5725\O,0,
 40.3157,46.3536,31.7738\O,0,39.4073,44.718,30.586\H,0,36.8619,46.563,3
 1.5525\H,0,40.9019,41.6046,22.8317\C,0,40.793,42.627,23.19\H,0,39.7313
 ,42.8392,23.2918\C,0,41.5044,42.8016,24.5352\H,0,42.566,42.5819,24.410
 3\H,0,41.4082,43.8384,24.865\C,0,40.9323,41.8973,25.5925\C,0,41.5877,4
 0.7397,25.987\H,0,42.5273,40.471,25.5235\C,0,41.0712,39.9252,26.98\H,0
 ,41.6079,39.0364,27.2869\C,0,39.8722,40.2572,27.6011\O,0,39.3352,39.50
 86,28.6002\H,0,40.0133,38.9298,28.9932\C,0,39.1952,41.4044,27.195\H,0,
 38.2709,41.6607,27.6881\C,0,39.7254,42.2092,26.2084\H,0,39.2049,43.112
 2,25.9264\H,0,41.2103,43.3028,22.4456\H,0,42.5555,46.7503,22.4515\C,0,
 43.146,46.945,23.342\H,0,43.1762,48.0129,23.5407\H,0,42.6738,46.4626,2
 4.1999\C,0,44.5615,46.4273,23.2064\O,0,45.4912,46.8535,23.8684\N,0,44.
 7209,45.4548,22.2794\H,0,43.9039,45.0873,21.8178\C,0,45.975,44.783,22.
 003\H,0,46.7328,45.2685,22.6183\C,0,45.8986,43.2846,22.2996\H,0,45.109
 9,42.8472,21.6798\H,0,46.8447,42.8262,22.0036\C,0,45.615,42.9609,23.77
 09\H,0,44.7344,43.5301,24.0882\C,0,45.317,41.471,23.9288\H,0,46.1805,4
 0.8779,23.6329\H,0,45.0859,41.2416,24.9662\H,0,44.4701,41.1735,23.313\
 C,0,46.7856,43.3555,24.664\H,0,46.9622,44.425,24.62\H,0,46.5703,43.096
 2,25.6967\H,0,47.6927,42.8372,24.3577\H,0,46.2332,44.9334,20.9477\H,0,
 51.6185,46.5269,23.55\C,0,51.425,46.229,24.579\H,0,51.6339,47.0746,25.
 2308\C,0,49.9744,45.7801,24.7529\H,0,49.8085,44.8965,24.1238\C,0,49.71
 7,45.4044,26.2087\H,0,49.8672,46.2739,26.8461\H,0,48.6971,45.0533,26.3
 416\H,0,50.3961,44.617,26.5308\C,0,49.0135,46.8814,24.3142\H,0,49.2172
 ,47.1894,23.2901\H,0,47.98,46.5503,24.3712\H,0,49.115,47.747,24.9626\H
 ,0,52.1094,45.4234,24.838\H,0,49.4074,43.2672,37.4657\C,0,50.254,42.79
 2,36.975\H,0,51.0299,42.6085,37.7154\C,0,49.8164,41.481,36.3171\H,0,50
 .6832,41.0162,35.8397\H,0,49.45,40.7999,37.0888\C,0,48.7377,41.7055,35
 .2911\C,0,49.066,42.0598,33.9886\H,0,50.1072,42.1666,33.7133\C,0,48.07
 86,42.2655,33.0411\H,0,48.3505,42.5376,32.031\C,0,46.7455,42.1207,33.3
 848\H,0,45.9713,42.2778,32.648\C,0,46.4036,41.7756,34.6819\H,0,45.3639
 ,41.6692,34.9519\C,0,47.3958,41.5731,35.6256\H,0,47.1259,41.3006,36.63
 69\H,0,50.6411,43.4798,36.2263\H,0,51.4013,45.6331,31.6894\C,0,50.929,
 46.54,31.316\H,0,51.3777,46.7927,30.3574\C,0,49.425,46.3271,31.1576\H,
 0,48.9815,47.2488,30.765\C,0,49.1546,45.2084,30.1562\H,0,49.6256,44.28
 35,30.4844\H,0,48.0855,45.034,30.058\H,0,49.5507,45.4729,29.1793\C,0,4
 8.7844,46.0091,32.5053\H,0,48.9604,46.8141,33.2162\H,0,47.7105,45.878,
 32.3986\H,0,49.1972,45.0902,32.9174\H,0,51.1329,47.344,32.0215\H,0,52.
 3843,50.0266,26.9605\C,0,51.956,50.753,26.273\H,0,52.6444,50.8819,25.4
 406\C,0,50.6009,50.2683,25.7753\H,0,50.1847,50.9895,25.0669\H,0,50.731
 9,49.3221,25.248\C,0,49.5939,50.0786,26.9002\H,0,49.4291,51.0095,27.44
 06\H,0,48.6395,49.7237,26.5102\S,0,50.1501,48.8501,28.1403\C,0,50.5144
 ,49.9461,29.5433\H,0,49.6125,50.4827,29.8273\H,0,50.8351,49.3116,30.36
 21\H,0,51.3062,50.6404,29.2768\H,0,51.8589,51.708,26.788\H,0,50.2882,5
 1.093,33.3985\C,0,49.556,50.794,34.147\H,0,49.3128,51.6672,34.7462\C,0
 ,48.3137,50.2224,33.4732\H,0,47.822,51.0077,32.894\H,0,48.6182,49.4408
 ,32.7726\C,0,47.3025,49.6273,34.4587\H,0,47.8008,48.839,35.0361\C,0,46
 .782,50.6831,35.4296\H,0,46.3573,51.5196,34.879\H,0,46.0038,50.26,36.0
 598\H,0,47.5737,51.0535,36.0766\C,0,46.1417,49.003,33.6888\H,0,46.4999
 ,48.2128,33.0331\H,0,45.4092,48.578,34.3703\H,0,45.6347,49.754,33.0866
 \H,0,50.0153,50.0485,34.7939\H,0,47.2612,46.5724,37.329\C,0,46.185,46.
 409,37.335\H,0,45.703,47.2856,36.9094\C,0,45.8245,45.1678,36.5204\H,0,
 46.3441,44.3026,36.9497\C,0,44.3223,44.9046,36.5665\H,0,43.7833,45.732
 6,36.1104\H,0,44.0812,43.9938,36.0237\H,0,43.9807,44.7929,37.5944\C,0,
 46.2818,45.3376,35.076\H,0,47.3562,45.5006,35.03\H,0,46.0476,44.4487,3
 4.4972\H,0,45.7808,46.1891,34.6222\H,0,45.8591,46.3041,38.3682\H,0,43.
 3575,40.8856,37.748\C,0,42.31,41.173,37.691\H,0,42.2651,42.2417,37.499
 2\C,0,41.6119,40.415,36.5742\H,0,41.6532,39.3361,36.7361\H,0,40.5585,4
 0.6995,36.5129\C,0,42.2088,40.7109,35.2127\O,0,43.0476,41.5547,35.0059
 \O,0,41.693,39.9337,34.2852\H,0,41.9432,40.2233,33.3586\H,0,41.8364,40
 .9662,38.6481\H,0,35.7528,38.5864,34.8261\C,0,36.781,38.93,34.736\H,0,
 37.4036,38.3516,35.4154\C,0,37.2779,38.7796,33.3016\H,0,37.2726,37.722
 2,33.0211\H,0,36.6013,39.305,32.6239\C,0,38.6913,39.3193,33.1199\H,0,3
 9.3434,38.9755,33.9218\H,0,39.1117,39.0059,32.1649\S,0,38.7908,41.1436
 ,33.1613\C,0,38.4731,41.5305,31.4185\H,0,37.4143,41.4135,31.2016\H,0,3
 8.7753,42.5616,31.2492\H,0,39.0606,40.8636,30.7946\H,0,36.8292,39.9756
 ,35.0321\H,0,39.0995,45.0972,35.7025\C,0,39.969,44.538,36.041\H,0,39.6
 164,43.6989,36.6387\C,0,40.7987,44.0411,34.8669\H,0,41.0691,44.8596,34
 .2046\H,0,41.7126,43.5712,35.2196\H,0,40.2397,43.3096,34.2874\H,0,40.5
 582,45.1856,36.6898\H,0,41.477,49.9541,37.8895\C,0,42.545,50.103,37.74
 3\H,0,43.0292,50.1368,38.7173\C,0,43.1285,48.9673,36.8983\H,0,44.2082,
 49.1299,36.8098\H,0,42.9781,48.0199,37.422\C,0,42.543,48.8541,35.524\C
 ,0,41.8176,47.8038,35.0267\H,0,41.4933,46.9176,35.5368\N,0,41.5151,47.
 9946,33.7121\H,0,40.9962,47.3581,33.097\C,0,42.0521,49.1788,33.3198\C,
 0,42.0441,49.794,32.0735\H,0,41.5524,49.3216,31.2367\C,0,42.6786,51.00
 99,31.9521\H,0,42.6958,51.5147,30.996\C,0,43.3029,51.6125,33.0494\H,0,
 43.782,52.5736,32.9149\C,0,43.32,51.0091,34.2862\H,0,43.8072,51.4873,3
 5.1237\C,0,42.7019,49.7674,34.4382\H,0,42.6886,51.06,37.2479\C,0,42.30
 37,41.6528,31.1698\O,0,42.1031,40.5722,31.7531\C,0,42.7559,42.8357,31.
 8241\C,0,43.0579,43.9723,31.1494\C,0,43.1284,44.0247,29.6574\C,0,43.11
 07,42.6248,29.045\C,0,42.0279,41.7861,29.7035\C,0,43.245,45.2538,31.87
 26\C,0,44.37,46.1287,31.3219\C,0,44.2753,46.2572,29.8037\C,0,44.3377,4
 4.8537,29.1782\C,0,45.4117,47.0943,29.2302\C,0,45.332,47.2176,27.7018\
 C,0,45.4764,45.8222,27.1063\C,0,44.3867,44.8948,27.6447\C,0,45.5843,48
 .5402,29.6963\C,0,46.4581,49.1737,28.5967\C,0,46.531,48.1513,27.4414\C
 ,0,44.0571,47.8896,27.1907\O,0,46.5341,48.8141,26.1973\H,0,42.7913,42.
 8156,32.905\H,0,42.2233,44.5517,29.3217\H,0,44.0846,42.1442,29.1884\H,
 0,42.905,42.679,27.9764\H,0,41.0641,42.2937,29.5932\H,0,41.9556,40.805
 7,29.2336\H,0,43.388,45.0768,32.9399\H,0,42.2891,45.7895,31.7539\H,0,4
 5.3353,45.6872,31.5892\H,0,44.3134,47.1146,31.7858\H,0,43.3175,46.7186
 ,29.5572\H,0,45.2561,44.367,29.535\H,0,46.35,46.5703,29.4554\H,0,46.45
 85,45.4213,27.3755\H,0,45.4148,45.8633,26.0182\H,0,43.416,45.2057,27.2
 61\H,0,44.5813,43.8907,27.2641\H,0,46.066,48.599,30.6707\H,0,44.6175,4
 9.0367,29.7763\H,0,47.4565,49.3947,28.9684\H,0,46.03,50.1003,28.2157\H
 ,0,47.4593,47.5615,27.5336\H,0,43.9667,48.899,27.5793\H,0,44.0967,47.9
 486,26.1056\H,0,43.1701,47.3293,27.462\H,0,46.291,48.1753,25.5119\O,0,
 40.7727,45.9324,28.7375\H,0,40.9397,46.7271,29.251\H,0,40.2217,45.3768
 ,29.3711\O,0,41.0996,45.8446,26.0131\H,0,40.2112,46.1018,25.761\H,0,41
 .0712,45.8089,26.99\\Version=ES64L-G16RevC.01\State=1-A\HF=-5495.93995
 34\RMSD=3.560e-09\Dipole=3.3890988,-1.2844224,-2.275045\Quadrupole=-15
 .8333781,-12.9959042,28.8292823,-18.1106827,21.0883133,-6.5223031\PG=C
 01 [X(C96H175N2O11S2)]\\@
 The archive entry for this job was punched.


 Discoveries are often made by not following instructions,
 by going off the main road, by trying the untried.
 -- Frank Tyger
 Job cpu time:       0 days  4 hours  2 minutes 31.8 seconds.
 Elapsed time:       0 days  0 hours  7 minutes 53.0 seconds.
 File lengths (MBytes):  RWF=   2199 Int=      0 D2E=      0 Chk=    236 Scr=      1
 Normal termination of Gaussian 16 at Thu Jul 11 11:59:16 2024.
