 Entering Gaussian System, Link 0=g16
 Initial command:
 /cm/shared/apps/spack/cpu/opt/spack/linux-centos8-zen/gcc-8.3.1/gaussian-16.C.01-po5bqktfeugvmjyga3v7eigbecnokxng/g16/l1.exe "/scratch/hklem/job_32994860/Gau-850240.inp" -scrdir="/scratch/hklem/job_32994860/"
 Entering Link 1 = /cm/shared/apps/spack/cpu/opt/spack/linux-centos8-zen/gcc-8.3.1/gaussian-16.C.01-po5bqktfeugvmjyga3v7eigbecnokxng/g16/l1.exe PID=    850241.
  
 Copyright (c) 1988-2019, Gaussian, Inc.  All Rights Reserved.
  
 This is part of the Gaussian(R) 16 program.  It is based on
 the Gaussian(R) 09 system (copyright 2009, Gaussian, Inc.),
 the Gaussian(R) 03 system (copyright 2003, Gaussian, Inc.),
 the Gaussian(R) 98 system (copyright 1998, Gaussian, Inc.),
 the Gaussian(R) 94 system (copyright 1995, Gaussian, Inc.),
 the Gaussian 92(TM) system (copyright 1992, Gaussian, Inc.),
 the Gaussian 90(TM) system (copyright 1990, Gaussian, Inc.),
 the Gaussian 88(TM) system (copyright 1988, Gaussian, Inc.),
 the Gaussian 86(TM) system (copyright 1986, Carnegie Mellon
 University), and the Gaussian 82(TM) system (copyright 1983,
 Carnegie Mellon University). Gaussian is a federally registered
 trademark of Gaussian, Inc.
  
 This software contains proprietary and confidential information,
 including trade secrets, belonging to Gaussian, Inc.
  
 This software is provided under written license and may be
 used, copied, transmitted, or stored only in accord with that
 written license.
  
 The following legend is applicable only to US Government
 contracts under FAR:
  
                    RESTRICTED RIGHTS LEGEND
  
 Use, reproduction and disclosure by the US Government is
 subject to restrictions as set forth in subparagraphs (a)
 and (c) of the Commercial Computer Software - Restricted
 Rights clause in FAR 52.227-19.
  
 Gaussian, Inc.
 340 Quinnipiac St., Bldg. 40, Wallingford CT 06492
  
  
 ---------------------------------------------------------------
 Warning -- This program may not be used in any manner that
 competes with the business of Gaussian, Inc. or will provide
 assistance to any competitor of Gaussian, Inc.  The licensee
 of this program is prohibited from giving any competitor of
 Gaussian, Inc. access to this program.  By using this program,
 the user acknowledges that Gaussian, Inc. is engaged in the
 business of creating and licensing software in the field of
 computational chemistry and represents and warrants to the
 licensee that it is not a competitor of Gaussian, Inc. and that
 it will not use this program in any manner prohibited above.
 ---------------------------------------------------------------
  

 Cite this work as:
 Gaussian 16, Revision C.01,
 M. J. Frisch, G. W. Trucks, H. B. Schlegel, G. E. Scuseria, 
 M. A. Robb, J. R. Cheeseman, G. Scalmani, V. Barone, 
 G. A. Petersson, H. Nakatsuji, X. Li, M. Caricato, A. V. Marenich, 
 J. Bloino, B. G. Janesko, R. Gomperts, B. Mennucci, H. P. Hratchian, 
 J. V. Ortiz, A. F. Izmaylov, J. L. Sonnenberg, D. Williams-Young, 
 F. Ding, F. Lipparini, F. Egidi, J. Goings, B. Peng, A. Petrone, 
 T. Henderson, D. Ranasinghe, V. G. Zakrzewski, J. Gao, N. Rega, 
 G. Zheng, W. Liang, M. Hada, M. Ehara, K. Toyota, R. Fukuda, 
 J. Hasegawa, M. Ishida, T. Nakajima, Y. Honda, O. Kitao, H. Nakai, 
 T. Vreven, K. Throssell, J. A. Montgomery, Jr., J. E. Peralta, 
 F. Ogliaro, M. J. Bearpark, J. J. Heyd, E. N. Brothers, K. N. Kudin, 
 V. N. Staroverov, T. A. Keith, R. Kobayashi, J. Normand, 
 K. Raghavachari, A. P. Rendell, J. C. Burant, S. S. Iyengar, 
 J. Tomasi, M. Cossi, J. M. Millam, M. Klene, C. Adamo, R. Cammi, 
 J. W. Ochterski, R. L. Martin, K. Morokuma, O. Farkas, 
 J. B. Foresman, and D. J. Fox, Gaussian, Inc., Wallingford CT, 2019.
 
 ******************************************
 Gaussian 16:  ES64L-G16RevC.01  3-Jul-2019
                12-Aug-2024 
 ******************************************
 %nprocshared=24
 Will use up to   24 processors via shared memory.
 %mem=48GB
 --------------------------
 # wb97xd 6-31G(d) prop=efg
 --------------------------
 1/38=1,172=1/1;
 2/12=2,17=6,18=5,40=1/2;
 3/5=1,6=6,7=1,11=2,25=1,30=1,74=-58/1,2,3;
 4//1;
 5/5=2,38=5/2;
 6/7=2,8=2,9=2,10=2,14=1,28=1/1,2;
 99/5=1,9=1/99;
 -----------------------------------------
 19nt_xstal_distance_cutoff5_ligand_conf_1
 -----------------------------------------
 Symbolic Z-matrix:
 Charge =  0 Multiplicity = 1
 C                    -2.0234    0.1414    0.0645 
 O                    -3.1212   -0.2658   -0.3299 
 C                    -0.9539   -0.7685    0.4151 
 C                     0.2793   -0.3391    0.7632 
 C                     0.6251    1.1338    0.8296 
 C                    -0.3382    1.9959    0.0089 
 C                    -1.7947    1.6167    0.2094 
 C                     1.3144   -1.3302    1.2053 
 C                     2.7376   -0.9589    0.7953 
 C                     3.0518    0.4805    1.1947 
 C                     2.0895    1.4213    0.4388 
 C                     4.4895    0.8982    0.9186 
 C                     4.7607    2.3581    1.3268 
 C                     3.8851    3.2763    0.4745 
 C                     2.4023    2.9188    0.6121 
 C                     5.6442    0.1146    1.5623 
 C                     6.8394    1.1087    1.5284 
 C                     6.2623    2.4472    1.0158 
 C                     4.5283    2.6148    2.825 
 O                     6.9435    3.5547    1.5857 
 H                    -1.1989   -1.8279    0.4058 
 H                     0.5188    1.402     1.8955 
 H                    -0.0804    1.8973   -1.0565 
 H                    -0.2095    3.0505    0.2646 
 H                    -2.1406    1.8816    1.2181 
 H                    -2.4543    2.1429   -0.485 
 H                     1.0497   -2.3303    0.8458 
 H                     1.2535   -1.3835    2.3024 
 H                     2.8575   -1.0664   -0.2914 
 H                     3.4409   -1.6573    1.2602 
 H                     2.8583    0.5697    2.2742 
 H                     2.206     1.1859   -0.6325 
 H                     4.632     0.8508   -0.1751 
 H                     4.1873    3.1755   -0.5772 
 H                     4.0323    4.3303    0.746 
 H                     2.0173    3.2404    1.5881 
 H                     1.8416    3.4974   -0.1298 
 H                     5.8558   -0.8213    1.0383 
 H                     5.3894   -0.1587    2.5932 
 H                     7.6503    0.7553    0.8839 
 H                     7.2668    1.2674    2.5233 
 H                     6.3658    2.4859   -0.0801 
 H                     5.207     2.0318    3.4543 
 H                     4.6944    3.6724    3.0492 
 H                     3.5113    2.3641    3.1361 
 H                     6.3225    4.295     1.6414 
 
                          Input orientation:                          
 ---------------------------------------------------------------------
 Center     Atomic      Atomic             Coordinates (Angstroms)
 Number     Number       Type             X           Y           Z
 ---------------------------------------------------------------------
      1          6           0       -2.023400    0.141400    0.064500
      2          8           0       -3.121200   -0.265800   -0.329900
      3          6           0       -0.953900   -0.768500    0.415100
      4          6           0        0.279300   -0.339100    0.763200
      5          6           0        0.625100    1.133800    0.829600
      6          6           0       -0.338200    1.995900    0.008900
      7          6           0       -1.794700    1.616700    0.209400
      8          6           0        1.314400   -1.330200    1.205300
      9          6           0        2.737600   -0.958900    0.795300
     10          6           0        3.051800    0.480500    1.194700
     11          6           0        2.089500    1.421300    0.438800
     12          6           0        4.489500    0.898200    0.918600
     13          6           0        4.760700    2.358100    1.326800
     14          6           0        3.885100    3.276300    0.474500
     15          6           0        2.402300    2.918800    0.612100
     16          6           0        5.644200    0.114600    1.562300
     17          6           0        6.839400    1.108700    1.528400
     18          6           0        6.262300    2.447200    1.015800
     19          6           0        4.528300    2.614800    2.825000
     20          8           0        6.943500    3.554700    1.585700
     21          1           0       -1.198900   -1.827900    0.405800
     22          1           0        0.518800    1.402000    1.895500
     23          1           0       -0.080400    1.897300   -1.056500
     24          1           0       -0.209500    3.050500    0.264600
     25          1           0       -2.140600    1.881600    1.218100
     26          1           0       -2.454300    2.142900   -0.485000
     27          1           0        1.049700   -2.330300    0.845800
     28          1           0        1.253500   -1.383500    2.302400
     29          1           0        2.857500   -1.066400   -0.291400
     30          1           0        3.440900   -1.657300    1.260200
     31          1           0        2.858300    0.569700    2.274200
     32          1           0        2.206000    1.185900   -0.632500
     33          1           0        4.632000    0.850800   -0.175100
     34          1           0        4.187300    3.175500   -0.577200
     35          1           0        4.032300    4.330300    0.746000
     36          1           0        2.017300    3.240400    1.588100
     37          1           0        1.841600    3.497400   -0.129800
     38          1           0        5.855800   -0.821300    1.038300
     39          1           0        5.389400   -0.158700    2.593200
     40          1           0        7.650300    0.755300    0.883900
     41          1           0        7.266800    1.267400    2.523300
     42          1           0        6.365800    2.485900   -0.080100
     43          1           0        5.207000    2.031800    3.454300
     44          1           0        4.694400    3.672400    3.049200
     45          1           0        3.511300    2.364100    3.136100
     46          1           0        6.322500    4.295000    1.641400
 ---------------------------------------------------------------------
                    Distance matrix (angstroms):
                    1          2          3          4          5
     1  C    0.000000
     2  O    1.235527   0.000000
     3  C    1.447297   2.346257   0.000000
     4  C    2.453872   3.572624   1.351422   0.000000
     5  C    2.929981   4.163903   2.506750   1.514405   0.000000
     6  C    2.506424   3.602105   2.861117   2.530316   1.531245
     7  C    1.499937   2.365217   2.537407   2.904019   2.544263
     8  C    3.822033   4.812934   2.466801   1.499721   2.586036
     9  C    4.940835   6.005997   3.715909   2.535433   2.973756
    10  C    5.210566   6.402132   4.267717   2.923131   2.539483
    11  C    4.323678   5.530696   3.749409   2.545794   1.542676
    12  C    6.612118   7.799769   5.715068   4.390996   3.872598
    13  C    7.247839   8.470765   6.577498   5.260749   4.341579
    14  C    6.701199   7.891880   6.307127   5.114319   3.917142
    15  C    5.253631   6.445005   4.989897   3.891513   2.528235
    16  C    7.812568   8.975375   6.755062   5.443028   5.173682
    17  C    9.034816  10.225267   8.093135   6.761403   6.253517
    18  C    8.653006   9.860089   7.923074   6.604814   5.791176
    19  C    7.527472   8.761627   6.878143   5.570507   4.627089
    20  O    9.714420  10.934529   9.079058   7.762071   6.808423
    21  H    2.162043   2.583921   1.087401   2.128224   3.504033
    22  H    3.377048   4.580782   3.011893   2.090668   1.104253
    23  H    2.848697   3.801765   3.167822   2.905542   2.153610
    24  H    3.434114   4.453007   3.893783   3.460768   2.165530
    25  H    2.091130   2.822978   3.012656   3.315774   2.891234
    26  H    2.119818   2.504126   3.396709   3.897550   3.497022
    27  H    4.020407   4.800087   2.576652   2.136637   3.490063
    28  H    4.251069   5.226496   2.968626   2.099756   2.983425
    29  H    5.040697   6.032188   3.887757   2.878934   3.328833
    30  H    5.875678   6.893899   4.562721   3.461268   3.988030
    31  H    5.375613   6.575243   4.447460   3.124145   2.718871
    32  H    4.411872   5.529743   3.860326   2.825912   2.153995
    33  H    6.697388   7.834722   5.845746   4.608933   4.140623
    34  H    6.941926   8.081947   6.555283   5.424163   4.340149
    35  H    7.394784   8.570546   7.139289   5.990710   4.672645
    36  H    5.315300   6.509712   5.125938   4.063733   2.636533
    37  H    5.122374   6.231460   5.129292   4.237566   2.826115
    38  H    7.997304   9.097641   6.838361   5.604065   5.588040
    39  H    7.837984   8.999239   6.734496   5.430890   5.242079
    40  H    9.727732  10.887661   8.750657   7.452779   7.035598
    41  H    9.675815  10.881268   8.727503   7.382679   6.855556
    42  H    8.711846   9.881165   8.025855   6.762933   5.967526
    43  H    8.206281   9.431758   7.418565   6.094704   5.356236
    44  H    8.155074   9.381436   7.652671   6.388352   5.284914
    45  H    6.708802   7.932187   6.095493   4.835677   3.894064
    46  H    9.454790  10.671007   8.949237   7.665924   6.566016
                    6          7          8          9         10
     6  C    0.000000
     7  C    1.518349   0.000000
     8  C    3.901974   4.398015   0.000000
     9  C    4.337028   5.245830   1.526913   0.000000
    10  C    3.898033   5.074478   2.509443   1.526471   0.000000
    11  C    2.531542   3.895872   2.959570   2.492484   1.543538
    12  C    5.033804   6.364776   3.889630   2.556008   1.522395
    13  C    5.278904   6.691153   5.049287   3.921468   2.542277
    14  C    4.437620   5.923232   5.325637   4.399612   3.004925
    15  C    2.953969   4.412759   4.425993   3.896479   2.589707
    16  C    6.460762   7.708688   4.578435   3.192024   2.643776
    17  C    7.390125   8.749029   6.047996   4.651577   3.853817
    18  C    6.692094   8.139733   6.227871   4.906490   3.769247
    19  C    5.656525   6.915049   5.340001   4.483037   3.064827
    20  O    7.611788   9.055727   7.462822   6.219880   4.974828
    21  H    3.939515   3.501260   2.683949   4.050050   4.900972
    22  H    2.155557   2.870768   2.928186   3.421602   2.785026
    23  H    1.100573   2.149433   4.180665   4.419068   4.109246
    24  H    1.092761   2.138151   4.732623   5.004231   4.255122
    25  H    2.173448   1.098770   4.717292   5.660745   5.378164
    26  H    2.177941   1.092772   5.396539   6.181922   5.991836
    27  H    4.619813   4.906570   1.095220   2.175384   3.468535
    28  H    4.383377   4.761656   1.100081   2.157357   2.816980
    29  H    4.436255   5.393773   2.165839   1.098567   2.153868
    30  H    5.403075   6.263766   2.152211   1.094772   2.173908
    31  H    4.169322   5.197116   2.671291   2.130336   1.100327
    32  H    2.745988   4.110959   3.240867   2.630851   2.133454
    33  H    5.103724   6.483588   4.203419   2.793822   2.123795
    34  H    4.713292   6.231607   5.633134   4.591149   3.419359
    35  H    5.009392   6.450232   6.295967   5.445578   3.997958
    36  H    3.096939   4.366756   4.640150   4.333761   2.973550
    37  H    2.650522   4.107891   5.036482   4.638667   3.510067
    38  H    6.881999   8.072241   4.572875   3.130679   3.095410
    39  H    6.642764   7.774692   4.461424   3.302243   2.797991
    40  H    8.131473   9.508154   6.678041   5.203936   4.617176
    41  H    8.042944   9.358789   6.626893   5.334421   4.488944
    42  H    6.722473   8.211765   6.459993   5.079056   4.077909
    43  H    6.528500   7.728227   5.613678   4.702393   3.486719
    44  H    6.114012   7.375553   6.312715   5.509816   4.040486
    45  H    4.973289   6.105556   4.711922   4.137667   2.743743
    46  H    7.232969   8.666767   7.544145   6.416452   5.044545
                   11         12         13         14         15
    11  C    0.000000
    12  C    2.502767   0.000000
    13  C    2.966723   1.539963   0.000000
    14  C    2.581953   2.493568   1.528457   0.000000
    15  C    1.539605   2.921159   2.527297   1.531482   0.000000
    16  C    3.950394   1.536786   2.422669   3.778106   4.390482
    17  C    4.883288   2.436841   2.433647   3.812753   4.878927
    18  C    4.335627   2.356198   1.536054   2.575168   3.909601
    19  C    3.614711   2.565654   1.537696   2.525102   3.083702
    20  O    5.424766   3.677517   2.502698   3.265897   4.687725
    21  H    4.622982   6.328703   7.340822   7.204487   5.961742
    22  H    2.142299   4.120025   4.385346   4.106607   2.737767
    23  H    2.677866   5.077717   5.415598   4.468869   3.160931
    24  H    2.823126   5.209675   5.129383   4.106190   2.638105
    25  H    4.325844   6.709322   6.918584   6.229542   4.699038
    26  H    4.692572   7.192755   7.442120   6.511008   5.039069
    27  H    3.914248   4.718128   5.998665   6.293752   5.425605
    28  H    3.469698   4.194372   5.220327   5.655110   4.763050
    29  H    2.704009   2.826159   4.238861   4.527870   4.111610
    30  H    3.461034   2.783313   4.227262   5.015481   4.737026
    31  H    2.164479   2.146247   2.777601   3.408654   2.913552
    32  H    1.103027   2.775438   3.426281   2.900793   2.142546
    33  H    2.677060   1.103962   2.131718   2.619712   3.141317
    34  H    2.917231   2.741320   2.149918   1.098890   2.160221
    35  H    3.511570   3.466718   2.181162   1.098315   2.160361
    36  H    2.152958   3.470721   2.893609   2.174873   1.097373
    37  H    2.166784   3.855692   3.455551   2.142418   1.095253
    38  H    4.424214   2.199496   3.375065   4.581687   5.108489
    39  H    4.245843   2.175119   2.886748   4.307091   4.724249
    40  H    5.618200   3.164219   3.333904   4.549701   5.682967
    41  H    5.583302   3.228741   2.983584   4.434992   5.481165
    42  H    4.437271   2.653054   2.138234   2.661989   4.046712
    43  H    4.380041   2.868733   2.198161   3.489328   4.090380
    44  H    4.320549   3.503944   2.167589   2.727809   3.429445
    45  H    3.191522   2.832498   2.198773   2.838301   2.812143
    46  H    5.255729   3.926905   2.507942   2.887962   4.280345
                   16         17         18         19         20
    16  C    0.000000
    17  C    1.554956   0.000000
    18  C    2.474214   1.545117   0.000000
    19  C    3.015070   3.048064   2.511583   0.000000
    20  O    3.677365   2.448885   1.419639   2.872711   0.000000
    21  H    7.206859   8.631229   8.620794   7.641396   9.831746
    22  H    5.295106   6.338042   5.903737   4.290798   6.782836
    23  H    6.542719   7.428811   6.695272   6.068028   7.685269
    24  H    6.676027   7.419890   6.543124   5.402984   7.291429
    25  H    7.990236   9.018540   8.424343   6.898836   9.244202
    26  H    8.595996   9.565365   8.850091   7.741802   9.726234
    27  H    5.253602   6.768552   7.072807   6.361753   8.361672
    28  H    4.697904   6.165421   6.435657   5.194596   7.568063
    29  H    3.549178   4.888585   5.064269   5.104386   6.447749
    30  H    2.843488   4.390044   4.986677   4.677807   6.288012
    31  H    2.911212   4.086061   4.086049   2.697168   5.106184
    32  H    4.217351   5.113105   4.556461   4.403310   5.742432
    33  H    2.141284   2.800186   2.573833   3.481817   3.969197
    34  H    4.008632   3.967222   2.715455   3.464914   3.523999
    35  H    4.586578   4.344038   2.931170   2.740656   3.127577
    36  H    4.788078   5.272604   4.356228   2.868173   4.936217
    37  H    5.363423   5.782173   4.685927   4.090010   5.382900
    38  H    1.093279   2.220938   3.293758   4.094061   4.542259
    39  H    1.096527   2.200591   3.168732   2.913336   4.149653
    40  H    2.212501   1.094454   2.192366   4.119769   2.971318
    41  H    2.210271   1.094387   2.161829   3.066903   2.493062
    42  H    2.973424   2.169850   1.101457   3.439859   2.061786
    43  H    2.728821   2.688110   2.689330   1.093865   2.970913
    44  H    3.971263   3.672386   2.845020   1.093788   2.685914
    45  H    3.476544   3.903457   3.474274   1.092668   3.949844
    46  H    4.235811   3.229932   1.951759   2.728211   0.967878
                   21         22         23         24         25
    21  H    0.000000
    22  H    3.949931   0.000000
    23  H    4.155295   3.052649   0.000000
    24  H    4.979723   2.430598   1.758364   0.000000
    25  H    3.912419   2.785910   3.068954   2.450436   0.000000
    26  H    4.258733   3.880082   2.454044   2.534712   1.751352
    27  H    2.345679   3.913284   4.771632   5.556652   5.296860
    28  H    3.131908   2.909358   4.881101   5.094443   4.832856
    29  H    4.185732   4.042901   4.242659   5.163767   5.995857
    30  H    4.720895   4.278036   5.513786   6.039869   6.608988
    31  H    5.069544   2.511851   4.635951   4.427670   5.274982
    32  H    4.664161   3.046987   2.431767   3.180591   4.775107
    33  H    6.443002   4.637846   4.907009   5.335929   6.990827
    34  H    7.416970   4.766282   4.480713   4.478404   6.703700
    35  H    8.087312   4.716034   5.107132   4.456737   6.657605
    36  H    6.117960   2.391592   3.632929   2.597374   4.389917
    37  H    6.155512   3.200366   2.667054   2.135950   4.503949
    38  H    7.154166   5.844777   6.856927   7.237217   8.442773
    39  H    7.139793   5.161910   6.889569   6.860687   7.921782
    40  H    9.230918   7.231863   8.051897   8.211451   9.861134
    41  H    9.259199   6.778477   8.197139   8.011007   9.517351
    42  H    8.721792   6.266198   6.546243   6.608492   8.626085
    43  H    8.076273   4.980535   6.951403   6.367920   7.681821
    44  H    8.483622   4.890948   6.542665   5.673534   7.299118
    45  H    6.871200   3.379317   5.540407   4.749843   5.987947
    46  H    9.776915   6.489757   7.350154   6.790536   8.810661
                   26         27         28         29         30
    26  H    0.000000
    27  H    5.835971   0.000000
    28  H    5.826910   1.749185   0.000000
    29  H    6.209050   2.481695   3.066132   0.000000
    30  H    7.227768   2.518431   2.438415   1.759824   0.000000
    31  H    6.189658   3.704235   2.528076   3.042881   2.515382
    32  H    4.759832   3.985732   4.015310   2.369316   3.631952
    33  H    7.209799   4.898419   4.748091   2.614963   3.125599
    34  H    6.722025   6.494867   6.138710   4.454634   5.223898
    35  H    6.955290   7.298593   6.541530   5.619673   6.038668
    36  H    5.049501   5.702627   4.740682   4.773571   5.110931
    37  H    4.518362   5.961626   5.484947   4.678294   5.573221
    38  H    8.953473   5.041104   4.805745   3.289070   2.565127
    39  H    8.734776   5.157737   4.323236   3.944028   2.796309
    40  H   10.290882   7.286309   6.892435   5.260309   4.866342
    41  H   10.213528   7.376299   6.575397   5.728096   4.978635
    42  H    8.836049   7.232841   6.839896   4.997164   5.245717
    43  H    8.615448   6.566227   5.349889   5.399006   4.641405
    44  H    8.119966   7.360110   6.161139   6.081943   5.759990
    45  H    6.982097   5.774283   4.453900   4.893214   4.437974
    46  H    9.283605   8.504705   7.640487   6.669824   6.624108
                   31         32         33         34         35
    31  H    0.000000
    32  H    3.042056   0.000000
    33  H    3.037120   2.491382   0.000000
    34  H    4.084962   2.808401   2.400765   0.000000
    35  H    4.225610   3.888815   3.648970   1.763079   0.000000
    36  H    2.882820   3.031112   3.956731   3.066209   2.440746
    37  H    3.922285   2.393434   3.846151   2.409584   2.501982
    38  H    3.528078   4.487924   2.401238   4.622569   5.472620
    39  H    2.653073   4.727275   3.042405   4.755352   5.040336
    40  H    4.993060   5.667917   3.200115   4.470408   5.088179
    41  H    4.470314   5.964680   3.794350   4.768361   4.796055
    42  H    4.638654   4.393072   2.385087   2.338486   3.086985
    43  H    3.007784   5.140378   3.859784   4.312868   3.741378
    44  H    3.687633   5.092124   4.285024   3.695245   2.485144
    45  H    2.095030   4.158643   3.809211   3.860563   3.138465
    46  H    5.126303   5.637614   4.244994   3.276362   2.459269
                   36         37         38         39         40
    36  H    0.000000
    37  H    1.745881   0.000000
    38  H    5.615494   6.010776   0.000000
    39  H    4.892358   5.776563   1.753363   0.000000
    40  H    6.196960   6.502899   2.393687   2.978048   0.000000
    41  H    5.685471   6.437751   2.925545   2.358660   1.759816
    42  H    4.718221   4.636161   3.528242   3.885074   2.360977
    43  H    3.888136   5.130270   3.794493   2.360732   3.769101
    44  H    3.080309   4.274943   5.058252   3.920241   4.683518
    45  H    2.322981   3.839058   4.477077   3.191633   4.979153
    46  H    4.432806   4.883828   5.172820   4.648875   3.855689
                   41         42         43         44         45
    41  H    0.000000
    42  H    3.012347   0.000000
    43  H    2.386178   3.747133   0.000000
    44  H    3.560595   3.740839   1.765909   0.000000
    45  H    3.960057   4.301970   1.757007   1.766048   0.000000
    46  H    3.291779   2.497655   3.106931   2.240589   3.723620
                   46
    46  H    0.000000
 Stoichiometry    C18H26O2
 Framework group  C1[X(C18H26O2)]
 Deg. of freedom   132
 Full point group                 C1      NOp   1
 Largest Abelian subgroup         C1      NOp   1
 Largest concise Abelian subgroup C1      NOp   1
                         Standard orientation:                         
 ---------------------------------------------------------------------
 Center     Atomic      Atomic             Coordinates (Angstroms)
 Number     Number       Type             X           Y           Z
 ---------------------------------------------------------------------
      1          6           0        4.682037   -0.161751   -0.024809
      2          8           0        5.897468   -0.074798   -0.228997
      3          6           0        3.834488    1.009535    0.041661
      4          6           0        2.492278    0.927336    0.176032
      5          6           0        1.778690   -0.403854    0.286238
      6          6           0        2.616570   -1.561279   -0.264249
      7          6           0        4.066127   -1.513206    0.185039
      8          6           0        1.682608    2.179982    0.332474
      9          6           0        0.302151    2.106229   -0.315879
     10          6           0       -0.429090    0.840426    0.123602
     11          6           0        0.376966   -0.384782   -0.357700
     12          6           0       -1.857721    0.741614   -0.393055
     13          6           0       -2.554679   -0.552986    0.064923
     14          6           0       -1.809207   -1.747764   -0.529181
     15          6           0       -0.329471   -1.734444   -0.134670
     16          6           0       -2.867907    1.846750   -0.046779
     17          6           0       -4.252408    1.164571   -0.235658
     18          6           0       -3.955073   -0.324136   -0.523283
     19          6           0       -2.651322   -0.672906    1.594887
     20          8           0       -4.980647   -1.162939   -0.013398
     21          1           0        4.337706    1.972560   -0.000709
     22          1           0        1.632023   -0.557831    1.369822
     23          1           0        2.575892   -1.535229   -1.363761
     24          1           0        2.183738   -2.517016    0.041284
     25          1           0        4.158188   -1.727219    1.258825
     26          1           0        4.678449   -2.260014   -0.326323
     27          1           0        2.248715    3.038600   -0.044095
     28          1           0        1.568841    2.350516    1.413285
     29          1           0        0.398681    2.105890   -1.410197
     30          1           0       -0.269433    3.001455   -0.050577
     31          1           0       -0.449662    0.840254    1.223737
     32          1           0        0.506522   -0.260699   -1.446042
     33          1           0       -1.796755    0.687770   -1.494017
     34          1           0       -1.893935   -1.707500   -1.624059
     35          1           0       -2.262178   -2.696657   -0.211823
     36          1           0       -0.209001   -2.016297    0.919026
     37          1           0        0.183396   -2.514339   -0.707652
     38          1           0       -2.743977    2.735291   -0.671597
     39          1           0       -2.730084    2.175869    0.990070
     40          1           0       -4.826500    1.617419   -1.050015
     41          1           0       -4.867732    1.232883    0.666779
     42          1           0       -3.878390   -0.470440   -1.612283
     43          1           0       -3.256460    0.125247    2.034546
     44          1           0       -3.115219   -1.626585    1.862594
     45          1           0       -1.671630   -0.632104    2.077028
     46          1           0       -4.585985   -2.015933    0.217755
 ---------------------------------------------------------------------
 Rotational constants (GHZ):           0.9173993           0.1759715           0.1553462
 Standard basis: 6-31G(d) (6D, 7F)
 There are   352 symmetry adapted cartesian basis functions of A   symmetry.
 There are   352 symmetry adapted basis functions of A   symmetry.
   352 basis functions,   664 primitive gaussians,   352 cartesian basis functions
    75 alpha electrons       75 beta electrons
       nuclear repulsion energy      1665.3450134918 Hartrees.
 NAtoms=   46 NActive=   46 NUniq=   46 SFac= 1.00D+00 NAtFMM=   60 NAOKFM=F Big=F
 Integral buffers will be    131072 words long.
 Raffenetti 2 integral format.
 Two-electron integral symmetry is turned on.
 Nuclear repulsion after empirical dispersion term =     1665.2961322142 Hartrees.
 One-electron integrals computed using PRISM.
 NBasis=   352 RedAO= T EigKep=  1.26D-03  NBF=   352
 NBsUse=   352 1.00D-06 EigRej= -1.00D+00 NBFU=   352
 ExpMin= 1.61D-01 ExpMax= 5.48D+03 ExpMxC= 8.25D+02 IAcc=3 IRadAn=         5 AccDes= 0.00D+00
 Harris functional with IExCor= 4639 and IRadAn=       5 diagonalized for initial guess.
 HarFok:  IExCor= 4639 AccDes= 0.00D+00 IRadAn=         5 IDoV= 1 UseB2=F ITyADJ=14
 ICtDFT=  3500011 ScaDFX=  1.000000  1.000000  1.000000  1.000000
 FoFCou: FMM=F IPFlag=           0 FMFlag=      100000 FMFlg1=           0
         NFxFlg=           0 DoJE=T BraDBF=F KetDBF=T FulRan=T
         wScrn=  0.000000 ICntrl=       500 IOpCl=  0 I1Cent=   200000004 NGrid=           0
         NMat0=    1 NMatS0=      1 NMatT0=    0 NMatD0=    1 NMtDS0=    0 NMtDT0=    0
 Petite list used in FoFCou.
 Requested convergence on RMS density matrix=1.00D-08 within 128 cycles.
 Requested convergence on MAX density matrix=1.00D-06.
 Requested convergence on             energy=1.00D-06.
 No special actions if energy rises.
 Integral accuracy reduced to 1.0D-05 until final iterations.
 Initial convergence to 1.0D-05 achieved.  Increase integral accuracy.
 SCF Done:  E(RwB97XD) =  -851.792748221     A.U. after   15 cycles
            NFock= 15  Conv=0.81D-08     -V/T= 2.0093

 **********************************************************************

            Population analysis using the SCF Density.

 **********************************************************************

 Orbital symmetries:
       Occupied  (A) (A) (A) (A) (A) (A) (A) (A) (A) (A) (A) (A)
                 (A) (A) (A) (A) (A) (A) (A) (A) (A) (A) (A) (A)
                 (A) (A) (A) (A) (A) (A) (A) (A) (A) (A) (A) (A)
                 (A) (A) (A) (A) (A) (A) (A) (A) (A) (A) (A) (A)
                 (A) (A) (A) (A) (A) (A) (A) (A) (A) (A) (A) (A)
                 (A) (A) (A) (A) (A) (A) (A) (A) (A) (A) (A) (A)
                 (A) (A) (A)
       Virtual   (A) (A) (A) (A) (A) (A) (A) (A) (A) (A) (A) (A)
                 (A) (A) (A) (A) (A) (A) (A) (A) (A) (A) (A) (A)
                 (A) (A) (A) (A) (A) (A) (A) (A) (A) (A) (A) (A)
                 (A) (A) (A) (A) (A) (A) (A) (A) (A) (A) (A) (A)
                 (A) (A) (A) (A) (A) (A) (A) (A) (A) (A) (A) (A)
                 (A) (A) (A) (A) (A) (A) (A) (A) (A) (A) (A) (A)
                 (A) (A) (A) (A) (A) (A) (A) (A) (A) (A) (A) (A)
                 (A) (A) (A) (A) (A) (A) (A) (A) (A) (A) (A) (A)
                 (A) (A) (A) (A) (A) (A) (A) (A) (A) (A) (A) (A)
                 (A) (A) (A) (A) (A) (A) (A) (A) (A) (A) (A) (A)
                 (A) (A) (A) (A) (A) (A) (A) (A) (A) (A) (A) (A)
                 (A) (A) (A) (A) (A) (A) (A) (A) (A) (A) (A) (A)
                 (A) (A) (A) (A) (A) (A) (A) (A) (A) (A) (A) (A)
                 (A) (A) (A) (A) (A) (A) (A) (A) (A) (A) (A) (A)
                 (A) (A) (A) (A) (A) (A) (A) (A) (A) (A) (A) (A)
                 (A) (A) (A) (A) (A) (A) (A) (A) (A) (A) (A) (A)
                 (A) (A) (A) (A) (A) (A) (A) (A) (A) (A) (A) (A)
                 (A) (A) (A) (A) (A) (A) (A) (A) (A) (A) (A) (A)
                 (A) (A) (A) (A) (A) (A) (A) (A) (A) (A) (A) (A)
                 (A) (A) (A) (A) (A) (A) (A) (A) (A) (A) (A) (A)
                 (A) (A) (A) (A) (A) (A) (A) (A) (A) (A) (A) (A)
                 (A) (A) (A) (A) (A) (A) (A) (A) (A) (A) (A) (A)
                 (A) (A) (A) (A) (A) (A) (A) (A) (A) (A) (A) (A)
                 (A)
 The electronic state is 1-A.
 Alpha  occ. eigenvalues --  -19.26560 -19.23635 -10.36877 -10.34093 -10.33074
 Alpha  occ. eigenvalues --  -10.31846 -10.31087 -10.30895 -10.30607 -10.30547
 Alpha  occ. eigenvalues --  -10.30418 -10.30250 -10.30195 -10.30142 -10.30106
 Alpha  occ. eigenvalues --  -10.29638 -10.29552 -10.29416 -10.29157 -10.29003
 Alpha  occ. eigenvalues --   -1.11862  -1.11061  -0.98225  -0.95661  -0.90824
 Alpha  occ. eigenvalues --   -0.90314  -0.87350  -0.84550  -0.82550  -0.81749
 Alpha  occ. eigenvalues --   -0.77884  -0.77645  -0.73763  -0.72262  -0.69742
 Alpha  occ. eigenvalues --   -0.67900  -0.65568  -0.65293  -0.63281  -0.60776
 Alpha  occ. eigenvalues --   -0.59648  -0.58076  -0.56949  -0.55819  -0.55555
 Alpha  occ. eigenvalues --   -0.54141  -0.53524  -0.52995  -0.51880  -0.50642
 Alpha  occ. eigenvalues --   -0.50315  -0.49845  -0.49054  -0.48034  -0.47820
 Alpha  occ. eigenvalues --   -0.47054  -0.46843  -0.46362  -0.45320  -0.44963
 Alpha  occ. eigenvalues --   -0.44122  -0.43653  -0.43098  -0.42567  -0.42041
 Alpha  occ. eigenvalues --   -0.41401  -0.40894  -0.40277  -0.39425  -0.38684
 Alpha  occ. eigenvalues --   -0.36913  -0.36344  -0.34354  -0.32869  -0.30984
 Alpha virt. eigenvalues --    0.02490   0.13011   0.14053   0.14761   0.16355
 Alpha virt. eigenvalues --    0.17033   0.17549   0.18238   0.19267   0.20291
 Alpha virt. eigenvalues --    0.20381   0.20789   0.22169   0.22640   0.23242
 Alpha virt. eigenvalues --    0.23564   0.23785   0.24523   0.25131   0.25346
 Alpha virt. eigenvalues --    0.25708   0.25838   0.26374   0.26869   0.27126
 Alpha virt. eigenvalues --    0.27497   0.28341   0.28859   0.29242   0.30299
 Alpha virt. eigenvalues --    0.30705   0.31284   0.31650   0.32218   0.32977
 Alpha virt. eigenvalues --    0.33669   0.34922   0.34985   0.35551   0.35875
 Alpha virt. eigenvalues --    0.36585   0.37419   0.38873   0.39062   0.40716
 Alpha virt. eigenvalues --    0.41796   0.41971   0.44814   0.45486   0.49541
 Alpha virt. eigenvalues --    0.51778   0.57659   0.58251   0.59379   0.60316
 Alpha virt. eigenvalues --    0.60866   0.61658   0.61956   0.62808   0.65049
 Alpha virt. eigenvalues --    0.65381   0.65969   0.66590   0.67872   0.69223
 Alpha virt. eigenvalues --    0.70236   0.70940   0.72312   0.72955   0.73154
 Alpha virt. eigenvalues --    0.73753   0.74491   0.75392   0.75580   0.76543
 Alpha virt. eigenvalues --    0.77780   0.78063   0.78705   0.79817   0.81063
 Alpha virt. eigenvalues --    0.82722   0.83222   0.84308   0.84825   0.86089
 Alpha virt. eigenvalues --    0.86766   0.87193   0.88777   0.89619   0.90325
 Alpha virt. eigenvalues --    0.91394   0.92295   0.92852   0.93431   0.94395
 Alpha virt. eigenvalues --    0.94650   0.95562   0.95976   0.96435   0.96728
 Alpha virt. eigenvalues --    0.97246   0.97556   0.97610   0.98536   0.98671
 Alpha virt. eigenvalues --    0.99253   1.00264   1.00406   1.00941   1.02344
 Alpha virt. eigenvalues --    1.02649   1.03531   1.04133   1.04445   1.04732
 Alpha virt. eigenvalues --    1.05287   1.06020   1.06515   1.06703   1.07617
 Alpha virt. eigenvalues --    1.08818   1.10107   1.10574   1.12057   1.12967
 Alpha virt. eigenvalues --    1.14703   1.16275   1.16720   1.19720   1.20218
 Alpha virt. eigenvalues --    1.21857   1.22674   1.25382   1.25759   1.28306
 Alpha virt. eigenvalues --    1.29546   1.31025   1.34211   1.35567   1.38239
 Alpha virt. eigenvalues --    1.39295   1.42641   1.43618   1.45313   1.47236
 Alpha virt. eigenvalues --    1.50296   1.53300   1.55035   1.55448   1.57524
 Alpha virt. eigenvalues --    1.60770   1.61462   1.64616   1.66131   1.67148
 Alpha virt. eigenvalues --    1.69797   1.71545   1.73311   1.73801   1.76194
 Alpha virt. eigenvalues --    1.77512   1.78687   1.80676   1.81516   1.82819
 Alpha virt. eigenvalues --    1.83302   1.84981   1.87285   1.87426   1.88835
 Alpha virt. eigenvalues --    1.89883   1.91494   1.93181   1.94054   1.94832
 Alpha virt. eigenvalues --    1.95745   1.96650   1.97272   1.98193   1.98973
 Alpha virt. eigenvalues --    2.00013   2.00716   2.01410   2.02044   2.03452
 Alpha virt. eigenvalues --    2.03873   2.04841   2.05970   2.07003   2.07563
 Alpha virt. eigenvalues --    2.08510   2.09673   2.10269   2.11091   2.11697
 Alpha virt. eigenvalues --    2.12520   2.14948   2.15348   2.16238   2.18521
 Alpha virt. eigenvalues --    2.19388   2.19991   2.21125   2.21987   2.24723
 Alpha virt. eigenvalues --    2.25833   2.27921   2.29917   2.30165   2.31870
 Alpha virt. eigenvalues --    2.34306   2.35151   2.36027   2.38020   2.39553
 Alpha virt. eigenvalues --    2.40559   2.41144   2.42216   2.43900   2.46308
 Alpha virt. eigenvalues --    2.48556   2.49010   2.50762   2.51087   2.52826
 Alpha virt. eigenvalues --    2.54335   2.56645   2.58244   2.60641   2.61831
 Alpha virt. eigenvalues --    2.63017   2.64155   2.64744   2.65679   2.67616
 Alpha virt. eigenvalues --    2.68588   2.70907   2.71603   2.75226   2.76067
 Alpha virt. eigenvalues --    2.78522   2.80222   2.80945   2.82608   2.84110
 Alpha virt. eigenvalues --    2.86763   2.89847   2.94424   2.97476   2.98512
 Alpha virt. eigenvalues --    3.00540   3.01658   3.07945   3.07996   3.09023
 Alpha virt. eigenvalues --    3.21015   3.27289   4.01553   4.07765   4.23717
 Alpha virt. eigenvalues --    4.26475   4.30616   4.33752   4.35367   4.38280
 Alpha virt. eigenvalues --    4.41625   4.42551   4.47848   4.53927   4.55908
 Alpha virt. eigenvalues --    4.64306   4.66203   4.73209   4.77083   4.81068
 Alpha virt. eigenvalues --    4.86079   4.90061
          Condensed to atoms (all electrons):
               1          2          3          4          5          6
     1  C    4.424305   0.531913   0.372478  -0.001667  -0.019897  -0.025679
     2  O    0.531913   8.102430  -0.061913   0.005331   0.000328   0.002775
     3  C    0.372478  -0.061913   5.297053   0.513991  -0.043703   0.003015
     4  C   -0.001667   0.005331   0.513991   4.869298   0.378729  -0.039917
     5  C   -0.019897   0.000328  -0.043703   0.378729   5.086013   0.348899
     6  C   -0.025679   0.002775   0.003015  -0.039917   0.348899   5.143334
     7  C    0.341944  -0.080520  -0.129365   0.000502  -0.035753   0.285912
     8  C    0.003654  -0.000100  -0.034358   0.355768  -0.064848   0.004593
     9  C   -0.000134   0.000000   0.002257  -0.033731  -0.010916  -0.000305
    10  C   -0.000010   0.000000   0.000510  -0.013924  -0.039494   0.004112
    11  C   -0.000129   0.000001   0.003620  -0.032060   0.365624  -0.048869
    12  C   -0.000000   0.000000   0.000001   0.000259   0.003720  -0.000129
    13  C   -0.000000   0.000000   0.000000   0.000004   0.000057  -0.000005
    14  C    0.000000  -0.000000   0.000001  -0.000085   0.003515   0.000258
    15  C   -0.000003  -0.000000  -0.000123   0.004459  -0.042979  -0.004785
    16  C   -0.000000  -0.000000   0.000000   0.000001  -0.000103   0.000001
    17  C   -0.000000  -0.000000  -0.000000   0.000000   0.000002  -0.000000
    18  C    0.000000   0.000000  -0.000000  -0.000000   0.000004   0.000000
    19  C   -0.000000   0.000000   0.000000   0.000001   0.000034   0.000000
    20  O    0.000000   0.000000   0.000000   0.000000  -0.000000   0.000000
    21  H   -0.028528   0.001044   0.359880  -0.043935   0.004442  -0.000340
    22  H    0.000652   0.000002  -0.004561  -0.043763   0.367516  -0.034070
    23  H   -0.002512   0.000058   0.002818  -0.003791  -0.044435   0.386835
    24  H    0.003512  -0.000073  -0.000386   0.004398  -0.029815   0.376607
    25  H   -0.028502  -0.000460   0.002530  -0.001336  -0.002243  -0.035290
    26  H   -0.027302   0.003545   0.005307  -0.000339   0.003933  -0.029452
    27  H    0.000244  -0.000001  -0.002832  -0.038917   0.003897  -0.000133
    28  H   -0.000124   0.000002  -0.007137  -0.038286   0.000916   0.000087
    29  H   -0.000001  -0.000000  -0.000148  -0.003168   0.000521   0.000007
    30  H    0.000001  -0.000000  -0.000073   0.004147   0.000037   0.000010
    31  H    0.000003  -0.000000  -0.000224  -0.004248  -0.001135   0.000136
    32  H    0.000034  -0.000000  -0.000062  -0.003491  -0.041380  -0.005586
    33  H    0.000000   0.000000  -0.000001  -0.000067   0.000194  -0.000001
    34  H    0.000000   0.000000  -0.000000   0.000003   0.000043  -0.000030
    35  H   -0.000000  -0.000000  -0.000000   0.000001  -0.000103   0.000004
    36  H    0.000002  -0.000000  -0.000011   0.000219  -0.003439  -0.002243
    37  H   -0.000012  -0.000000   0.000015  -0.000148  -0.006466   0.002625
    38  H    0.000000  -0.000000   0.000000  -0.000001   0.000001  -0.000000
    39  H    0.000000   0.000000  -0.000000  -0.000001   0.000002   0.000000
    40  H    0.000000  -0.000000   0.000000   0.000000  -0.000000   0.000000
    41  H    0.000000  -0.000000  -0.000000  -0.000000  -0.000000   0.000000
    42  H    0.000000  -0.000000  -0.000000   0.000000   0.000000  -0.000000
    43  H   -0.000000  -0.000000   0.000000   0.000000  -0.000002  -0.000000
    44  H    0.000000  -0.000000  -0.000000  -0.000000  -0.000004   0.000000
    45  H    0.000000  -0.000000  -0.000000  -0.000002   0.000073   0.000002
    46  H   -0.000000   0.000000  -0.000000   0.000000  -0.000000   0.000000
               7          8          9         10         11         12
     1  C    0.341944   0.003654  -0.000134  -0.000010  -0.000129  -0.000000
     2  O   -0.080520  -0.000100   0.000000   0.000000   0.000001   0.000000
     3  C   -0.129365  -0.034358   0.002257   0.000510   0.003620   0.000001
     4  C    0.000502   0.355768  -0.033731  -0.013924  -0.032060   0.000259
     5  C   -0.035753  -0.064848  -0.010916  -0.039494   0.365624   0.003720
     6  C    0.285912   0.004593  -0.000305   0.004112  -0.048869  -0.000129
     7  C    5.352034  -0.000070   0.000037  -0.000089   0.004357   0.000002
     8  C   -0.000070   5.150616   0.337590  -0.042459  -0.014692   0.003881
     9  C    0.000037   0.337590   5.100692   0.367393  -0.043379  -0.040909
    10  C   -0.000089  -0.042459   0.367393   5.020253   0.372566   0.364746
    11  C    0.004357  -0.014692  -0.043379   0.372566   5.048032  -0.037191
    12  C    0.000002   0.003881  -0.040909   0.364746  -0.037191   5.103360
    13  C    0.000000  -0.000132   0.004305  -0.026905  -0.011538   0.349135
    14  C   -0.000003  -0.000011  -0.000054  -0.011487  -0.037942  -0.047198
    15  C    0.000238   0.000272   0.004365  -0.039020   0.362552  -0.017136
    16  C   -0.000000   0.000045  -0.003665  -0.032799   0.004131   0.360270
    17  C    0.000000  -0.000000   0.000110   0.004020  -0.000156  -0.060917
    18  C   -0.000000   0.000001  -0.000111   0.004194   0.000161  -0.063702
    19  C    0.000000  -0.000003   0.000220  -0.006982  -0.002390  -0.057292
    20  O    0.000000  -0.000000   0.000000  -0.000065  -0.000003   0.003678
    21  H    0.005970  -0.007703   0.000220  -0.000002  -0.000084   0.000000
    22  H   -0.003613   0.001327  -0.000522  -0.004908  -0.044531  -0.000013
    23  H   -0.040195  -0.000017  -0.000041   0.000190  -0.003688  -0.000004
    24  H   -0.030839  -0.000108  -0.000005  -0.000082  -0.008369  -0.000002
    25  H    0.365883  -0.000020  -0.000001   0.000003   0.000010  -0.000000
    26  H    0.369162   0.000008   0.000000   0.000001  -0.000060  -0.000000
    27  H    0.000008   0.379701  -0.031358   0.004165  -0.000144  -0.000107
    28  H   -0.000060   0.377433  -0.039261  -0.005349  -0.000723  -0.000014
    29  H   -0.000005  -0.035781   0.379483  -0.040242  -0.008198  -0.003783
    30  H   -0.000000  -0.031933   0.378979  -0.032010   0.004740  -0.006655
    31  H   -0.000007   0.000031  -0.050459   0.380347  -0.050085  -0.043957
    32  H   -0.000084   0.000128  -0.007011  -0.047486   0.375749  -0.004653
    33  H   -0.000000   0.000063  -0.005215  -0.045395  -0.006467   0.381193
    34  H   -0.000000   0.000000  -0.000026  -0.000283  -0.003264  -0.006659
    35  H   -0.000000  -0.000000   0.000010  -0.000123   0.004026   0.006405
    36  H   -0.000085  -0.000005  -0.000031  -0.003028  -0.046446  -0.000397
    37  H    0.000109  -0.000010  -0.000114   0.004047  -0.029327   0.000114
    38  H    0.000000  -0.000005   0.001166  -0.001015  -0.000088  -0.026045
    39  H   -0.000000  -0.000040  -0.000662  -0.004238   0.000081  -0.039542
    40  H   -0.000000  -0.000000  -0.000004  -0.000062   0.000003   0.001816
    41  H   -0.000000  -0.000000   0.000002  -0.000123   0.000002   0.003057
    42  H   -0.000000  -0.000000   0.000007  -0.000226  -0.000006  -0.003511
    43  H    0.000000  -0.000000  -0.000031  -0.000128   0.000048  -0.004293
    44  H    0.000000  -0.000000  -0.000000   0.000049   0.000055   0.005809
    45  H   -0.000000   0.000012  -0.000022   0.001383  -0.000393  -0.006363
    46  H    0.000000   0.000000   0.000000  -0.000008   0.000001   0.000560
              13         14         15         16         17         18
     1  C   -0.000000   0.000000  -0.000003  -0.000000  -0.000000   0.000000
     2  O    0.000000  -0.000000  -0.000000  -0.000000  -0.000000   0.000000
     3  C    0.000000   0.000001  -0.000123   0.000000  -0.000000  -0.000000
     4  C    0.000004  -0.000085   0.004459   0.000001   0.000000  -0.000000
     5  C    0.000057   0.003515  -0.042979  -0.000103   0.000002   0.000004
     6  C   -0.000005   0.000258  -0.004785   0.000001  -0.000000   0.000000
     7  C    0.000000  -0.000003   0.000238  -0.000000   0.000000  -0.000000
     8  C   -0.000132  -0.000011   0.000272   0.000045  -0.000000   0.000001
     9  C    0.004305  -0.000054   0.004365  -0.003665   0.000110  -0.000111
    10  C   -0.026905  -0.011487  -0.039020  -0.032799   0.004020   0.004194
    11  C   -0.011538  -0.037942   0.362552   0.004131  -0.000156   0.000161
    12  C    0.349135  -0.047198  -0.017136   0.360270  -0.060917  -0.063702
    13  C    5.111925   0.374280  -0.038293  -0.063829  -0.051513   0.377216
    14  C    0.374280   5.119462   0.350905   0.005741   0.007102  -0.047480
    15  C   -0.038293   0.350905   5.101886   0.000255  -0.000232   0.004337
    16  C   -0.063829   0.005741   0.000255   5.115703   0.333471  -0.057748
    17  C   -0.051513   0.007102  -0.000232   0.333471   5.185652   0.352073
    18  C    0.377216  -0.047480   0.004337  -0.057748   0.352073   4.785267
    19  C    0.336589  -0.069884  -0.002610  -0.002508  -0.013204  -0.057639
    20  O   -0.043479  -0.000402   0.000029   0.002513  -0.049873   0.255420
    21  H   -0.000000  -0.000000   0.000002  -0.000000  -0.000000  -0.000000
    22  H   -0.000032   0.000045  -0.007743   0.000000   0.000000  -0.000000
    23  H   -0.000001  -0.000065  -0.002142   0.000000   0.000000  -0.000000
    24  H   -0.000004   0.000112   0.003774  -0.000000   0.000000   0.000000
    25  H   -0.000000  -0.000000  -0.000030   0.000000  -0.000000  -0.000000
    26  H   -0.000000  -0.000000   0.000001   0.000000  -0.000000   0.000000
    27  H    0.000001  -0.000000   0.000008  -0.000001  -0.000000  -0.000000
    28  H    0.000003   0.000000  -0.000002  -0.000008  -0.000000  -0.000000
    29  H   -0.000027  -0.000005   0.000107  -0.000432  -0.000014  -0.000003
    30  H    0.000037  -0.000004  -0.000125   0.003884  -0.000001  -0.000007
    31  H   -0.009938   0.000471  -0.002542  -0.003619  -0.000004   0.000053
    32  H   -0.001148  -0.000005  -0.045534  -0.000048   0.000004  -0.000064
    33  H   -0.053792  -0.006254  -0.001072  -0.043505  -0.001769  -0.002434
    34  H   -0.037763   0.378498  -0.036514   0.000038   0.000069  -0.005909
    35  H   -0.036262   0.370346  -0.033156  -0.000220  -0.000010  -0.003507
    36  H   -0.006606  -0.033647   0.380607  -0.000013   0.000003  -0.000053
    37  H    0.004618  -0.033526   0.380791   0.000008   0.000003  -0.000078
    38  H    0.005279  -0.000129  -0.000004   0.377801  -0.026877   0.002130
    39  H   -0.004480  -0.000011  -0.000019   0.383883  -0.032627   0.001988
    40  H    0.004094  -0.000141   0.000003  -0.030233   0.378311  -0.026784
    41  H   -0.003840  -0.000135   0.000004  -0.025709   0.369720  -0.031140
    42  H   -0.064914  -0.011590   0.000091   0.004221  -0.057729   0.389856
    43  H   -0.028882   0.004730  -0.000012   0.001963   0.003758  -0.005581
    44  H   -0.031612  -0.005547  -0.000353  -0.000200  -0.000077  -0.006543
    45  H   -0.031943  -0.004796   0.001975   0.000008  -0.000370   0.005131
    46  H   -0.006910   0.002171  -0.000100  -0.000353   0.006732  -0.033264
              19         20         21         22         23         24
     1  C   -0.000000   0.000000  -0.028528   0.000652  -0.002512   0.003512
     2  O    0.000000   0.000000   0.001044   0.000002   0.000058  -0.000073
     3  C    0.000000   0.000000   0.359880  -0.004561   0.002818  -0.000386
     4  C    0.000001   0.000000  -0.043935  -0.043763  -0.003791   0.004398
     5  C    0.000034  -0.000000   0.004442   0.367516  -0.044435  -0.029815
     6  C    0.000000   0.000000  -0.000340  -0.034070   0.386835   0.376607
     7  C    0.000000   0.000000   0.005970  -0.003613  -0.040195  -0.030839
     8  C   -0.000003  -0.000000  -0.007703   0.001327  -0.000017  -0.000108
     9  C    0.000220   0.000000   0.000220  -0.000522  -0.000041  -0.000005
    10  C   -0.006982  -0.000065  -0.000002  -0.004908   0.000190  -0.000082
    11  C   -0.002390  -0.000003  -0.000084  -0.044531  -0.003688  -0.008369
    12  C   -0.057292   0.003678   0.000000  -0.000013  -0.000004  -0.000002
    13  C    0.336589  -0.043479  -0.000000  -0.000032  -0.000001  -0.000004
    14  C   -0.069884  -0.000402  -0.000000   0.000045  -0.000065   0.000112
    15  C   -0.002610   0.000029   0.000002  -0.007743  -0.002142   0.003774
    16  C   -0.002508   0.002513  -0.000000   0.000000   0.000000  -0.000000
    17  C   -0.013204  -0.049873  -0.000000   0.000000   0.000000   0.000000
    18  C   -0.057639   0.255420  -0.000000  -0.000000  -0.000000   0.000000
    19  C    5.223648   0.004729   0.000000  -0.000070  -0.000000  -0.000001
    20  O    0.004729   8.278008   0.000000  -0.000000  -0.000000   0.000000
    21  H    0.000000   0.000000   0.530905  -0.000202  -0.000050   0.000013
    22  H   -0.000070  -0.000000  -0.000202   0.588911   0.005435  -0.004307
    23  H   -0.000000  -0.000000  -0.000050   0.005435   0.558245  -0.031628
    24  H   -0.000001   0.000000   0.000013  -0.004307  -0.031628   0.554101
    25  H   -0.000000   0.000000  -0.000163   0.003402   0.004792  -0.005548
    26  H    0.000000  -0.000000  -0.000105  -0.000151  -0.004089  -0.001976
    27  H    0.000000   0.000000   0.004999  -0.000093   0.000001   0.000002
    28  H   -0.000006  -0.000000   0.000310   0.001302   0.000001   0.000006
    29  H   -0.000003  -0.000000  -0.000003   0.000094  -0.000005   0.000002
    30  H   -0.000007  -0.000000  -0.000007  -0.000009   0.000000   0.000000
    31  H    0.002091  -0.000002  -0.000002   0.005140   0.000008   0.000000
    32  H    0.000055   0.000000  -0.000010   0.005954   0.006050   0.000110
    33  H    0.006577   0.000035  -0.000000   0.000003  -0.000003  -0.000000
    34  H    0.006065  -0.000118   0.000000   0.000003   0.000003   0.000011
    35  H   -0.006413   0.001218   0.000000  -0.000005   0.000000   0.000002
    36  H    0.002632  -0.000001  -0.000000   0.006504   0.000229   0.001428
    37  H    0.000010   0.000000   0.000000   0.000075   0.001169   0.000196
    38  H    0.000063  -0.000035  -0.000000   0.000000   0.000000  -0.000000
    39  H    0.002014  -0.000024   0.000000  -0.000001  -0.000000  -0.000000
    40  H    0.000180   0.001779   0.000000  -0.000000  -0.000000  -0.000000
    41  H    0.001848   0.003970  -0.000000   0.000000   0.000000   0.000000
    42  H    0.008213  -0.043007   0.000000  -0.000000   0.000000   0.000000
    43  H    0.380497  -0.000326   0.000000   0.000001   0.000000   0.000000
    44  H    0.372573   0.004925   0.000000   0.000001   0.000000  -0.000000
    45  H    0.375379   0.000367  -0.000000   0.000135   0.000000  -0.000002
    46  H   -0.000850   0.243855   0.000000  -0.000000  -0.000000   0.000000
              25         26         27         28         29         30
     1  C   -0.028502  -0.027302   0.000244  -0.000124  -0.000001   0.000001
     2  O   -0.000460   0.003545  -0.000001   0.000002  -0.000000  -0.000000
     3  C    0.002530   0.005307  -0.002832  -0.007137  -0.000148  -0.000073
     4  C   -0.001336  -0.000339  -0.038917  -0.038286  -0.003168   0.004147
     5  C   -0.002243   0.003933   0.003897   0.000916   0.000521   0.000037
     6  C   -0.035290  -0.029452  -0.000133   0.000087   0.000007   0.000010
     7  C    0.365883   0.369162   0.000008  -0.000060  -0.000005  -0.000000
     8  C   -0.000020   0.000008   0.379701   0.377433  -0.035781  -0.031933
     9  C   -0.000001   0.000000  -0.031358  -0.039261   0.379483   0.378979
    10  C    0.000003   0.000001   0.004165  -0.005349  -0.040242  -0.032010
    11  C    0.000010  -0.000060  -0.000144  -0.000723  -0.008198   0.004740
    12  C   -0.000000  -0.000000  -0.000107  -0.000014  -0.003783  -0.006655
    13  C   -0.000000  -0.000000   0.000001   0.000003  -0.000027   0.000037
    14  C   -0.000000  -0.000000  -0.000000   0.000000  -0.000005  -0.000004
    15  C   -0.000030   0.000001   0.000008  -0.000002   0.000107  -0.000125
    16  C    0.000000   0.000000  -0.000001  -0.000008  -0.000432   0.003884
    17  C   -0.000000  -0.000000  -0.000000  -0.000000  -0.000014  -0.000001
    18  C   -0.000000   0.000000  -0.000000  -0.000000  -0.000003  -0.000007
    19  C   -0.000000   0.000000   0.000000  -0.000006  -0.000003  -0.000007
    20  O    0.000000  -0.000000   0.000000  -0.000000  -0.000000  -0.000000
    21  H   -0.000163  -0.000105   0.004999   0.000310  -0.000003  -0.000007
    22  H    0.003402  -0.000151  -0.000093   0.001302   0.000094  -0.000009
    23  H    0.004792  -0.004089   0.000001   0.000001  -0.000005   0.000000
    24  H   -0.005548  -0.001976   0.000002   0.000006   0.000002   0.000000
    25  H    0.534149  -0.022413  -0.000000   0.000004   0.000000   0.000000
    26  H   -0.022413   0.507469   0.000000  -0.000001  -0.000000   0.000000
    27  H   -0.000000   0.000000   0.531131  -0.026886  -0.003083  -0.001672
    28  H    0.000004  -0.000001  -0.026886   0.552214   0.004925  -0.004845
    29  H    0.000000  -0.000000  -0.003083   0.004925   0.566757  -0.031337
    30  H    0.000000   0.000000  -0.001672  -0.004845  -0.031337   0.551856
    31  H   -0.000000  -0.000000   0.000062   0.004956   0.005783  -0.002565
    32  H    0.000007  -0.000004  -0.000029   0.000098   0.006468   0.000065
    33  H   -0.000000   0.000000   0.000004   0.000003   0.003990  -0.000063
    34  H    0.000000   0.000000  -0.000000  -0.000000  -0.000005   0.000001
    35  H    0.000000   0.000000   0.000000  -0.000000   0.000000  -0.000000
    36  H    0.000005   0.000001  -0.000000  -0.000002  -0.000000   0.000004
    37  H    0.000011  -0.000001  -0.000000   0.000000  -0.000006   0.000002
    38  H    0.000000  -0.000000   0.000001   0.000003   0.000198   0.000448
    39  H   -0.000000   0.000000   0.000001   0.000001   0.000069   0.000702
    40  H    0.000000   0.000000   0.000000   0.000000  -0.000000   0.000002
    41  H   -0.000000   0.000000   0.000000   0.000000  -0.000000   0.000001
    42  H   -0.000000   0.000000   0.000000  -0.000000  -0.000002  -0.000000
    43  H    0.000000  -0.000000  -0.000000   0.000000   0.000000  -0.000000
    44  H    0.000000  -0.000000   0.000000   0.000000   0.000000  -0.000000
    45  H    0.000000   0.000000  -0.000000  -0.000006  -0.000001   0.000004
    46  H   -0.000000   0.000000   0.000000   0.000000   0.000000  -0.000000
              31         32         33         34         35         36
     1  C    0.000003   0.000034   0.000000   0.000000  -0.000000   0.000002
     2  O   -0.000000  -0.000000   0.000000   0.000000  -0.000000  -0.000000
     3  C   -0.000224  -0.000062  -0.000001  -0.000000  -0.000000  -0.000011
     4  C   -0.004248  -0.003491  -0.000067   0.000003   0.000001   0.000219
     5  C   -0.001135  -0.041380   0.000194   0.000043  -0.000103  -0.003439
     6  C    0.000136  -0.005586  -0.000001  -0.000030   0.000004  -0.002243
     7  C   -0.000007  -0.000084  -0.000000  -0.000000  -0.000000  -0.000085
     8  C    0.000031   0.000128   0.000063   0.000000  -0.000000  -0.000005
     9  C   -0.050459  -0.007011  -0.005215  -0.000026   0.000010  -0.000031
    10  C    0.380347  -0.047486  -0.045395  -0.000283  -0.000123  -0.003028
    11  C   -0.050085   0.375749  -0.006467  -0.003264   0.004026  -0.046446
    12  C   -0.043957  -0.004653   0.381193  -0.006659   0.006405  -0.000397
    13  C   -0.009938  -0.001148  -0.053792  -0.037763  -0.036262  -0.006606
    14  C    0.000471  -0.000005  -0.006254   0.378498   0.370346  -0.033647
    15  C   -0.002542  -0.045534  -0.001072  -0.036514  -0.033156   0.380607
    16  C   -0.003619  -0.000048  -0.043505   0.000038  -0.000220  -0.000013
    17  C   -0.000004   0.000004  -0.001769   0.000069  -0.000010   0.000003
    18  C    0.000053  -0.000064  -0.002434  -0.005909  -0.003507  -0.000053
    19  C    0.002091   0.000055   0.006577   0.006065  -0.006413   0.002632
    20  O   -0.000002   0.000000   0.000035  -0.000118   0.001218  -0.000001
    21  H   -0.000002  -0.000010  -0.000000   0.000000   0.000000  -0.000000
    22  H    0.005140   0.005954   0.000003   0.000003  -0.000005   0.006504
    23  H    0.000008   0.006050  -0.000003   0.000003   0.000000   0.000229
    24  H    0.000000   0.000110  -0.000000   0.000011   0.000002   0.001428
    25  H   -0.000000   0.000007  -0.000000   0.000000   0.000000   0.000005
    26  H   -0.000000  -0.000004   0.000000   0.000000   0.000000   0.000001
    27  H    0.000062  -0.000029   0.000004  -0.000000   0.000000  -0.000000
    28  H    0.004956   0.000098   0.000003  -0.000000  -0.000000  -0.000002
    29  H    0.005783   0.006468   0.003990  -0.000005   0.000000  -0.000000
    30  H   -0.002565   0.000065  -0.000063   0.000001  -0.000000   0.000004
    31  H    0.614267   0.006135   0.006183   0.000037  -0.000011   0.001516
    32  H    0.006135   0.607487   0.005285   0.002632  -0.000088   0.005721
    33  H    0.006183   0.005285   0.618789   0.005271   0.000034   0.000078
    34  H    0.000037   0.002632   0.005271   0.570876  -0.032266   0.004810
    35  H   -0.000011  -0.000088   0.000034  -0.032266   0.588565  -0.004758
    36  H    0.001516   0.005721   0.000078   0.004810  -0.004758   0.578214
    37  H   -0.000080  -0.006088  -0.000112  -0.005340  -0.001465  -0.034245
    38  H   -0.000131  -0.000001  -0.006562  -0.000003   0.000003   0.000000
    39  H    0.004058   0.000005   0.005198  -0.000005   0.000005  -0.000002
    40  H    0.000001  -0.000000   0.000317  -0.000014   0.000001  -0.000000
    41  H   -0.000016  -0.000000  -0.000057   0.000001  -0.000001  -0.000000
    42  H   -0.000015  -0.000010   0.005126   0.006799  -0.000132  -0.000003
    43  H    0.000230   0.000001  -0.000047  -0.000132  -0.000020  -0.000020
    44  H   -0.000029   0.000002  -0.000113   0.000037   0.004544   0.000310
    45  H    0.003610  -0.000013  -0.000001  -0.000050  -0.000209   0.001339
    46  H   -0.000000  -0.000000  -0.000000  -0.000046   0.003712  -0.000005
              37         38         39         40         41         42
     1  C   -0.000012   0.000000   0.000000   0.000000   0.000000   0.000000
     2  O   -0.000000  -0.000000   0.000000  -0.000000  -0.000000  -0.000000
     3  C    0.000015   0.000000  -0.000000   0.000000  -0.000000  -0.000000
     4  C   -0.000148  -0.000001  -0.000001   0.000000  -0.000000   0.000000
     5  C   -0.006466   0.000001   0.000002  -0.000000  -0.000000   0.000000
     6  C    0.002625  -0.000000   0.000000   0.000000   0.000000  -0.000000
     7  C    0.000109   0.000000  -0.000000  -0.000000  -0.000000  -0.000000
     8  C   -0.000010  -0.000005  -0.000040  -0.000000  -0.000000  -0.000000
     9  C   -0.000114   0.001166  -0.000662  -0.000004   0.000002   0.000007
    10  C    0.004047  -0.001015  -0.004238  -0.000062  -0.000123  -0.000226
    11  C   -0.029327  -0.000088   0.000081   0.000003   0.000002  -0.000006
    12  C    0.000114  -0.026045  -0.039542   0.001816   0.003057  -0.003511
    13  C    0.004618   0.005279  -0.004480   0.004094  -0.003840  -0.064914
    14  C   -0.033526  -0.000129  -0.000011  -0.000141  -0.000135  -0.011590
    15  C    0.380791  -0.000004  -0.000019   0.000003   0.000004   0.000091
    16  C    0.000008   0.377801   0.383883  -0.030233  -0.025709   0.004221
    17  C    0.000003  -0.026877  -0.032627   0.378311   0.369720  -0.057729
    18  C   -0.000078   0.002130   0.001988  -0.026784  -0.031140   0.389856
    19  C    0.000010   0.000063   0.002014   0.000180   0.001848   0.008213
    20  O    0.000000  -0.000035  -0.000024   0.001779   0.003970  -0.043007
    21  H    0.000000  -0.000000   0.000000   0.000000  -0.000000   0.000000
    22  H    0.000075   0.000000  -0.000001  -0.000000   0.000000  -0.000000
    23  H    0.001169   0.000000  -0.000000  -0.000000   0.000000   0.000000
    24  H    0.000196  -0.000000  -0.000000  -0.000000   0.000000   0.000000
    25  H    0.000011   0.000000  -0.000000   0.000000  -0.000000  -0.000000
    26  H   -0.000001  -0.000000   0.000000   0.000000   0.000000   0.000000
    27  H   -0.000000   0.000001   0.000001   0.000000   0.000000   0.000000
    28  H    0.000000   0.000003   0.000001   0.000000   0.000000  -0.000000
    29  H   -0.000006   0.000198   0.000069  -0.000000  -0.000000  -0.000002
    30  H    0.000002   0.000448   0.000702   0.000002   0.000001  -0.000000
    31  H   -0.000080  -0.000131   0.004058   0.000001  -0.000016  -0.000015
    32  H   -0.006088  -0.000001   0.000005  -0.000000  -0.000000  -0.000010
    33  H   -0.000112  -0.006562   0.005198   0.000317  -0.000057   0.005126
    34  H   -0.005340  -0.000003  -0.000005  -0.000014   0.000001   0.006799
    35  H   -0.001465   0.000003   0.000005   0.000001  -0.000001  -0.000132
    36  H   -0.034245   0.000000  -0.000002  -0.000000  -0.000000  -0.000003
    37  H    0.555686  -0.000000  -0.000000  -0.000000  -0.000000  -0.000007
    38  H   -0.000000   0.548101  -0.033937  -0.006205   0.002482  -0.000150
    39  H   -0.000000  -0.033937   0.566359   0.003386  -0.009148  -0.000165
    40  H   -0.000000  -0.006205   0.003386   0.538385  -0.027911  -0.006421
    41  H   -0.000000   0.002482  -0.009148  -0.027911   0.532559   0.005160
    42  H   -0.000007  -0.000150  -0.000165  -0.006421   0.005160   0.637663
    43  H    0.000000   0.000023   0.000761  -0.000032   0.000942   0.000029
    44  H   -0.000028  -0.000001   0.000009  -0.000004   0.000099   0.000105
    45  H    0.000024  -0.000016   0.000031  -0.000000   0.000047  -0.000066
    46  H    0.000004   0.000004   0.000006  -0.000196  -0.000018   0.000848
              43         44         45         46
     1  C   -0.000000   0.000000   0.000000  -0.000000
     2  O   -0.000000  -0.000000  -0.000000   0.000000
     3  C    0.000000  -0.000000  -0.000000  -0.000000
     4  C    0.000000  -0.000000  -0.000002   0.000000
     5  C   -0.000002  -0.000004   0.000073  -0.000000
     6  C   -0.000000   0.000000   0.000002   0.000000
     7  C    0.000000   0.000000  -0.000000   0.000000
     8  C   -0.000000  -0.000000   0.000012   0.000000
     9  C   -0.000031  -0.000000  -0.000022   0.000000
    10  C   -0.000128   0.000049   0.001383  -0.000008
    11  C    0.000048   0.000055  -0.000393   0.000001
    12  C   -0.004293   0.005809  -0.006363   0.000560
    13  C   -0.028882  -0.031612  -0.031943  -0.006910
    14  C    0.004730  -0.005547  -0.004796   0.002171
    15  C   -0.000012  -0.000353   0.001975  -0.000100
    16  C    0.001963  -0.000200   0.000008  -0.000353
    17  C    0.003758  -0.000077  -0.000370   0.006732
    18  C   -0.005581  -0.006543   0.005131  -0.033264
    19  C    0.380497   0.372573   0.375379  -0.000850
    20  O   -0.000326   0.004925   0.000367   0.243855
    21  H    0.000000   0.000000  -0.000000   0.000000
    22  H    0.000001   0.000001   0.000135  -0.000000
    23  H    0.000000   0.000000   0.000000  -0.000000
    24  H    0.000000  -0.000000  -0.000002   0.000000
    25  H    0.000000   0.000000   0.000000  -0.000000
    26  H   -0.000000  -0.000000   0.000000   0.000000
    27  H   -0.000000   0.000000  -0.000000   0.000000
    28  H    0.000000   0.000000  -0.000006   0.000000
    29  H    0.000000   0.000000  -0.000001   0.000000
    30  H   -0.000000  -0.000000   0.000004  -0.000000
    31  H    0.000230  -0.000029   0.003610  -0.000000
    32  H    0.000001   0.000002  -0.000013  -0.000000
    33  H   -0.000047  -0.000113  -0.000001  -0.000000
    34  H   -0.000132   0.000037  -0.000050  -0.000046
    35  H   -0.000020   0.004544  -0.000209   0.003712
    36  H   -0.000020   0.000310   0.001339  -0.000005
    37  H    0.000000  -0.000028   0.000024   0.000004
    38  H    0.000023  -0.000001  -0.000016   0.000004
    39  H    0.000761   0.000009   0.000031   0.000006
    40  H   -0.000032  -0.000004  -0.000000  -0.000196
    41  H    0.000942   0.000099   0.000047  -0.000018
    42  H    0.000029   0.000105  -0.000066   0.000848
    43  H    0.524728  -0.025813  -0.029179   0.000090
    44  H   -0.025813   0.554961  -0.027872   0.003991
    45  H   -0.029179  -0.027872   0.548620  -0.000183
    46  H    0.000090   0.003991  -0.000183   0.372242
 Mulliken charges:
               1
     1  C    0.455759
     2  O   -0.504364
     3  C   -0.278582
     4  C    0.165766
     5  C   -0.181782
     6  C   -0.332379
     7  C   -0.405467
     8  C   -0.382829
     9  C   -0.308864
    10  C   -0.130035
    11  C   -0.115539
    12  C   -0.117533
    13  C   -0.013696
    14  C   -0.307236
    15  C   -0.322133
    16  C   -0.328943
    17  C   -0.345657
    18  C    0.164218
    19  C   -0.503555
    20  O   -0.663189
    21  H    0.173349
    22  H    0.162090
    23  H    0.166830
    24  H    0.168870
    25  H    0.185210
    26  H    0.196466
    27  H    0.181031
    28  H    0.180446
    29  H    0.157846
    30  H    0.166396
    31  H    0.133951
    32  H    0.140807
    33  H    0.134586
    34  H    0.153231
    35  H    0.139872
    36  H    0.151421
    37  H    0.167543
    38  H    0.163502
    39  H    0.156343
    40  H    0.169728
    41  H    0.178205
    42  H    0.129834
    43  H    0.176694
    44  H    0.150724
    45  H    0.163347
    46  H    0.407718
 Sum of Mulliken charges =  -0.00000
 Mulliken charges with hydrogens summed into heavy atoms:
               1
     1  C    0.455759
     2  O   -0.504364
     3  C   -0.105233
     4  C    0.165766
     5  C   -0.019692
     6  C    0.003321
     7  C   -0.023791
     8  C   -0.021352
     9  C    0.015379
    10  C    0.003916
    11  C    0.025269
    12  C    0.017053
    13  C   -0.013696
    14  C   -0.014134
    15  C   -0.003169
    16  C   -0.009098
    17  C    0.002275
    18  C    0.294052
    19  C   -0.012790
    20  O   -0.255471
 Electronic spatial extent (au):  <R**2>=           6873.8645
 Charge=             -0.0000 electrons
 Dipole moment (field-independent basis, Debye):
    X=             -2.9692    Y=             -0.3427    Z=              0.7106  Tot=              3.0723
 Quadrupole moment (field-independent basis, Debye-Ang):
   XX=           -173.3217   YY=           -112.2038   ZZ=           -118.9822
   XY=             -1.2046   XZ=              3.1507   YZ=             -0.5294
 Traceless Quadrupole moment (field-independent basis, Debye-Ang):
   XX=            -38.4858   YY=             22.6321   ZZ=             15.8537
   XY=             -1.2046   XZ=              3.1507   YZ=             -0.5294
 Octapole moment (field-independent basis, Debye-Ang**2):
  XXX=           -164.4555  YYY=            -11.9075  ZZZ=             -1.5441  XYY=             -2.0006
  XXY=              1.4095  XXZ=             19.9519  XZZ=             -1.5029  YZZ=             -2.1252
  YYZ=              1.7886  XYZ=              4.0298
 Hexadecapole moment (field-independent basis, Debye-Ang**3):
 XXXX=          -9544.8973 YYYY=          -1406.7585 ZZZZ=           -404.9357 XXXY=            -71.7842
 XXXZ=             87.1392 YYYX=             77.5830 YYYZ=             -6.7157 ZZZX=              2.9828
 ZZZY=              2.4752 XXYY=          -1306.1264 XXZZ=          -1230.0370 YYZZ=           -308.8070
 XXYZ=            -21.3857 YYXZ=            -11.9229 ZZXY=             -6.4768
 N-N= 1.665296132214D+03 E-N=-5.307386990177D+03  KE= 8.439848537985D+02

 **********************************************************************

            Electrostatic Properties Using The SCF Density.

 **********************************************************************

       Atomic Center    1 is at   4.682037 -0.161751 -0.024809
       Atomic Center    2 is at   5.897468 -0.074798 -0.228997
       Atomic Center    3 is at   3.834488  1.009535  0.041661
       Atomic Center    4 is at   2.492278  0.927336  0.176032
       Atomic Center    5 is at   1.778690 -0.403854  0.286238
       Atomic Center    6 is at   2.616570 -1.561279 -0.264249
       Atomic Center    7 is at   4.066127 -1.513206  0.185039
       Atomic Center    8 is at   1.682608  2.179982  0.332474
       Atomic Center    9 is at   0.302151  2.106229 -0.315879
       Atomic Center   10 is at  -0.429090  0.840426  0.123602
       Atomic Center   11 is at   0.376966 -0.384782 -0.357700
       Atomic Center   12 is at  -1.857721  0.741614 -0.393055
       Atomic Center   13 is at  -2.554679 -0.552986  0.064923
       Atomic Center   14 is at  -1.809207 -1.747764 -0.529181
       Atomic Center   15 is at  -0.329471 -1.734444 -0.134670
       Atomic Center   16 is at  -2.867907  1.846750 -0.046779
       Atomic Center   17 is at  -4.252408  1.164571 -0.235658
       Atomic Center   18 is at  -3.955073 -0.324136 -0.523283
       Atomic Center   19 is at  -2.651322 -0.672906  1.594887
       Atomic Center   20 is at  -4.980647 -1.162939 -0.013398
       Atomic Center   21 is at   4.337706  1.972560 -0.000709
       Atomic Center   22 is at   1.632023 -0.557831  1.369822
       Atomic Center   23 is at   2.575892 -1.535229 -1.363761
       Atomic Center   24 is at   2.183738 -2.517016  0.041284
       Atomic Center   25 is at   4.158188 -1.727219  1.258825
       Atomic Center   26 is at   4.678449 -2.260014 -0.326323
       Atomic Center   27 is at   2.248715  3.038600 -0.044095
       Atomic Center   28 is at   1.568841  2.350516  1.413285
       Atomic Center   29 is at   0.398681  2.105890 -1.410197
       Atomic Center   30 is at  -0.269433  3.001455 -0.050577
       Atomic Center   31 is at  -0.449662  0.840254  1.223737
       Atomic Center   32 is at   0.506522 -0.260699 -1.446042
       Atomic Center   33 is at  -1.796755  0.687770 -1.494017
       Atomic Center   34 is at  -1.893935 -1.707500 -1.624059
       Atomic Center   35 is at  -2.262178 -2.696657 -0.211823
       Atomic Center   36 is at  -0.209001 -2.016297  0.919026
       Atomic Center   37 is at   0.183396 -2.514339 -0.707652
       Atomic Center   38 is at  -2.743977  2.735291 -0.671597
       Atomic Center   39 is at  -2.730084  2.175869  0.990070
       Atomic Center   40 is at  -4.826500  1.617419 -1.050015
       Atomic Center   41 is at  -4.867732  1.232883  0.666779
       Atomic Center   42 is at  -3.878390 -0.470440 -1.612283
       Atomic Center   43 is at  -3.256460  0.125247  2.034546
       Atomic Center   44 is at  -3.115219 -1.626585  1.862594
       Atomic Center   45 is at  -1.671630 -0.632104  2.077028
       Atomic Center   46 is at  -4.585985 -2.015933  0.217755
 -----------------------------------------------------------------

              Electrostatic Properties (Atomic Units)

 -----------------------------------------------------------------
    Center     Electric         -------- Electric Field --------
               Potential          X             Y             Z
 -----------------------------------------------------------------
    1 Atom    -14.672222      0.002219     -0.001764     -0.001337
    2 Atom    -22.351985      0.104619      0.007466     -0.018220
    3 Atom    -14.746538     -0.009186     -0.000882      0.000978
    4 Atom    -14.709883      0.012296      0.000716     -0.001522
    5 Atom    -14.716211     -0.002630     -0.003141     -0.001994
    6 Atom    -14.730043     -0.000524     -0.001156     -0.000458
    7 Atom    -14.740328      0.001633     -0.000358     -0.002414
    8 Atom    -14.725496     -0.001342      0.002363     -0.001011
    9 Atom    -14.731985     -0.002469     -0.001622     -0.000512
   10 Atom    -14.729444     -0.000904      0.000134     -0.001014
   11 Atom    -14.724046     -0.001722      0.001265      0.000110
   12 Atom    -14.734913     -0.000193     -0.001092      0.002606
   13 Atom    -14.729622     -0.001103      0.002170     -0.002711
   14 Atom    -14.733359     -0.001283      0.003965      0.000616
   15 Atom    -14.732310      0.000418      0.000021      0.000046
   16 Atom    -14.737564      0.001254     -0.000096      0.000229
   17 Atom    -14.744498     -0.002725     -0.001572      0.001018
   18 Atom    -14.693079      0.018489      0.013076     -0.007015
   19 Atom    -14.742900     -0.000035      0.001051     -0.001420
   20 Atom    -22.314966     -0.109395      0.033457      0.010766
   21 Atom     -1.105174      0.016172      0.028314     -0.002768
   22 Atom     -1.102845     -0.005356     -0.007044      0.030382
   23 Atom     -1.116088     -0.000931     -0.000005     -0.028776
   24 Atom     -1.116081     -0.012886     -0.026833      0.007328
   25 Atom     -1.104690      0.001423     -0.008542      0.030012
   26 Atom     -1.115967      0.019628     -0.018176     -0.014533
   27 Atom     -1.109495      0.015366      0.023251     -0.010602
   28 Atom     -1.102843     -0.004833      0.006995      0.029906
   29 Atom     -1.117030      0.002406      0.002062     -0.030099
   30 Atom     -1.116839     -0.017102      0.024667      0.006601
   31 Atom     -1.118221     -0.002371      0.000391      0.031147
   32 Atom     -1.118249      0.004455      0.003091     -0.030207
   33 Atom     -1.122209      0.001246     -0.000763     -0.030150
   34 Atom     -1.117784     -0.003220     -0.000305     -0.029713
   35 Atom     -1.114272     -0.010407     -0.027508      0.007097
   36 Atom     -1.117694      0.001032     -0.009869      0.029585
   37 Atom     -1.117975      0.014157     -0.020790     -0.014854
   38 Atom     -1.123802      0.002438      0.024233     -0.017602
   39 Atom     -1.123819      0.002712      0.009467      0.028187
   40 Atom     -1.128190     -0.016403      0.011676     -0.020716
   41 Atom     -1.127878     -0.018354     -0.000071      0.023275
   42 Atom     -1.133963     -0.000841     -0.005384     -0.031555
   43 Atom     -1.116884     -0.018252      0.019230      0.012542
   44 Atom     -1.114624     -0.012792     -0.024341      0.012952
   45 Atom     -1.114935      0.025775     -0.001217      0.014480
   46 Atom     -0.997369      0.012764     -0.038291      0.009477
 -----------------------------------------------------------------
 -----------------------------------------------------
    Center         ---- Electric Field Gradient ----
                     XX            YY            ZZ
 -----------------------------------------------------
    1 Atom     -493.313082   -493.222490   -493.975117
    2 Atom    -1217.095940  -1214.501404  -1217.647552
    3 Atom     -493.107010   -493.186888   -493.426676
    4 Atom     -493.142415   -493.254330   -493.791397
    5 Atom     -492.720088   -492.765277   -492.740167
    6 Atom     -492.608491   -492.578830   -492.576875
    7 Atom     -492.702205   -492.710709   -492.708185
    8 Atom     -492.570357   -492.615021   -492.582985
    9 Atom     -492.660610   -492.615897   -492.628996
   10 Atom     -492.763657   -492.782624   -492.767492
   11 Atom     -492.823622   -492.798860   -492.798104
   12 Atom     -492.894292   -492.914180   -492.894644
   13 Atom     -492.922115   -492.929854   -492.977597
   14 Atom     -492.710859   -492.685692   -492.680924
   15 Atom     -492.635058   -492.627385   -492.598606
   16 Atom     -492.644261   -492.586972   -492.560218
   17 Atom     -492.660476   -492.678362   -492.595400
   18 Atom     -492.841309   -492.784806   -492.661197
   19 Atom     -492.545729   -492.561486   -492.593861
   20 Atom    -1214.510981  -1215.547229  -1213.054149
   21 Atom       -1.699261     -1.957907     -1.590750
   22 Atom       -1.625087     -1.627721     -2.008747
   23 Atom       -1.621801     -1.616563     -2.034121
   24 Atom       -1.704135     -1.964162     -1.663042
   25 Atom       -1.601808     -1.616458     -2.006250
   26 Atom       -1.739320     -1.809775     -1.700992
   27 Atom       -1.737801     -1.882933     -1.666092
   28 Atom       -1.612571     -1.617975     -2.013574
   29 Atom       -1.625578     -1.621536     -2.040956
   30 Atom       -1.744667     -1.914029     -1.648891
   31 Atom       -1.640618     -1.638896     -2.052743
   32 Atom       -1.641216     -1.642073     -2.030555
   33 Atom       -1.644744     -1.640069     -2.041219
   34 Atom       -1.627750     -1.624446     -2.042297
   35 Atom       -1.706334     -1.945442     -1.661589
   36 Atom       -1.633933     -1.654302     -2.020892
   37 Atom       -1.728063     -1.846881     -1.745595
   38 Atom       -1.632555     -1.914419     -1.770930
   39 Atom       -1.631780     -1.661565     -2.010568
   40 Atom       -1.741086     -1.699746     -1.866077
   41 Atom       -1.746241     -1.612183     -1.910190
   42 Atom       -1.679384     -1.682524     -2.072004
   43 Atom       -1.732899     -1.836811     -1.676268
   44 Atom       -1.686952     -1.948695     -1.642917
   45 Atom       -1.969574     -1.608804     -1.697556
   46 Atom       -1.567835     -1.958303     -1.452006
 -----------------------------------------------------
 -----------------------------------------------------
    Center         ---- Electric Field Gradient ----
                     XY            XZ            YZ
 -----------------------------------------------------
    1 Atom       -0.013688     -0.105997     -0.042501
    2 Atom       -0.183964     -0.059662     -0.120338
    3 Atom       -0.002210     -0.036844     -0.007264
    4 Atom        0.000516     -0.057468      0.015051
    5 Atom       -0.021888     -0.010730     -0.002745
    6 Atom        0.026823     -0.000691     -0.028614
    7 Atom       -0.003910     -0.037007      0.003719
    8 Atom        0.027922     -0.022870     -0.009566
    9 Atom       -0.009520     -0.022060      0.018273
   10 Atom        0.002386      0.006244     -0.002161
   11 Atom       -0.008485     -0.017657     -0.010088
   12 Atom        0.012035     -0.007333      0.008376
   13 Atom        0.003791      0.008162      0.001243
   14 Atom       -0.014088     -0.002359     -0.012110
   15 Atom       -0.018783     -0.008598      0.017621
   16 Atom       -0.003568      0.000481     -0.014680
   17 Atom       -0.024104     -0.013977     -0.031082
   18 Atom       -0.187981      0.117135      0.117607
   19 Atom       -0.010565      0.000399      0.008893
   20 Atom       -0.159887      0.488362      1.130683
   21 Atom       -0.177944      0.009331      0.015945
   22 Atom       -0.008282      0.055092      0.057299
   23 Atom        0.003452     -0.015925      0.009875
   24 Atom       -0.150456      0.048617      0.106708
   25 Atom        0.003566     -0.032055      0.081968
   26 Atom        0.165109      0.112982     -0.141880
   27 Atom       -0.171715      0.076702      0.117924
   28 Atom        0.009459      0.045063     -0.064279
   29 Atom       -0.001950      0.036630     -0.000793
   30 Atom        0.183826      0.054312     -0.087278
   31 Atom       -0.002406      0.008063      0.001579
   32 Atom       -0.004910      0.047309      0.045769
   33 Atom        0.000903      0.021951     -0.020203
   34 Atom        0.003384     -0.032377      0.016191
   35 Atom       -0.151962      0.053696      0.107344
   36 Atom        0.008387     -0.044488      0.105161
   37 Atom        0.142299      0.105351     -0.161027
   38 Atom       -0.040493      0.027973      0.205087
   39 Atom       -0.016217     -0.049945     -0.121179
   40 Atom        0.093276     -0.170296      0.134244
   41 Atom        0.016597      0.199152     -0.025001
   42 Atom       -0.000826      0.030699     -0.053069
   43 Atom        0.179710      0.096985     -0.126325
   44 Atom       -0.167228      0.043467      0.090991
   45 Atom       -0.014901     -0.173015     -0.006014
   46 Atom        0.231933     -0.052578      0.153484
 -----------------------------------------------------
 -----------------------------------------------------
    Center         ---- Electric Field Gradient ----
                   ----       Eigenvalues       ----
 -----------------------------------------------------
    1 Atom     -493.994195   -493.297152   -493.219343
    2 Atom    -1217.660166  -1217.100549  -1214.484181
    3 Atom     -493.431096   -493.186682   -493.102795
    4 Atom     -493.796864   -493.253919   -493.137360
    5 Atom     -492.775411   -492.741472   -492.708649
    6 Atom     -492.628881   -492.592216   -492.543099
    7 Atom     -492.742323   -492.711381   -492.667395
    8 Atom     -492.628488   -492.597894   -492.541981
    9 Atom     -492.671942   -492.637403   -492.596158
   10 Atom     -492.783513   -492.771234   -492.759026
   11 Atom     -492.836614   -492.797686   -492.786286
   12 Atom     -492.923811   -492.892717   -492.886587
   13 Atom     -492.978783   -492.931330   -492.919453
   14 Atom     -492.718602   -492.689339   -492.669534
   15 Atom     -492.650861   -492.625301   -492.584888
   16 Atom     -492.644485   -492.593271   -492.553695
   17 Atom     -492.705390   -492.644264   -492.584584
   18 Atom     -493.070181   -492.627126   -492.590004
   19 Atom     -492.596332   -492.564573   -492.540171
   20 Atom    -1216.054192  -1214.521917  -1212.536250
   21 Atom       -2.049300     -1.608673     -1.589946
   22 Atom       -2.024940     -1.619306     -1.617310
   23 Atom       -2.034974     -1.622669     -1.614841
   24 Atom       -2.067032     -1.635305     -1.629001
   25 Atom       -2.025223     -1.602495     -1.596798
   26 Atom       -2.040312     -1.606387     -1.603387
   27 Atom       -2.048528     -1.624086     -1.614212
   28 Atom       -2.028837     -1.609924     -1.605359
   29 Atom       -2.044162     -1.624009     -1.619899
   30 Atom       -2.057593     -1.627340     -1.622654
   31 Atom       -2.052907     -1.642176     -1.637174
   32 Atom       -2.041525     -1.636990     -1.635329
   33 Atom       -2.043444     -1.643542     -1.639045
   34 Atom       -2.045450     -1.626758     -1.622285
   35 Atom       -2.055782     -1.632770     -1.624813
   36 Atom       -2.053772     -1.631293     -1.624062
   37 Atom       -2.059595     -1.633582     -1.627363
   38 Atom       -2.065541     -1.627176     -1.625186
   39 Atom       -2.055031     -1.625430     -1.623452
   40 Atom       -2.059302     -1.625463     -1.622145
   41 Atom       -2.045656     -1.612857     -1.610100
   42 Atom       -2.081392     -1.681208     -1.671311
   43 Atom       -2.041387     -1.607041     -1.597551
   44 Atom       -2.054858     -1.618279     -1.605428
   45 Atom       -2.054216     -1.613712     -1.608006
   46 Atom       -2.106060     -1.465082     -1.407002
 -----------------------------------------------------
 -----------------------------------------------------
    Center         ---- Electric Field Gradient ----
                       ( tensor representation )
                   3XX-RR        3YY-RR        3ZZ-RR
 -----------------------------------------------------
    1 Atom        0.190481      0.281073     -0.471554
    2 Atom       -0.680975      1.913561     -1.232587
    3 Atom        0.133181      0.053303     -0.186485
    4 Atom        0.253633      0.141717     -0.395350
    5 Atom        0.021756     -0.023433      0.001677
    6 Atom       -0.020426      0.009236      0.011190
    7 Atom        0.004828     -0.003676     -0.001152
    8 Atom        0.019097     -0.025567      0.006469
    9 Atom       -0.025443      0.019271      0.006172
   10 Atom        0.007600     -0.011366      0.003765
   11 Atom       -0.016760      0.008002      0.008758
   12 Atom        0.006746     -0.013141      0.006395
   13 Atom        0.021074      0.013335     -0.034409
   14 Atom       -0.018367      0.006799      0.011568
   15 Atom       -0.014708     -0.007035      0.021743
   16 Atom       -0.047111      0.010178      0.036933
   17 Atom       -0.015730     -0.033616      0.049346
   18 Atom       -0.078871     -0.022369      0.101240
   19 Atom        0.021296      0.005539     -0.026835
   20 Atom       -0.140195     -1.176443      1.316638
   21 Atom        0.050045     -0.208601      0.158556
   22 Atom        0.128765      0.126131     -0.254895
   23 Atom        0.135694      0.140932     -0.276626
   24 Atom        0.072978     -0.187049      0.114071
   25 Atom        0.139697      0.125048     -0.264745
   26 Atom        0.010709     -0.059746      0.049037
   27 Atom        0.024474     -0.120658      0.096183
   28 Atom        0.135469      0.130065     -0.265534
   29 Atom        0.137112      0.141154     -0.278266
   30 Atom        0.024528     -0.144833      0.120305
   31 Atom        0.136801      0.138523     -0.275324
   32 Atom        0.130066      0.129208     -0.259274
   33 Atom        0.130600      0.135275     -0.265875
   34 Atom        0.137081      0.140385     -0.277466
   35 Atom        0.064787     -0.174320      0.109533
   36 Atom        0.135776      0.115407     -0.251183
   37 Atom        0.045450     -0.073368      0.027918
   38 Atom        0.140079     -0.141784      0.001705
   39 Atom        0.136191      0.106406     -0.242597
   40 Atom        0.027884      0.069223     -0.097107
   41 Atom        0.009964      0.144022     -0.153986
   42 Atom        0.131920      0.128780     -0.260700
   43 Atom        0.015760     -0.088151      0.072391
   44 Atom        0.072570     -0.189174      0.116604
   45 Atom       -0.210930      0.149840      0.061089
   46 Atom        0.091546     -0.298922      0.207375
 -----------------------------------------------------
 -----------------------------------------------------
    Center         ---- Electric Field Gradient ----
                       ( tensor representation )
                   ----       Eigenvalues       ----
 -----------------------------------------------------
    1 Atom       -0.490632      0.206411      0.284220
    2 Atom       -1.245201     -0.685583      1.930785
    3 Atom       -0.190905      0.053509      0.137396
    4 Atom       -0.400816      0.142129      0.258688
    5 Atom       -0.033567      0.000372      0.033195
    6 Atom       -0.040816     -0.004151      0.044967
    7 Atom       -0.035290     -0.004348      0.039638
    8 Atom       -0.039034     -0.008439      0.047473
    9 Atom       -0.036775     -0.002235      0.039010
   10 Atom       -0.012255      0.000023      0.012232
   11 Atom       -0.029752      0.009176      0.020575
   12 Atom       -0.022773      0.008321      0.014452
   13 Atom       -0.035594      0.011859      0.023735
   14 Atom       -0.026111      0.003153      0.022958
   15 Atom       -0.030511     -0.004951      0.035462
   16 Atom       -0.047334      0.003879      0.043456
   17 Atom       -0.060644      0.000482      0.060162
   18 Atom       -0.307744      0.135311      0.172433
   19 Atom       -0.029307      0.002453      0.026854
   20 Atom       -1.683405     -0.151131      1.834536
   21 Atom       -0.299993      0.140634      0.159360
   22 Atom       -0.271088      0.134546      0.136542
   23 Atom       -0.277479      0.134825      0.142654
   24 Atom       -0.289919      0.141807      0.148112
   25 Atom       -0.283718      0.139010      0.144707
   26 Atom       -0.290283      0.143641      0.146642
   27 Atom       -0.286252      0.138189      0.148063
   28 Atom       -0.280797      0.138116      0.142681
   29 Atom       -0.281472      0.138681      0.142791
   30 Atom       -0.288397      0.141856      0.146541
   31 Atom       -0.275488      0.135243      0.140245
   32 Atom       -0.270244      0.134291      0.135953
   33 Atom       -0.268100      0.131802      0.136299
   34 Atom       -0.280619      0.138073      0.142546
   35 Atom       -0.284660      0.138352      0.146308
   36 Atom       -0.284063      0.138416      0.145647
   37 Atom       -0.286081      0.139931      0.146150
   38 Atom       -0.292907      0.145459      0.147448
   39 Atom       -0.287060      0.142541      0.144519
   40 Atom       -0.290332      0.143507      0.146825
   41 Atom       -0.289452      0.143347      0.146105
   42 Atom       -0.270089      0.130096      0.139993
   43 Atom       -0.292727      0.141618      0.151109
   44 Atom       -0.295336      0.141243      0.154093
   45 Atom       -0.295572      0.144932      0.150639
   46 Atom       -0.446678      0.194299      0.252379
 -----------------------------------------------------
 Unable to Open any file for archive entry.
 1\1\GINC-EXP-2-29\SP\RwB97XD\6-31G(d)\C18H26O2\HKLEM\12-Aug-2024\0\\# 
 wb97xd 6-31G(d) prop=efg\\19nt_xstal_distance_cutoff5_ligand_conf_1\\0
 ,1\C,0,-2.0234,0.1414,0.0645\O,0,-3.1212,-0.2658,-0.3299\C,0,-0.9539,-
 0.7685,0.4151\C,0,0.2793,-0.3391,0.7632\C,0,0.6251,1.1338,0.8296\C,0,-
 0.3382,1.9959,0.0089\C,0,-1.7947,1.6167,0.2094\C,0,1.3144,-1.3302,1.20
 53\C,0,2.7376,-0.9589,0.7953\C,0,3.0518,0.4805,1.1947\C,0,2.0895,1.421
 3,0.4388\C,0,4.4895,0.8982,0.9186\C,0,4.7607,2.3581,1.3268\C,0,3.8851,
 3.2763,0.4745\C,0,2.4023,2.9188,0.6121\C,0,5.6442,0.1146,1.5623\C,0,6.
 8394,1.1087,1.5284\C,0,6.2623,2.4472,1.0158\C,0,4.5283,2.6148,2.825\O,
 0,6.9435,3.5547,1.5857\H,0,-1.1989,-1.8279,0.4058\H,0,0.5188,1.402,1.8
 955\H,0,-0.0804,1.8973,-1.0565\H,0,-0.2095,3.0505,0.2646\H,0,-2.1406,1
 .8816,1.2181\H,0,-2.4543,2.1429,-0.485\H,0,1.0497,-2.3303,0.8458\H,0,1
 .2535,-1.3835,2.3024\H,0,2.8575,-1.0664,-0.2914\H,0,3.4409,-1.6573,1.2
 602\H,0,2.8583,0.5697,2.2742\H,0,2.206,1.1859,-0.6325\H,0,4.632,0.8508
 ,-0.1751\H,0,4.1873,3.1755,-0.5772\H,0,4.0323,4.3303,0.746\H,0,2.0173,
 3.2404,1.5881\H,0,1.8416,3.4974,-0.1298\H,0,5.8558,-0.8213,1.0383\H,0,
 5.3894,-0.1587,2.5932\H,0,7.6503,0.7553,0.8839\H,0,7.2668,1.2674,2.523
 3\H,0,6.3658,2.4859,-0.0801\H,0,5.207,2.0318,3.4543\H,0,4.6944,3.6724,
 3.0492\H,0,3.5113,2.3641,3.1361\H,0,6.3225,4.295,1.6414\\Version=ES64L
 -G16RevC.01\State=1-A\HF=-851.7927482\RMSD=8.115e-09\Dipole=1.0269583,
 0.4471569,0.4543151\Quadrupole=-23.2917991,13.4133427,9.8784564,-11.79
 15376,-8.402721,-2.6798165\PG=C01 [X(C18H26O2)]\\@
 The archive entry for this job was punched.


 THIS CURIOUS WORLD WHICH WE INHABIT IS MORE WONDERFUL THAN IT IS CONVENIENT;
 MORE BEAUTIFUL THAN IT IS USEFUL;
 IT IS MORE TO BE ADMIRED THAN IT IS TO BE USED.

                                                                 -- THOREAU
 Job cpu time:       0 days  0 hours  9 minutes 48.2 seconds.
 Elapsed time:       0 days  0 hours  0 minutes 24.9 seconds.
 File lengths (MBytes):  RWF=     71 Int=      0 D2E=      0 Chk=      8 Scr=      1
 Normal termination of Gaussian 16 at Mon Aug 12 07:11:03 2024.
