 Entering Gaussian System, Link 0=g16
 Initial command:
 /cm/shared/apps/spack/cpu/opt/spack/linux-centos8-zen/gcc-8.3.1/gaussian-16.C.01-po5bqktfeugvmjyga3v7eigbecnokxng/g16/l1.exe "/scratch/hklem/job_32994858/Gau-165438.inp" -scrdir="/scratch/hklem/job_32994858/"
 Entering Link 1 = /cm/shared/apps/spack/cpu/opt/spack/linux-centos8-zen/gcc-8.3.1/gaussian-16.C.01-po5bqktfeugvmjyga3v7eigbecnokxng/g16/l1.exe PID=    165440.
  
 Copyright (c) 1988-2019, Gaussian, Inc.  All Rights Reserved.
  
 This is part of the Gaussian(R) 16 program.  It is based on
 the Gaussian(R) 09 system (copyright 2009, Gaussian, Inc.),
 the Gaussian(R) 03 system (copyright 2003, Gaussian, Inc.),
 the Gaussian(R) 98 system (copyright 1998, Gaussian, Inc.),
 the Gaussian(R) 94 system (copyright 1995, Gaussian, Inc.),
 the Gaussian 92(TM) system (copyright 1992, Gaussian, Inc.),
 the Gaussian 90(TM) system (copyright 1990, Gaussian, Inc.),
 the Gaussian 88(TM) system (copyright 1988, Gaussian, Inc.),
 the Gaussian 86(TM) system (copyright 1986, Carnegie Mellon
 University), and the Gaussian 82(TM) system (copyright 1983,
 Carnegie Mellon University). Gaussian is a federally registered
 trademark of Gaussian, Inc.
  
 This software contains proprietary and confidential information,
 including trade secrets, belonging to Gaussian, Inc.
  
 This software is provided under written license and may be
 used, copied, transmitted, or stored only in accord with that
 written license.
  
 The following legend is applicable only to US Government
 contracts under FAR:
  
                    RESTRICTED RIGHTS LEGEND
  
 Use, reproduction and disclosure by the US Government is
 subject to restrictions as set forth in subparagraphs (a)
 and (c) of the Commercial Computer Software - Restricted
 Rights clause in FAR 52.227-19.
  
 Gaussian, Inc.
 340 Quinnipiac St., Bldg. 40, Wallingford CT 06492
  
  
 ---------------------------------------------------------------
 Warning -- This program may not be used in any manner that
 competes with the business of Gaussian, Inc. or will provide
 assistance to any competitor of Gaussian, Inc.  The licensee
 of this program is prohibited from giving any competitor of
 Gaussian, Inc. access to this program.  By using this program,
 the user acknowledges that Gaussian, Inc. is engaged in the
 business of creating and licensing software in the field of
 computational chemistry and represents and warrants to the
 licensee that it is not a competitor of Gaussian, Inc. and that
 it will not use this program in any manner prohibited above.
 ---------------------------------------------------------------
  

 Cite this work as:
 Gaussian 16, Revision C.01,
 M. J. Frisch, G. W. Trucks, H. B. Schlegel, G. E. Scuseria, 
 M. A. Robb, J. R. Cheeseman, G. Scalmani, V. Barone, 
 G. A. Petersson, H. Nakatsuji, X. Li, M. Caricato, A. V. Marenich, 
 J. Bloino, B. G. Janesko, R. Gomperts, B. Mennucci, H. P. Hratchian, 
 J. V. Ortiz, A. F. Izmaylov, J. L. Sonnenberg, D. Williams-Young, 
 F. Ding, F. Lipparini, F. Egidi, J. Goings, B. Peng, A. Petrone, 
 T. Henderson, D. Ranasinghe, V. G. Zakrzewski, J. Gao, N. Rega, 
 G. Zheng, W. Liang, M. Hada, M. Ehara, K. Toyota, R. Fukuda, 
 J. Hasegawa, M. Ishida, T. Nakajima, Y. Honda, O. Kitao, H. Nakai, 
 T. Vreven, K. Throssell, J. A. Montgomery, Jr., J. E. Peralta, 
 F. Ogliaro, M. J. Bearpark, J. J. Heyd, E. N. Brothers, K. N. Kudin, 
 V. N. Staroverov, T. A. Keith, R. Kobayashi, J. Normand, 
 K. Raghavachari, A. P. Rendell, J. C. Burant, S. S. Iyengar, 
 J. Tomasi, M. Cossi, J. M. Millam, M. Klene, C. Adamo, R. Cammi, 
 J. W. Ochterski, R. L. Martin, K. Morokuma, O. Farkas, 
 J. B. Foresman, and D. J. Fox, Gaussian, Inc., Wallingford CT, 2019.
 
 ******************************************
 Gaussian 16:  ES64L-G16RevC.01  3-Jul-2019
                12-Aug-2024 
 ******************************************
 %nprocshared=24
 Will use up to   24 processors via shared memory.
 %mem=48GB
 --------------------------
 # wb97xd 6-31G(d) prop=efg
 --------------------------
 1/38=1,172=1/1;
 2/12=2,17=6,18=5,40=1/2;
 3/5=1,6=6,7=1,11=2,25=1,30=1,74=-58/1,2,3;
 4//1;
 5/5=2,38=5/2;
 6/7=2,8=2,9=2,10=2,14=1,28=1/1,2;
 99/5=1,9=1/99;
 -----------------------------------------
 19nt_xstal_distance_cutoff3_ligand_conf_1
 -----------------------------------------
 Symbolic Z-matrix:
 Charge =  0 Multiplicity = 1
 C                     2.547     2.835     0.065 
 O                     3.5539    3.5427    0.1945 
 C                     2.6002    1.397    -0.1069 
 C                     1.5112    0.6515   -0.4158 
 C                     0.143     1.2888   -0.5493 
 C                     0.0532    2.5398    0.3267 
 C                     1.1936    3.4996    0.0243 
 C                     1.6883   -0.7935   -0.7762 
 C                     0.4449   -1.6783   -0.6669 
 C                    -0.786    -0.9472   -1.2006 
 C                    -1.0163    0.2999   -0.316 
 C                    -2.0373   -1.8094   -1.281 
 C                    -3.2747   -1.0045   -1.7245 
 C                    -3.5622    0.0494   -0.6625 
 C                    -2.3728    1.0036   -0.5246 
 C                    -2.0352   -3.0207   -2.2282 
 C                    -3.5393   -3.2901   -2.5062 
 C                    -4.3109   -2.1344   -1.8165 
 C                    -3.0902   -0.3468   -3.109 
 O                    -5.551    -1.8198   -2.4285 
 H                     3.5782    0.9288   -0.0373 
 H                     0.0797    1.5839   -1.6114 
 H                     0.0864    2.2426    1.3846 
 H                    -0.8988    3.0546    0.1705 
 H                     1.0761    3.9005   -0.9938 
 H                     1.2096    4.3553    0.7048 
 H                     2.5303   -1.2176   -0.2156 
 H                     2.003    -0.7953   -1.8305 
 H                     0.2677   -1.9811    0.3742 
 H                     0.6273   -2.5996   -1.2307 
 H                    -0.542    -0.5979   -2.21 
 H                    -0.9823   -0.0393    0.7339 
 H                    -2.2568   -2.1786   -0.2631 
 H                    -3.7567   -0.4539    0.2954 
 H                    -4.4697    0.614    -0.906 
 H                    -2.3101    1.634    -1.4224 
 H                    -2.5622    1.685     0.313 
 H                    -1.5192   -3.8847   -1.8035 
 H                    -1.5053   -2.7651   -3.154 
 H                    -3.8653   -4.2614   -2.1202 
 H                    -3.7649   -3.284    -3.5779 
 H                    -4.5544   -2.4395   -0.7905 
 H                    -3.0878   -1.088    -3.9151 
 H                    -3.9108    0.353    -3.3033 
 H                    -2.1544    0.2108   -3.195 
 H                    -5.4801   -1.0028   -2.9435 
 
                          Input orientation:                          
 ---------------------------------------------------------------------
 Center     Atomic      Atomic             Coordinates (Angstroms)
 Number     Number       Type             X           Y           Z
 ---------------------------------------------------------------------
      1          6           0        2.547000    2.835000    0.065000
      2          8           0        3.553900    3.542700    0.194500
      3          6           0        2.600200    1.397000   -0.106900
      4          6           0        1.511200    0.651500   -0.415800
      5          6           0        0.143000    1.288800   -0.549300
      6          6           0        0.053200    2.539800    0.326700
      7          6           0        1.193600    3.499600    0.024300
      8          6           0        1.688300   -0.793500   -0.776200
      9          6           0        0.444900   -1.678300   -0.666900
     10          6           0       -0.786000   -0.947200   -1.200600
     11          6           0       -1.016300    0.299900   -0.316000
     12          6           0       -2.037300   -1.809400   -1.281000
     13          6           0       -3.274700   -1.004500   -1.724500
     14          6           0       -3.562200    0.049400   -0.662500
     15          6           0       -2.372800    1.003600   -0.524600
     16          6           0       -2.035200   -3.020700   -2.228200
     17          6           0       -3.539300   -3.290100   -2.506200
     18          6           0       -4.310900   -2.134400   -1.816500
     19          6           0       -3.090200   -0.346800   -3.109000
     20          8           0       -5.551000   -1.819800   -2.428500
     21          1           0        3.578200    0.928800   -0.037300
     22          1           0        0.079700    1.583900   -1.611400
     23          1           0        0.086400    2.242600    1.384600
     24          1           0       -0.898800    3.054600    0.170500
     25          1           0        1.076100    3.900500   -0.993800
     26          1           0        1.209600    4.355300    0.704800
     27          1           0        2.530300   -1.217600   -0.215600
     28          1           0        2.003000   -0.795300   -1.830500
     29          1           0        0.267700   -1.981100    0.374200
     30          1           0        0.627300   -2.599600   -1.230700
     31          1           0       -0.542000   -0.597900   -2.210000
     32          1           0       -0.982300   -0.039300    0.733900
     33          1           0       -2.256800   -2.178600   -0.263100
     34          1           0       -3.756700   -0.453900    0.295400
     35          1           0       -4.469700    0.614000   -0.906000
     36          1           0       -2.310100    1.634000   -1.422400
     37          1           0       -2.562200    1.685000    0.313000
     38          1           0       -1.519200   -3.884700   -1.803500
     39          1           0       -1.505300   -2.765100   -3.154000
     40          1           0       -3.865300   -4.261400   -2.120200
     41          1           0       -3.764900   -3.284000   -3.577900
     42          1           0       -4.554400   -2.439500   -0.790500
     43          1           0       -3.087800   -1.088000   -3.915100
     44          1           0       -3.910800    0.353000   -3.303300
     45          1           0       -2.154400    0.210800   -3.195000
     46          1           0       -5.480100   -1.002800   -2.943500
 ---------------------------------------------------------------------
                    Distance matrix (angstroms):
                    1          2          3          4          5
     1  C    0.000000
     2  O    1.237521   0.000000
     3  C    1.449215   2.367364   0.000000
     4  C    2.464087   3.592231   1.355400   0.000000
     5  C    2.923579   4.155423   2.499051   1.515238   0.000000
     6  C    2.524811   3.643924   2.825104   2.498549   1.529850
     7  C    1.508324   2.366821   2.533113   2.899350   2.514043
     8  C    3.822433   4.819269   2.465322   1.499759   2.602962
     9  C    5.032333   6.137323   3.796892   2.574493   2.984737
    10  C    5.197660   6.398456   4.261197   2.906696   2.507375
    11  C    4.389647   5.626997   3.785026   2.553789   1.541534
    12  C    6.663180   7.879314   5.758986   4.404140   3.858489
    13  C    7.199740   8.425519   6.549678   5.230666   4.280303
    14  C    6.753603   7.973486   6.332447   5.114956   3.908636
    15  C    5.282621   6.487673   5.005993   3.901444   2.532035
    16  C    7.781038   8.954649   6.745585   5.417269   5.112245
    17  C    9.009493  10.212464   8.088202   6.738956   6.193151
    18  C    8.675585   9.905991   7.947127   6.604548   5.758587
    19  C    7.209449   8.377672   6.665890   5.424280   4.436309
    20  O    9.667591  10.887412   9.065301   7.748094   6.753993
    21  H    2.169663   2.624270   1.086526   2.119586   3.491754
    22  H    3.234677   4.378155   2.941321   2.085191   1.104150
    23  H    2.854266   3.889750   3.042828   2.793402   2.157060
    24  H    3.454402   4.479437   3.881699   3.453511   2.172903
    25  H    2.102355   2.771204   3.062186   3.328573   2.808778
    26  H    2.123510   2.533075   3.368110   3.881345   3.480492
    27  H    4.062337   4.886348   2.617792   2.138266   3.477441
    28  H    4.131336   5.032312   2.851951   2.082420   3.073198
    29  H    5.337193   6.429912   4.133228   3.016782   3.400095
    30  H    5.907534   6.951549   4.596528   3.466265   3.977249
    31  H    5.148043   6.300999   4.275053   2.999297   2.605146
    32  H    4.600542   5.805066   3.950216   2.831353   2.162580
    33  H    6.951283   8.167430   6.033222   4.714934   4.226560
    34  H    7.113830   8.332338   6.633088   5.429409   4.354099
    35  H    7.423595   8.612000   7.157872   6.001072   4.675424
    36  H    5.219787   6.375264   5.088984   4.071963   2.626626
    37  H    5.242893   6.393103   5.187450   4.265192   2.866818
    38  H    8.073391   9.213828   6.909722   5.629045   5.576830
    39  H    7.625235   8.751931   6.592649   5.316970   5.092687
    40  H    9.810789  11.013916   8.824600   7.479861   7.024167
    41  H    9.515932  10.695778   8.629838   7.302347   6.734582
    42  H    8.887188  10.124301   8.147045   6.818078   6.001997
    43  H    7.936126   9.079888   7.282236   6.035044   5.236015
    44  H    7.694735   8.839148   7.328030   6.150190   4.989342
    45  H    6.294219   7.427985   5.792206   4.621125   3.666041
    46  H    9.392237  10.588757   8.893626   7.616052   6.527088
                    6          7          8          9         10
     6  C    0.000000
     7  C    1.520912   0.000000
     8  C    3.873090   4.395024   0.000000
     9  C    4.351211   5.277211   1.529987   0.000000
    10  C    3.898214   5.019285   2.515134   1.527893   0.000000
    11  C    2.563990   3.903529   2.953332   2.484253   1.546226
    12  C    5.086298   6.350433   3.894480   2.560395   1.521711
    13  C    5.276780   6.581103   5.057189   3.925296   2.543891
    14  C    4.500192   5.915506   5.318943   4.363693   2.998341
    15  C    2.995012   4.387541   4.448079   3.892592   2.603945
    16  C    6.465917   7.616641   4.575279   3.223444   2.629803
    17  C    7.410743   8.654698   6.045967   4.674909   3.843752
    18  C    6.744392   8.088883   6.234632   4.913984   3.770106
    19  C    5.478819   6.554640   5.336250   4.498186   3.051526
    20  O    7.616055   8.933189   7.496056   6.250926   4.997439
    21  H    3.892742   3.507011   2.661581   4.124432   4.890694
    22  H    2.161175   2.754305   2.989512   3.415758   2.706411
    23  H    1.099355   2.157859   4.056235   4.439666   4.197519
    24  H    1.093491   2.144187   4.732568   4.990702   4.231671
    25  H    2.154425   1.100479   4.738752   5.623903   5.197151
    26  H    2.185466   1.093416   5.378908   6.234634   5.977414
    27  H    4.533009   4.908798   1.096858   2.182844   3.470041
    28  H    4.424717   4.747797   1.100267   2.135727   2.863279
    29  H    4.526235   5.569362   2.179890   1.098625   2.158524
    30  H    5.400789   6.252676   2.143429   1.095415   2.174569
    31  H    4.078513   4.979348   2.658624   2.126592   1.095644
    32  H    2.808884   4.214485   3.159323   2.585626   2.145951
    33  H    5.286517   6.650550   4.212551   2.777146   2.135066
    34  H    4.845468   6.341067   5.559827   4.480917   3.362502
    35  H    5.068025   6.423793   6.318138   5.428177   4.011705
    36  H    3.076526   4.224845   4.722026   4.374030   3.005773
    37  H    2.751579   4.181167   5.039451   4.616778   3.517719
    38  H    6.948697   8.076387   4.571534   3.165083   3.087066
    39  H    6.533465   7.525431   4.442997   3.342167   2.763680
    40  H    8.221818   9.509178   6.683946   5.230900   4.616457
    41  H    7.983761   9.142199   6.617364   5.364197   4.470574
    42  H    6.875430   8.305198   6.456069   5.058429   4.073816
    43  H    6.404661   7.409138   5.722810   4.835207   3.561828
    44  H    5.802783   6.857763   6.249049   5.481688   3.984500
    45  H    4.764463   5.691151   4.650329   4.088563   2.681625
    46  H    7.339048   8.580077   7.491792   6.383168   5.007531
                   11         12         13         14         15
    11  C    0.000000
    12  C    2.534327   0.000000
    13  C    2.964069   1.541335   0.000000
    14  C    2.581554   2.482539   1.523550   0.000000
    15  C    1.542336   2.932178   2.507120   1.531074   0.000000
    16  C    3.964978   1.537674   2.419739   3.769438   4.383060
    17  C    4.904142   2.439178   2.430028   3.814710   4.870659
    18  C    4.362534   2.358313   1.535854   2.580940   3.907977
    19  C    3.538380   2.566979   1.543843   2.522919   3.002893
    20  O    5.433166   3.696343   2.518307   3.250845   4.658044
    21  H    4.645710   6.370115   7.317550   7.221463   5.971387
    22  H    2.127894   4.013146   4.238467   4.064300   2.744565
    23  H    2.807503   5.294736   5.613123   4.723667   3.350795
    24  H    2.799797   5.202070   5.070722   4.101075   2.619626
    25  H    4.219226   6.509893   6.597152   6.037761   4.528475
    26  H    4.737397   7.244949   7.398507   6.571176   5.057559
    27  H    3.858919   4.727396   6.001684   6.238875   5.391623
    28  H    3.550964   4.201711   5.282908   5.748843   4.908059
    29  H    2.707027   2.842920   4.231653   4.457108   4.085158
    30  H    3.456182   2.779755   4.244265   4.989185   4.741543
    31  H    2.149009   2.136983   2.805117   3.454759   2.959257
    32  H    1.103858   2.882031   3.497205   2.934908   2.145915
    33  H    2.772111   1.104812   2.133148   2.612963   3.195033
    34  H    2.907201   2.697917   2.148367   1.099415   2.170688
    35  H    3.517489   3.453992   2.171983   1.096185   2.166620
    36  H    2.162837   3.457082   2.825491   2.157814   1.098809
    37  H    2.168859   3.876492   3.448546   2.150997   1.096245
    38  H    4.469501   2.201886   3.373955   4.577431   5.124421
    39  H    4.205662   2.168990   2.876449   4.284836   4.676473
    40  H    5.672512   3.171458   3.333584   4.560675   5.700326
    41  H    5.571277   3.230294   2.978508   4.433080   5.444639
    42  H    4.499735   2.640721   2.137572   2.682437   4.084730
    43  H    4.378459   2.926167   2.200144   3.478238   4.047407
    44  H    4.159917   3.503666   2.177163   2.680955   3.241897
    45  H    3.097071   2.785375   2.212328   2.901983   2.794149
    46  H    5.341001   3.907350   2.519872   3.160447   4.419506
                   16         17         18         19         20
    16  C    0.000000
    17  C    1.553119   0.000000
    18  C    2.476658   1.551353   0.000000
    19  C    3.006422   3.037774   2.521146   0.000000
    20  O    3.720636   2.492941   1.418226   2.947600   0.000000
    21  H    7.204780   8.634431   8.647927   7.451849   9.829289
    22  H    5.104467   6.136261   5.757186   4.002334   6.630053
    23  H    6.727246   7.674294   6.981505   6.081794   7.926103
    24  H    6.629814   7.375106   6.520454   5.208347   7.222018
    25  H    7.688104   8.677211   8.131213   6.314403   8.871226
    26  H    8.575348   9.555873   8.885329   7.425840   9.677559
    27  H    5.305235   6.810444   7.085578   6.381228   8.400416
    28  H    4.627919   6.115365   6.454357   5.270332   7.646576
    29  H    3.627203   4.950094   5.078016   5.106771   6.460527
    30  H    2.874237   4.411830   4.994536   4.735285   6.341467
    31  H    2.846039   4.039738   4.089044   2.713775   5.160510
    32  H    4.332595   5.253970   4.687597   4.393823   5.834721
    33  H    2.149385   2.812781   2.575720   3.485569   3.958465
    34  H    3.990060   3.992525   2.755239   3.470682   3.536216
    35  H    4.570126   4.320681   2.899643   2.771167   3.067670
    36  H    4.731925   5.189635   4.284782   2.716016   4.841942
    37  H    5.373922   5.801227   4.709622   4.014608   5.360258
    38  H    1.092301   2.219942   3.295043   4.085230   4.572729
    39  H    1.096919   2.198278   3.171448   2.891731   4.217538
    40  H    2.213655   1.094850   2.194293   4.111277   2.982959
    41  H    2.209724   1.095205   2.173068   3.049956   2.579759
    42  H    2.958233   2.167389   1.097750   3.449452   2.015015
    43  H    2.772892   2.652941   2.644815   1.095071   2.968647
    44  H    4.006940   3.747740   2.925374   1.095836   2.859474
    45  H    3.375130   3.827361   3.471414   1.092719   4.030850
    46  H    4.055972   3.031448   1.979312   2.483817   0.968370
                   21         22         23         24         25
    21  H    0.000000
    22  H    3.891844   0.000000
    23  H    3.992560   3.067564   0.000000
    24  H    4.960417   2.509101   1.761818   0.000000
    25  H    4.000800   2.596320   3.063483   2.443639   0.000000
    26  H    4.231061   3.784457   2.487410   2.534294   1.763493
    27  H    2.395186   3.975186   4.528385   5.491766   5.377289
    28  H    2.944375   3.067194   4.820691   5.219787   4.858986
    29  H    4.426766   4.084994   4.346656   5.173054   6.092467
    30  H    4.752012   4.236327   5.529852   6.021820   6.519881
    31  H    4.901784   2.346292   4.624335   4.374339   4.932848
    32  H    4.725476   3.043527   2.602422   3.145888   4.769065
    33  H    6.614692   4.629638   5.268065   5.423887   6.971198
    34  H    7.471500   4.744099   4.819428   4.526893   6.631651
    35  H    8.100767   4.704820   5.353245   4.457208   6.447068
    36  H    6.089982   2.397785   3.740703   2.558750   4.097203
    37  H    6.196698   3.270042   2.911070   2.159400   4.455715
    38  H    7.229988   5.700787   7.091244   7.241233   8.246244
    39  H    7.014320   4.879102   6.943303   6.729714   7.467283
    40  H    9.310335   7.070321   8.378638   8.220175   9.607436
    41  H    9.176309   6.507267   8.366733   7.902081   9.040459
    42  H    8.834701   6.191648   6.941912   6.668738   8.481713
    43  H    7.971221   4.741217   7.018209   6.216509   7.124408
    44  H    8.190447   4.505744   6.443959   5.332736   6.541232
    45  H    6.584018   3.063396   5.488363   4.581519   5.375435
    46  H    9.707207   6.275100   7.762151   6.866426   8.415904
                   26         27         28         29         30
    26  H    0.000000
    27  H    5.800741   0.000000
    28  H    5.795335   1.750510   0.000000
    29  H    6.414549   2.459706   3.045996   0.000000
    30  H    7.242642   2.561593   2.346872   1.757145   0.000000
    31  H    6.008190   3.714928   2.580700   3.040879   2.516564
    32  H    4.910986   3.824696   4.007455   2.337193   3.606328
    33  H    7.459531   4.882838   4.745119   2.611179   3.071079
    34  H    6.925327   6.353796   6.148996   4.305153   5.113948
    35  H    6.989024   7.268522   6.688548   5.551253   6.034241
    36  H    4.931404   5.746082   4.966979   4.789757   5.156398
    37  H    4.637940   5.885411   5.620279   4.631670   5.560011
    38  H    9.035238   5.102284   4.685191   3.399865   2.566524
    39  H    8.541728   5.226377   4.235556   4.025715   2.876535
    40  H   10.391475   7.334570   6.821636   5.338866   4.871986
    41  H   10.072044   7.429981   6.520407   5.794696   5.026845
    42  H    9.034873   7.212248   6.839919   4.981898   5.202828
    43  H    8.333105   6.728012   5.508854   5.518614   4.826272
    44  H    7.635559   7.313579   6.201674   6.035884   5.797229
    45  H    6.610735   5.732675   4.489774   4.838407   4.415278
    46  H    9.315118   8.464874   7.568263   6.708309   6.540932
                   31         32         33         34         35
    31  H    0.000000
    32  H    3.028605   0.000000
    33  H    3.038021   2.682343   0.000000
    34  H    4.078242   2.839273   2.352916   0.000000
    35  H    4.312302   3.908712   3.620616   1.758449   0.000000
    36  H    2.954297   3.035229   3.985315   3.066401   2.443551
    37  H    3.957066   2.376226   3.918235   2.449905   2.504308
    38  H    3.453001   4.638293   2.414055   4.602410   5.454288
    39  H    2.552614   4.776953   3.044017   4.723220   5.025882
    40  H    4.947082   5.855229   3.220893   4.510429   5.060544
    41  H    4.412864   6.071455   3.805808   4.797081   4.778096
    42  H    4.637437   4.565595   2.371747   2.399607   3.056857
    43  H    3.103008   5.210192   3.900907   4.310200   3.723054
    44  H    3.667196   5.002899   4.288068   3.691270   2.475386
    45  H    2.055250   4.107630   3.783617   3.897702   3.280656
    46  H    5.008672   5.889126   4.353931   3.709700   2.790404
                   36         37         38         39         40
    36  H    0.000000
    37  H    1.754357   0.000000
    38  H    5.588095   6.048882   0.000000
    39  H    4.795646   5.739383   1.754294   0.000000
    40  H    6.136881   6.555776   2.397162   2.979472   0.000000
    41  H    5.563214   6.424683   2.924467   2.356850   1.757919
    42  H    4.693568   4.711483   3.511013   3.871583   2.358449
    43  H    3.771956   5.083563   3.839387   2.428218   3.727820
    44  H    2.782263   4.082961   5.091881   3.940973   4.763873
    45  H    2.278563   3.826961   4.371827   3.046144   4.907438
    46  H    4.394924   5.132563   5.029282   4.353050   3.728790
                   41         42         43         44         45
    41  H    0.000000
    42  H    3.017630   0.000000
    43  H    2.322624   3.706831   0.000000
    44  H    3.650269   3.811357   1.768646   0.000000
    45  H    3.867034   4.308795   1.754041   1.765472   0.000000
    46  H    2.923739   2.748897   2.583479   2.104840   3.549135
                   46
    46  H    0.000000
 Stoichiometry    C18H26O2
 Framework group  C1[X(C18H26O2)]
 Deg. of freedom   132
 Full point group                 C1      NOp   1
 Largest Abelian subgroup         C1      NOp   1
 Largest concise Abelian subgroup C1      NOp   1
                         Standard orientation:                         
 ---------------------------------------------------------------------
 Center     Atomic      Atomic             Coordinates (Angstroms)
 Number     Number       Type             X           Y           Z
 ---------------------------------------------------------------------
      1          6           0        4.658159   -0.191958    0.245214
      2          8           0        5.875543   -0.143824    0.462278
      3          6           0        3.835300    0.985707    0.054874
      4          6           0        2.482565    0.935624   -0.013765
      5          6           0        1.747385   -0.387563    0.054300
      6          6           0        2.633406   -1.514350   -0.480265
      7          6           0        3.975968   -1.537146    0.234005
      8          6           0        1.698761    2.214244   -0.006077
      9          6           0        0.264817    2.135303   -0.533744
     10          6           0       -0.423154    0.864299   -0.038060
     11          6           0        0.354291   -0.346332   -0.604423
     12          6           0       -1.903627    0.782555   -0.380292
     13          6           0       -2.529450   -0.559668    0.046907
     14          6           0       -1.856114   -1.672338   -0.746687
     15          6           0       -0.355235   -1.706587   -0.446060
     16          6           0       -2.855003    1.831951    0.218116
     17          6           0       -4.250338    1.151352    0.173358
     18          6           0       -3.998518   -0.298692   -0.317207
     19          6           0       -2.402001   -0.818145    1.563613
     20          8           0       -4.951874   -1.240694    0.146592
     21          1           0        4.346386    1.944138    0.027670
     22          1           0        1.567747   -0.547060    1.132000
     23          1           0        2.787371   -1.371195   -1.559331
     24          1           0        2.144584   -2.484378   -0.354486
     25          1           0        3.826737   -1.817335    1.287703
     26          1           0        4.664775   -2.268953   -0.196763
     27          1           0        2.267359    3.003740   -0.512525
     28          1           0        1.645524    2.518053    1.050073
     29          1           0        0.247997    2.155803   -1.632049
     30          1           0       -0.274856    3.027830   -0.198958
     31          1           0       -0.319341    0.844939    1.052482
     32          1           0        0.482803   -0.168932   -1.686327
     33          1           0       -1.997376    0.831626   -1.480025
     34          1           0       -2.023423   -1.496600   -1.818991
     35          1           0       -2.306729   -2.645074   -0.517882
     36          1           0       -0.200995   -2.068891    0.579769
     37          1           0        0.119752   -2.443854   -1.103767
     38          1           0       -2.826498    2.780862   -0.322139
     39          1           0       -2.559542    2.052346    1.251248
     40          1           0       -4.945449    1.672983   -0.492537
     41          1           0       -4.722280    1.120043    1.161166
     42          1           0       -4.072210   -0.315401   -1.412353
     43          1           0       -3.046851   -0.151752    2.146081
     44          1           0       -2.694829   -1.848788    1.793578
     45          1           0       -1.385292   -0.673440    1.936975
     46          1           0       -4.578000   -1.784100    0.855584
 ---------------------------------------------------------------------
 Rotational constants (GHZ):           0.8937861           0.1773380           0.1568717
 Standard basis: 6-31G(d) (6D, 7F)
 There are   352 symmetry adapted cartesian basis functions of A   symmetry.
 There are   352 symmetry adapted basis functions of A   symmetry.
   352 basis functions,   664 primitive gaussians,   352 cartesian basis functions
    75 alpha electrons       75 beta electrons
       nuclear repulsion energy      1665.7308377340 Hartrees.
 NAtoms=   46 NActive=   46 NUniq=   46 SFac= 1.00D+00 NAtFMM=   60 NAOKFM=F Big=F
 Integral buffers will be    131072 words long.
 Raffenetti 2 integral format.
 Two-electron integral symmetry is turned on.
 Nuclear repulsion after empirical dispersion term =     1665.6819355888 Hartrees.
 One-electron integrals computed using PRISM.
 NBasis=   352 RedAO= T EigKep=  1.25D-03  NBF=   352
 NBsUse=   352 1.00D-06 EigRej= -1.00D+00 NBFU=   352
 ExpMin= 1.61D-01 ExpMax= 5.48D+03 ExpMxC= 8.25D+02 IAcc=3 IRadAn=         5 AccDes= 0.00D+00
 Harris functional with IExCor= 4639 and IRadAn=       5 diagonalized for initial guess.
 HarFok:  IExCor= 4639 AccDes= 0.00D+00 IRadAn=         5 IDoV= 1 UseB2=F ITyADJ=14
 ICtDFT=  3500011 ScaDFX=  1.000000  1.000000  1.000000  1.000000
 FoFCou: FMM=F IPFlag=           0 FMFlag=      100000 FMFlg1=           0
         NFxFlg=           0 DoJE=T BraDBF=F KetDBF=T FulRan=T
         wScrn=  0.000000 ICntrl=       500 IOpCl=  0 I1Cent=   200000004 NGrid=           0
         NMat0=    1 NMatS0=      1 NMatT0=    0 NMatD0=    1 NMtDS0=    0 NMtDT0=    0
 Petite list used in FoFCou.
 Requested convergence on RMS density matrix=1.00D-08 within 128 cycles.
 Requested convergence on MAX density matrix=1.00D-06.
 Requested convergence on             energy=1.00D-06.
 No special actions if energy rises.
 Integral accuracy reduced to 1.0D-05 until final iterations.
 Initial convergence to 1.0D-05 achieved.  Increase integral accuracy.
 SCF Done:  E(RwB97XD) =  -851.787796190     A.U. after   15 cycles
            NFock= 15  Conv=0.52D-08     -V/T= 2.0093

 **********************************************************************

            Population analysis using the SCF Density.

 **********************************************************************

 Orbital symmetries:
       Occupied  (A) (A) (A) (A) (A) (A) (A) (A) (A) (A) (A) (A)
                 (A) (A) (A) (A) (A) (A) (A) (A) (A) (A) (A) (A)
                 (A) (A) (A) (A) (A) (A) (A) (A) (A) (A) (A) (A)
                 (A) (A) (A) (A) (A) (A) (A) (A) (A) (A) (A) (A)
                 (A) (A) (A) (A) (A) (A) (A) (A) (A) (A) (A) (A)
                 (A) (A) (A) (A) (A) (A) (A) (A) (A) (A) (A) (A)
                 (A) (A) (A)
       Virtual   (A) (A) (A) (A) (A) (A) (A) (A) (A) (A) (A) (A)
                 (A) (A) (A) (A) (A) (A) (A) (A) (A) (A) (A) (A)
                 (A) (A) (A) (A) (A) (A) (A) (A) (A) (A) (A) (A)
                 (A) (A) (A) (A) (A) (A) (A) (A) (A) (A) (A) (A)
                 (A) (A) (A) (A) (A) (A) (A) (A) (A) (A) (A) (A)
                 (A) (A) (A) (A) (A) (A) (A) (A) (A) (A) (A) (A)
                 (A) (A) (A) (A) (A) (A) (A) (A) (A) (A) (A) (A)
                 (A) (A) (A) (A) (A) (A) (A) (A) (A) (A) (A) (A)
                 (A) (A) (A) (A) (A) (A) (A) (A) (A) (A) (A) (A)
                 (A) (A) (A) (A) (A) (A) (A) (A) (A) (A) (A) (A)
                 (A) (A) (A) (A) (A) (A) (A) (A) (A) (A) (A) (A)
                 (A) (A) (A) (A) (A) (A) (A) (A) (A) (A) (A) (A)
                 (A) (A) (A) (A) (A) (A) (A) (A) (A) (A) (A) (A)
                 (A) (A) (A) (A) (A) (A) (A) (A) (A) (A) (A) (A)
                 (A) (A) (A) (A) (A) (A) (A) (A) (A) (A) (A) (A)
                 (A) (A) (A) (A) (A) (A) (A) (A) (A) (A) (A) (A)
                 (A) (A) (A) (A) (A) (A) (A) (A) (A) (A) (A) (A)
                 (A) (A) (A) (A) (A) (A) (A) (A) (A) (A) (A) (A)
                 (A) (A) (A) (A) (A) (A) (A) (A) (A) (A) (A) (A)
                 (A) (A) (A) (A) (A) (A) (A) (A) (A) (A) (A) (A)
                 (A) (A) (A) (A) (A) (A) (A) (A) (A) (A) (A) (A)
                 (A) (A) (A) (A) (A) (A) (A) (A) (A) (A) (A) (A)
                 (A) (A) (A) (A) (A) (A) (A) (A) (A) (A) (A) (A)
                 (A)
 The electronic state is 1-A.
 Alpha  occ. eigenvalues --  -19.26382 -19.23655 -10.37041 -10.34136 -10.33318
 Alpha  occ. eigenvalues --  -10.31825 -10.31112 -10.31081 -10.30849 -10.30649
 Alpha  occ. eigenvalues --  -10.30394 -10.30288 -10.30221 -10.30104 -10.29990
 Alpha  occ. eigenvalues --  -10.29743 -10.29680 -10.29550 -10.29438 -10.28930
 Alpha  occ. eigenvalues --   -1.11616  -1.10903  -0.98276  -0.95767  -0.90876
 Alpha  occ. eigenvalues --   -0.90219  -0.87372  -0.84439  -0.82518  -0.81856
 Alpha  occ. eigenvalues --   -0.78161  -0.77841  -0.73709  -0.72142  -0.69780
 Alpha  occ. eigenvalues --   -0.67948  -0.66135  -0.65378  -0.63540  -0.60884
 Alpha  occ. eigenvalues --   -0.59501  -0.57754  -0.56597  -0.55995  -0.55395
 Alpha  occ. eigenvalues --   -0.54338  -0.53347  -0.52999  -0.51563  -0.50401
 Alpha  occ. eigenvalues --   -0.50216  -0.49871  -0.49456  -0.48356  -0.47874
 Alpha  occ. eigenvalues --   -0.47421  -0.46937  -0.46465  -0.45565  -0.44970
 Alpha  occ. eigenvalues --   -0.44225  -0.43944  -0.43091  -0.42386  -0.42155
 Alpha  occ. eigenvalues --   -0.41300  -0.41062  -0.40341  -0.39524  -0.38910
 Alpha  occ. eigenvalues --   -0.36861  -0.36160  -0.33956  -0.32762  -0.30988
 Alpha virt. eigenvalues --    0.02275   0.12731   0.14296   0.14839   0.16393
 Alpha virt. eigenvalues --    0.16789   0.17369   0.18127   0.18963   0.20046
 Alpha virt. eigenvalues --    0.20515   0.20806   0.21811   0.22837   0.22925
 Alpha virt. eigenvalues --    0.23364   0.23742   0.24714   0.24987   0.25413
 Alpha virt. eigenvalues --    0.25624   0.25867   0.26427   0.27166   0.27334
 Alpha virt. eigenvalues --    0.27736   0.28323   0.28501   0.28696   0.30097
 Alpha virt. eigenvalues --    0.30480   0.30773   0.31567   0.32132   0.32264
 Alpha virt. eigenvalues --    0.33874   0.34284   0.34907   0.35735   0.36383
 Alpha virt. eigenvalues --    0.36755   0.37689   0.38764   0.39061   0.41163
 Alpha virt. eigenvalues --    0.41645   0.41838   0.45083   0.45436   0.49637
 Alpha virt. eigenvalues --    0.50952   0.57513   0.58333   0.59367   0.59941
 Alpha virt. eigenvalues --    0.61212   0.61659   0.62250   0.62806   0.65043
 Alpha virt. eigenvalues --    0.65717   0.66188   0.66828   0.67735   0.69275
 Alpha virt. eigenvalues --    0.70286   0.71085   0.72189   0.72817   0.73046
 Alpha virt. eigenvalues --    0.73909   0.74699   0.75098   0.75852   0.76519
 Alpha virt. eigenvalues --    0.77437   0.77725   0.78319   0.79663   0.81040
 Alpha virt. eigenvalues --    0.82209   0.82899   0.84393   0.84864   0.85810
 Alpha virt. eigenvalues --    0.87086   0.87406   0.88637   0.89329   0.90092
 Alpha virt. eigenvalues --    0.91450   0.92222   0.93215   0.93569   0.94182
 Alpha virt. eigenvalues --    0.94766   0.94991   0.96006   0.96361   0.96407
 Alpha virt. eigenvalues --    0.97095   0.97417   0.97735   0.97968   0.98497
 Alpha virt. eigenvalues --    0.99279   0.99728   1.00335   1.01579   1.02227
 Alpha virt. eigenvalues --    1.03391   1.03620   1.03836   1.04444   1.04998
 Alpha virt. eigenvalues --    1.05489   1.06200   1.06704   1.07821   1.08259
 Alpha virt. eigenvalues --    1.08927   1.10145   1.10925   1.13177   1.13525
 Alpha virt. eigenvalues --    1.14565   1.16005   1.16178   1.19029   1.19518
 Alpha virt. eigenvalues --    1.21717   1.23806   1.24123   1.26597   1.29155
 Alpha virt. eigenvalues --    1.29741   1.31927   1.33273   1.34854   1.36583
 Alpha virt. eigenvalues --    1.37958   1.40658   1.42858   1.43276   1.47297
 Alpha virt. eigenvalues --    1.49384   1.52845   1.53227   1.55777   1.57120
 Alpha virt. eigenvalues --    1.61339   1.62551   1.63697   1.66559   1.67887
 Alpha virt. eigenvalues --    1.69290   1.71386   1.72885   1.74249   1.76969
 Alpha virt. eigenvalues --    1.78367   1.79388   1.80718   1.81598   1.83370
 Alpha virt. eigenvalues --    1.83922   1.85367   1.85957   1.87980   1.88815
 Alpha virt. eigenvalues --    1.89219   1.91153   1.92195   1.93712   1.94290
 Alpha virt. eigenvalues --    1.95780   1.96275   1.97432   1.97843   1.98975
 Alpha virt. eigenvalues --    1.99481   2.00344   2.01314   2.02049   2.02742
 Alpha virt. eigenvalues --    2.03629   2.05033   2.06170   2.06853   2.07956
 Alpha virt. eigenvalues --    2.08362   2.09553   2.10628   2.11713   2.12140
 Alpha virt. eigenvalues --    2.12895   2.14884   2.15549   2.16947   2.17575
 Alpha virt. eigenvalues --    2.18880   2.19937   2.20332   2.22799   2.24547
 Alpha virt. eigenvalues --    2.26390   2.28024   2.29509   2.30773   2.31869
 Alpha virt. eigenvalues --    2.33776   2.35020   2.36101   2.37272   2.39489
 Alpha virt. eigenvalues --    2.39736   2.41582   2.41936   2.43600   2.44534
 Alpha virt. eigenvalues --    2.47239   2.49102   2.51062   2.51467   2.52534
 Alpha virt. eigenvalues --    2.54024   2.57321   2.57735   2.60166   2.61718
 Alpha virt. eigenvalues --    2.62535   2.63865   2.64551   2.65187   2.66486
 Alpha virt. eigenvalues --    2.68770   2.69921   2.71654   2.74293   2.76428
 Alpha virt. eigenvalues --    2.78136   2.79750   2.80986   2.82665   2.84470
 Alpha virt. eigenvalues --    2.86447   2.90976   2.94930   2.98005   2.99309
 Alpha virt. eigenvalues --    3.00549   3.02323   3.07808   3.08797   3.08847
 Alpha virt. eigenvalues --    3.21145   3.25691   4.02937   4.08066   4.23633
 Alpha virt. eigenvalues --    4.27174   4.30313   4.32976   4.35551   4.37909
 Alpha virt. eigenvalues --    4.40688   4.42747   4.47654   4.53661   4.55540
 Alpha virt. eigenvalues --    4.65023   4.66126   4.73955   4.77338   4.80951
 Alpha virt. eigenvalues --    4.85576   4.89914
          Condensed to atoms (all electrons):
               1          2          3          4          5          6
     1  C    4.419913   0.529952   0.380572  -0.001628  -0.019257  -0.027103
     2  O    0.529952   8.105344  -0.059193   0.004794   0.000172   0.003495
     3  C    0.380572  -0.059193   5.285194   0.515160  -0.045228   0.007715
     4  C   -0.001628   0.004794   0.515160   4.878518   0.373210  -0.043987
     5  C   -0.019257   0.000172  -0.045228   0.373210   5.084027   0.355462
     6  C   -0.027103   0.003495   0.007715  -0.043987   0.355462   5.141875
     7  C    0.339476  -0.081372  -0.131043  -0.001581  -0.035899   0.281853
     8  C    0.003266  -0.000083  -0.041062   0.359973  -0.061876   0.004278
     9  C   -0.000108   0.000000   0.003657  -0.031849  -0.011349  -0.000279
    10  C   -0.000010  -0.000000   0.000368  -0.012935  -0.038686   0.004126
    11  C   -0.000054   0.000000   0.004466  -0.030438   0.363763  -0.047312
    12  C   -0.000000   0.000000   0.000003   0.000382   0.003469  -0.000128
    13  C   -0.000000   0.000000   0.000000   0.000006   0.000028  -0.000006
    14  C    0.000000  -0.000000   0.000001  -0.000086   0.003222   0.000334
    15  C   -0.000001  -0.000000  -0.000132   0.004489  -0.040854  -0.004750
    16  C   -0.000000  -0.000000  -0.000000   0.000000  -0.000102   0.000001
    17  C   -0.000000  -0.000000   0.000000   0.000000   0.000002  -0.000000
    18  C    0.000000  -0.000000  -0.000000  -0.000000   0.000004   0.000000
    19  C   -0.000000  -0.000000   0.000000   0.000006  -0.000013   0.000000
    20  O    0.000000   0.000000   0.000000   0.000000  -0.000000  -0.000000
    21  H   -0.028625   0.000983   0.361609  -0.048972   0.004611  -0.000427
    22  H    0.000661   0.000015  -0.006568  -0.044298   0.370329  -0.034989
    23  H   -0.002501   0.000024   0.003068  -0.003886  -0.042471   0.384276
    24  H    0.003321  -0.000069  -0.000269   0.004794  -0.033240   0.376006
    25  H   -0.026747  -0.000938   0.002197  -0.000811  -0.003779  -0.038286
    26  H   -0.025088   0.002258   0.004684  -0.000289   0.004096  -0.029850
    27  H    0.000155  -0.000001  -0.002920  -0.036960   0.003621  -0.000149
    28  H   -0.000130   0.000005  -0.010367  -0.036793   0.001812   0.000059
    29  H    0.000002  -0.000000  -0.000224  -0.002724   0.000902   0.000003
    30  H    0.000001  -0.000000  -0.000085   0.003911   0.000024   0.000010
    31  H    0.000006   0.000000  -0.000375  -0.005255  -0.001239   0.000268
    32  H    0.000016  -0.000000  -0.000132  -0.003896  -0.039592  -0.004191
    33  H    0.000000   0.000000  -0.000001  -0.000056   0.000136   0.000002
    34  H    0.000000   0.000000  -0.000000   0.000002   0.000049  -0.000021
    35  H   -0.000000  -0.000000  -0.000000   0.000001  -0.000098   0.000002
    36  H    0.000003  -0.000000  -0.000014   0.000232  -0.003528  -0.001971
    37  H   -0.000008  -0.000000   0.000013  -0.000163  -0.005310   0.001155
    38  H    0.000000  -0.000000   0.000000  -0.000001   0.000001  -0.000000
    39  H    0.000000   0.000000  -0.000000  -0.000001   0.000000   0.000000
    40  H    0.000000  -0.000000   0.000000   0.000000  -0.000000   0.000000
    41  H    0.000000  -0.000000  -0.000000  -0.000000  -0.000000   0.000000
    42  H    0.000000   0.000000  -0.000000   0.000000   0.000000  -0.000000
    43  H   -0.000000   0.000000   0.000000   0.000000  -0.000002  -0.000000
    44  H    0.000000   0.000000  -0.000000  -0.000000  -0.000009   0.000000
    45  H    0.000000   0.000000  -0.000001  -0.000010   0.000155   0.000001
    46  H   -0.000000   0.000000  -0.000000   0.000000  -0.000000   0.000000
               7          8          9         10         11         12
     1  C    0.339476   0.003266  -0.000108  -0.000010  -0.000054  -0.000000
     2  O   -0.081372  -0.000083   0.000000  -0.000000   0.000000   0.000000
     3  C   -0.131043  -0.041062   0.003657   0.000368   0.004466   0.000003
     4  C   -0.001581   0.359973  -0.031849  -0.012935  -0.030438   0.000382
     5  C   -0.035899  -0.061876  -0.011349  -0.038686   0.363763   0.003469
     6  C    0.281853   0.004278  -0.000279   0.004126  -0.047312  -0.000128
     7  C    5.362189  -0.000026   0.000026  -0.000092   0.004338   0.000002
     8  C   -0.000026   5.152624   0.337181  -0.042519  -0.015803   0.003708
     9  C    0.000026   0.337181   5.097626   0.365581  -0.042430  -0.038624
    10  C   -0.000092  -0.042519   0.365581   5.024539   0.367369   0.367381
    11  C    0.004338  -0.015803  -0.042430   0.367369   5.056131  -0.036896
    12  C    0.000002   0.003708  -0.038624   0.367381  -0.036896   5.096865
    13  C    0.000000  -0.000138   0.004216  -0.028763  -0.010633   0.356185
    14  C   -0.000002  -0.000009  -0.000133  -0.010852  -0.038170  -0.048702
    15  C    0.000125   0.000375   0.004092  -0.038946   0.358962  -0.016091
    16  C   -0.000000   0.000018  -0.003282  -0.033495   0.004114   0.357483
    17  C    0.000000   0.000000   0.000109   0.003920  -0.000182  -0.056520
    18  C   -0.000000   0.000001  -0.000111   0.004174   0.000195  -0.064800
    19  C    0.000000  -0.000004   0.000286  -0.006962  -0.002861  -0.058294
    20  O    0.000000  -0.000000   0.000000  -0.000057  -0.000003   0.002986
    21  H    0.006272  -0.006669   0.000221   0.000005  -0.000087   0.000000
    22  H   -0.005267   0.002240  -0.000163  -0.006969  -0.047424   0.000034
    23  H   -0.039165   0.000069  -0.000029   0.000056  -0.003253   0.000000
    24  H   -0.029787  -0.000112  -0.000005  -0.000002  -0.008535  -0.000002
    25  H    0.366136  -0.000011  -0.000001   0.000001  -0.000011   0.000000
    26  H    0.369328   0.000008  -0.000000   0.000001  -0.000071  -0.000000
    27  H    0.000010   0.378204  -0.030599   0.004107  -0.000181  -0.000098
    28  H   -0.000066   0.378598  -0.040257  -0.004438  -0.000622  -0.000045
    29  H   -0.000003  -0.033812   0.379414  -0.038646  -0.008893  -0.004018
    30  H   -0.000000  -0.032407   0.379954  -0.033557   0.004928  -0.006155
    31  H   -0.000017   0.000946  -0.050887   0.381750  -0.055180  -0.045011
    32  H   -0.000057   0.000278  -0.007287  -0.047624   0.376101  -0.002918
    33  H   -0.000000   0.000103  -0.005457  -0.043257  -0.004776   0.381442
    34  H   -0.000000   0.000001  -0.000045  -0.000388  -0.003255  -0.007500
    35  H   -0.000000  -0.000000   0.000010  -0.000056   0.003991   0.006412
    36  H   -0.000099  -0.000004  -0.000043  -0.002622  -0.046602  -0.000183
    37  H    0.000061  -0.000011  -0.000106   0.003975  -0.028209   0.000080
    38  H    0.000000  -0.000012   0.001011  -0.000900  -0.000095  -0.025755
    39  H   -0.000000  -0.000036  -0.000481  -0.004843   0.000098  -0.040231
    40  H   -0.000000  -0.000000  -0.000003  -0.000056   0.000003   0.001720
    41  H   -0.000000  -0.000000   0.000001  -0.000116   0.000002   0.002905
    42  H   -0.000000  -0.000000   0.000004  -0.000157   0.000003  -0.006213
    43  H    0.000000  -0.000000  -0.000024  -0.000006   0.000016  -0.003271
    44  H   -0.000000  -0.000000  -0.000001  -0.000002   0.000149   0.005559
    45  H   -0.000000   0.000017  -0.000036   0.002189  -0.000381  -0.007456
    46  H    0.000000  -0.000000   0.000000  -0.000010  -0.000000   0.000530
              13         14         15         16         17         18
     1  C   -0.000000   0.000000  -0.000001  -0.000000  -0.000000   0.000000
     2  O    0.000000  -0.000000  -0.000000  -0.000000  -0.000000  -0.000000
     3  C    0.000000   0.000001  -0.000132  -0.000000   0.000000  -0.000000
     4  C    0.000006  -0.000086   0.004489   0.000000   0.000000  -0.000000
     5  C    0.000028   0.003222  -0.040854  -0.000102   0.000002   0.000004
     6  C   -0.000006   0.000334  -0.004750   0.000001  -0.000000   0.000000
     7  C    0.000000  -0.000002   0.000125  -0.000000   0.000000  -0.000000
     8  C   -0.000138  -0.000009   0.000375   0.000018   0.000000   0.000001
     9  C    0.004216  -0.000133   0.004092  -0.003282   0.000109  -0.000111
    10  C   -0.028763  -0.010852  -0.038946  -0.033495   0.003920   0.004174
    11  C   -0.010633  -0.038170   0.358962   0.004114  -0.000182   0.000195
    12  C    0.356185  -0.048702  -0.016091   0.357483  -0.056520  -0.064800
    13  C    5.087945   0.376935  -0.041663  -0.063460  -0.063145   0.381863
    14  C    0.376935   5.105123   0.348605   0.005631   0.007662  -0.045658
    15  C   -0.041663   0.348605   5.110787   0.000228  -0.000216   0.004304
    16  C   -0.063460   0.005631   0.000228   5.131793   0.315350  -0.053664
    17  C   -0.063145   0.007662  -0.000216   0.315350   5.238120   0.337271
    18  C    0.381863  -0.045658   0.004304  -0.053664   0.337271   4.767901
    19  C    0.325855  -0.068546  -0.003839  -0.001661  -0.015359  -0.051415
    20  O   -0.032549   0.000508   0.000046   0.003216  -0.053703   0.265378
    21  H    0.000000  -0.000000   0.000001  -0.000000  -0.000000  -0.000000
    22  H   -0.000046   0.000031  -0.007588  -0.000003   0.000000  -0.000001
    23  H   -0.000000  -0.000039  -0.001142   0.000000   0.000000  -0.000000
    24  H   -0.000003   0.000087   0.004627   0.000000   0.000000   0.000000
    25  H    0.000000  -0.000000  -0.000032   0.000000   0.000000  -0.000000
    26  H   -0.000000  -0.000000   0.000001   0.000000  -0.000000   0.000000
    27  H    0.000001  -0.000000   0.000008  -0.000001  -0.000000  -0.000000
    28  H    0.000003   0.000000  -0.000001  -0.000011  -0.000000  -0.000000
    29  H   -0.000033  -0.000005   0.000125  -0.000348  -0.000010  -0.000002
    30  H    0.000045  -0.000003  -0.000127   0.003624  -0.000008  -0.000007
    31  H   -0.009177   0.000475  -0.001620  -0.004840   0.000033   0.000037
    32  H   -0.000986   0.000187  -0.044601  -0.000079   0.000004  -0.000044
    33  H   -0.052928  -0.006606  -0.000795  -0.042193  -0.001718  -0.003023
    34  H   -0.037563   0.379879  -0.036356   0.000103   0.000014  -0.005459
    35  H   -0.033269   0.373487  -0.033703  -0.000243   0.000127  -0.004596
    36  H   -0.008973  -0.035399   0.381264  -0.000013   0.000001  -0.000044
    37  H    0.004798  -0.032775   0.380211   0.000007   0.000003  -0.000079
    38  H    0.005033  -0.000128  -0.000003   0.376725  -0.025403   0.001899
    39  H   -0.004874  -0.000003  -0.000017   0.382920  -0.031415   0.001753
    40  H    0.004305  -0.000140   0.000003  -0.029500   0.378038  -0.025855
    41  H   -0.002727  -0.000134   0.000003  -0.026321   0.367536  -0.030169
    42  H   -0.049436  -0.010183   0.000047   0.004810  -0.062829   0.395128
    43  H   -0.032301   0.004604   0.000119   0.001236   0.003848  -0.005374
    44  H   -0.032415  -0.005077  -0.000880  -0.000189   0.000274  -0.003885
    45  H   -0.028933  -0.003170   0.000925   0.000045  -0.000360   0.004555
    46  H   -0.014973  -0.000406  -0.000037  -0.000250   0.002471  -0.032740
              19         20         21         22         23         24
     1  C   -0.000000   0.000000  -0.028625   0.000661  -0.002501   0.003321
     2  O   -0.000000   0.000000   0.000983   0.000015   0.000024  -0.000069
     3  C    0.000000   0.000000   0.361609  -0.006568   0.003068  -0.000269
     4  C    0.000006   0.000000  -0.048972  -0.044298  -0.003886   0.004794
     5  C   -0.000013  -0.000000   0.004611   0.370329  -0.042471  -0.033240
     6  C    0.000000  -0.000000  -0.000427  -0.034989   0.384276   0.376006
     7  C    0.000000   0.000000   0.006272  -0.005267  -0.039165  -0.029787
     8  C   -0.000004  -0.000000  -0.006669   0.002240   0.000069  -0.000112
     9  C    0.000286   0.000000   0.000221  -0.000163  -0.000029  -0.000005
    10  C   -0.006962  -0.000057   0.000005  -0.006969   0.000056  -0.000002
    11  C   -0.002861  -0.000003  -0.000087  -0.047424  -0.003253  -0.008535
    12  C   -0.058294   0.002986   0.000000   0.000034   0.000000  -0.000002
    13  C    0.325855  -0.032549   0.000000  -0.000046  -0.000000  -0.000003
    14  C   -0.068546   0.000508  -0.000000   0.000031  -0.000039   0.000087
    15  C   -0.003839   0.000046   0.000001  -0.007588  -0.001142   0.004627
    16  C   -0.001661   0.003216  -0.000000  -0.000003   0.000000   0.000000
    17  C   -0.015359  -0.053703  -0.000000   0.000000   0.000000   0.000000
    18  C   -0.051415   0.265378  -0.000000  -0.000001  -0.000000   0.000000
    19  C    5.270118   0.000182   0.000000  -0.000139  -0.000000  -0.000002
    20  O    0.000182   8.274629   0.000000  -0.000000  -0.000000   0.000000
    21  H    0.000000   0.000000   0.536566  -0.000236  -0.000100   0.000013
    22  H   -0.000139  -0.000000  -0.000236   0.591497   0.005486  -0.002960
    23  H   -0.000000  -0.000000  -0.000100   0.005486   0.557456  -0.030881
    24  H   -0.000002   0.000000   0.000013  -0.002960  -0.030881   0.554415
    25  H   -0.000000   0.000000  -0.000157   0.005299   0.004875  -0.004763
    26  H    0.000000  -0.000000  -0.000113  -0.000097  -0.003264  -0.002304
    27  H    0.000000   0.000000   0.004469  -0.000094  -0.000005   0.000002
    28  H   -0.000004   0.000000   0.000377   0.000515   0.000002   0.000005
    29  H   -0.000004  -0.000000  -0.000008   0.000063  -0.000003   0.000002
    30  H   -0.000007  -0.000000  -0.000006  -0.000003   0.000000   0.000000
    31  H    0.001004  -0.000001  -0.000003   0.006470   0.000007   0.000002
    32  H    0.000055   0.000000  -0.000009   0.005974   0.004470   0.000020
    33  H    0.006541   0.000027  -0.000000   0.000003  -0.000001  -0.000000
    34  H    0.006155  -0.000197  -0.000000   0.000004   0.000002   0.000008
    35  H   -0.006929   0.003139   0.000000  -0.000005   0.000000   0.000005
    36  H    0.003737  -0.000001  -0.000000   0.006351   0.000169   0.001363
    37  H    0.000025   0.000001   0.000000   0.000047   0.000688   0.000969
    38  H    0.000013  -0.000035  -0.000000   0.000000   0.000000  -0.000000
    39  H    0.002526  -0.000036   0.000000  -0.000003  -0.000000  -0.000000
    40  H    0.000232   0.001984   0.000000  -0.000000  -0.000000  -0.000000
    41  H    0.001061   0.003063  -0.000000   0.000000  -0.000000   0.000000
    42  H    0.007470  -0.044375   0.000000  -0.000000   0.000000   0.000000
    43  H    0.378624  -0.000304  -0.000000   0.000002   0.000000   0.000000
    44  H    0.369297   0.000530   0.000000   0.000001   0.000000  -0.000000
    45  H    0.378082   0.000233  -0.000000   0.000549   0.000000  -0.000003
    46  H    0.009798   0.247034   0.000000  -0.000000   0.000000   0.000000
              25         26         27         28         29         30
     1  C   -0.026747  -0.025088   0.000155  -0.000130   0.000002   0.000001
     2  O   -0.000938   0.002258  -0.000001   0.000005  -0.000000  -0.000000
     3  C    0.002197   0.004684  -0.002920  -0.010367  -0.000224  -0.000085
     4  C   -0.000811  -0.000289  -0.036960  -0.036793  -0.002724   0.003911
     5  C   -0.003779   0.004096   0.003621   0.001812   0.000902   0.000024
     6  C   -0.038286  -0.029850  -0.000149   0.000059   0.000003   0.000010
     7  C    0.366136   0.369328   0.000010  -0.000066  -0.000003  -0.000000
     8  C   -0.000011   0.000008   0.378204   0.378598  -0.033812  -0.032407
     9  C   -0.000001  -0.000000  -0.030599  -0.040257   0.379414   0.379954
    10  C    0.000001   0.000001   0.004107  -0.004438  -0.038646  -0.033557
    11  C   -0.000011  -0.000071  -0.000181  -0.000622  -0.008893   0.004928
    12  C    0.000000  -0.000000  -0.000098  -0.000045  -0.004018  -0.006155
    13  C    0.000000  -0.000000   0.000001   0.000003  -0.000033   0.000045
    14  C   -0.000000  -0.000000  -0.000000   0.000000  -0.000005  -0.000003
    15  C   -0.000032   0.000001   0.000008  -0.000001   0.000125  -0.000127
    16  C    0.000000   0.000000  -0.000001  -0.000011  -0.000348   0.003624
    17  C    0.000000  -0.000000  -0.000000  -0.000000  -0.000010  -0.000008
    18  C   -0.000000   0.000000  -0.000000  -0.000000  -0.000002  -0.000007
    19  C   -0.000000   0.000000   0.000000  -0.000004  -0.000004  -0.000007
    20  O    0.000000  -0.000000   0.000000   0.000000  -0.000000  -0.000000
    21  H   -0.000157  -0.000113   0.004469   0.000377  -0.000008  -0.000006
    22  H    0.005299  -0.000097  -0.000094   0.000515   0.000063  -0.000003
    23  H    0.004875  -0.003264  -0.000005   0.000002  -0.000003   0.000000
    24  H   -0.004763  -0.002304   0.000002   0.000005   0.000002   0.000000
    25  H    0.532513  -0.020501  -0.000000   0.000005   0.000000   0.000000
    26  H   -0.020501   0.504333   0.000000  -0.000001  -0.000000   0.000000
    27  H   -0.000000   0.000000   0.525479  -0.025493  -0.003808  -0.000751
    28  H    0.000005  -0.000001  -0.025493   0.546997   0.004853  -0.006664
    29  H    0.000000  -0.000000  -0.003808   0.004853   0.563861  -0.031902
    30  H    0.000000   0.000000  -0.000751  -0.006664  -0.031902   0.554969
    31  H   -0.000001   0.000000   0.000074   0.004374   0.005771  -0.002660
    32  H    0.000008  -0.000000  -0.000056   0.000084   0.006559   0.000128
    33  H   -0.000000   0.000000   0.000003   0.000004   0.004106  -0.000067
    34  H    0.000000   0.000000  -0.000000  -0.000000  -0.000006   0.000001
    35  H    0.000000   0.000000   0.000000  -0.000000   0.000000  -0.000000
    36  H    0.000015   0.000001  -0.000000  -0.000000  -0.000001   0.000004
    37  H    0.000012   0.000000  -0.000000  -0.000000  -0.000009   0.000002
    38  H    0.000000  -0.000000   0.000001   0.000003   0.000145   0.000676
    39  H   -0.000000   0.000000   0.000001   0.000002   0.000055   0.000510
    40  H    0.000000   0.000000   0.000000   0.000000  -0.000000   0.000002
    41  H   -0.000000   0.000000   0.000000   0.000000  -0.000000   0.000001
    42  H   -0.000000   0.000000   0.000000  -0.000000  -0.000002  -0.000000
    43  H    0.000000   0.000000  -0.000000   0.000000   0.000000   0.000001
    44  H    0.000000  -0.000000   0.000000   0.000000   0.000000  -0.000000
    45  H   -0.000000   0.000000  -0.000000  -0.000007  -0.000001   0.000005
    46  H    0.000000   0.000000   0.000000   0.000000   0.000000  -0.000000
              31         32         33         34         35         36
     1  C    0.000006   0.000016   0.000000   0.000000  -0.000000   0.000003
     2  O    0.000000  -0.000000   0.000000   0.000000  -0.000000  -0.000000
     3  C   -0.000375  -0.000132  -0.000001  -0.000000  -0.000000  -0.000014
     4  C   -0.005255  -0.003896  -0.000056   0.000002   0.000001   0.000232
     5  C   -0.001239  -0.039592   0.000136   0.000049  -0.000098  -0.003528
     6  C    0.000268  -0.004191   0.000002  -0.000021   0.000002  -0.001971
     7  C   -0.000017  -0.000057  -0.000000  -0.000000  -0.000000  -0.000099
     8  C    0.000946   0.000278   0.000103   0.000001  -0.000000  -0.000004
     9  C   -0.050887  -0.007287  -0.005457  -0.000045   0.000010  -0.000043
    10  C    0.381750  -0.047624  -0.043257  -0.000388  -0.000056  -0.002622
    11  C   -0.055180   0.376101  -0.004776  -0.003255   0.003991  -0.046602
    12  C   -0.045011  -0.002918   0.381442  -0.007500   0.006412  -0.000183
    13  C   -0.009177  -0.000986  -0.052928  -0.037563  -0.033269  -0.008973
    14  C    0.000475   0.000187  -0.006606   0.379879   0.373487  -0.035399
    15  C   -0.001620  -0.044601  -0.000795  -0.036356  -0.033703   0.381264
    16  C   -0.004840  -0.000079  -0.042193   0.000103  -0.000243  -0.000013
    17  C    0.000033   0.000004  -0.001718   0.000014   0.000127   0.000001
    18  C    0.000037  -0.000044  -0.003023  -0.005459  -0.004596  -0.000044
    19  C    0.001004   0.000055   0.006541   0.006155  -0.006929   0.003737
    20  O   -0.000001   0.000000   0.000027  -0.000197   0.003139  -0.000001
    21  H   -0.000003  -0.000009  -0.000000  -0.000000   0.000000  -0.000000
    22  H    0.006470   0.005974   0.000003   0.000004  -0.000005   0.006351
    23  H    0.000007   0.004470  -0.000001   0.000002   0.000000   0.000169
    24  H    0.000002   0.000020  -0.000000   0.000008   0.000005   0.001363
    25  H   -0.000001   0.000008  -0.000000   0.000000   0.000000   0.000015
    26  H    0.000000  -0.000000   0.000000   0.000000   0.000000   0.000001
    27  H    0.000074  -0.000056   0.000003  -0.000000   0.000000  -0.000000
    28  H    0.004374   0.000084   0.000004  -0.000000  -0.000000  -0.000000
    29  H    0.005771   0.006559   0.004106  -0.000006   0.000000  -0.000001
    30  H   -0.002660   0.000128  -0.000067   0.000001  -0.000000   0.000004
    31  H    0.620227   0.006211   0.006157   0.000036  -0.000001   0.001063
    32  H    0.006211   0.604342   0.003498   0.002496  -0.000096   0.005552
    33  H    0.006157   0.003498   0.612396   0.005750   0.000053   0.000060
    34  H    0.000036   0.002496   0.005750   0.570370  -0.031281   0.004865
    35  H   -0.000001  -0.000096   0.000053  -0.031281   0.571166  -0.004446
    36  H    0.001063   0.005552   0.000060   0.004865  -0.004446   0.581458
    37  H   -0.000097  -0.006359  -0.000089  -0.004602  -0.001640  -0.033505
    38  H   -0.000125   0.000001  -0.006349  -0.000005   0.000003   0.000000
    39  H    0.005029   0.000003   0.005123  -0.000005   0.000006  -0.000003
    40  H    0.000001  -0.000000   0.000281  -0.000009  -0.000000   0.000000
    41  H   -0.000020  -0.000000  -0.000067   0.000001  -0.000005  -0.000000
    42  H   -0.000011  -0.000004   0.004874   0.005633  -0.000511  -0.000001
    43  H    0.000197   0.000001  -0.000070  -0.000125  -0.000050   0.000031
    44  H    0.000010   0.000002  -0.000115   0.000028   0.004886   0.000693
    45  H    0.003972  -0.000007   0.000031  -0.000075  -0.000194   0.000714
    46  H   -0.000002  -0.000000   0.000005   0.000021   0.001020  -0.000011
              37         38         39         40         41         42
     1  C   -0.000008   0.000000   0.000000   0.000000   0.000000   0.000000
     2  O   -0.000000  -0.000000   0.000000  -0.000000  -0.000000   0.000000
     3  C    0.000013   0.000000  -0.000000   0.000000  -0.000000  -0.000000
     4  C   -0.000163  -0.000001  -0.000001   0.000000  -0.000000   0.000000
     5  C   -0.005310   0.000001   0.000000  -0.000000  -0.000000   0.000000
     6  C    0.001155  -0.000000   0.000000   0.000000   0.000000  -0.000000
     7  C    0.000061   0.000000  -0.000000  -0.000000  -0.000000  -0.000000
     8  C   -0.000011  -0.000012  -0.000036  -0.000000  -0.000000  -0.000000
     9  C   -0.000106   0.001011  -0.000481  -0.000003   0.000001   0.000004
    10  C    0.003975  -0.000900  -0.004843  -0.000056  -0.000116  -0.000157
    11  C   -0.028209  -0.000095   0.000098   0.000003   0.000002   0.000003
    12  C    0.000080  -0.025755  -0.040231   0.001720   0.002905  -0.006213
    13  C    0.004798   0.005033  -0.004874   0.004305  -0.002727  -0.049436
    14  C   -0.032775  -0.000128  -0.000003  -0.000140  -0.000134  -0.010183
    15  C    0.380211  -0.000003  -0.000017   0.000003   0.000003   0.000047
    16  C    0.000007   0.376725   0.382920  -0.029500  -0.026321   0.004810
    17  C    0.000003  -0.025403  -0.031415   0.378038   0.367536  -0.062829
    18  C   -0.000079   0.001899   0.001753  -0.025855  -0.030169   0.395128
    19  C    0.000025   0.000013   0.002526   0.000232   0.001061   0.007470
    20  O    0.000001  -0.000035  -0.000036   0.001984   0.003063  -0.044375
    21  H    0.000000  -0.000000   0.000000   0.000000  -0.000000   0.000000
    22  H    0.000047   0.000000  -0.000003  -0.000000   0.000000  -0.000000
    23  H    0.000688   0.000000  -0.000000  -0.000000  -0.000000   0.000000
    24  H    0.000969  -0.000000  -0.000000  -0.000000   0.000000   0.000000
    25  H    0.000012   0.000000  -0.000000   0.000000  -0.000000  -0.000000
    26  H    0.000000  -0.000000   0.000000   0.000000   0.000000   0.000000
    27  H   -0.000000   0.000001   0.000001   0.000000   0.000000   0.000000
    28  H   -0.000000   0.000003   0.000002   0.000000   0.000000  -0.000000
    29  H   -0.000009   0.000145   0.000055  -0.000000  -0.000000  -0.000002
    30  H    0.000002   0.000676   0.000510   0.000002   0.000001  -0.000000
    31  H   -0.000097  -0.000125   0.005029   0.000001  -0.000020  -0.000011
    32  H   -0.006359   0.000001   0.000003  -0.000000  -0.000000  -0.000004
    33  H   -0.000089  -0.006349   0.005123   0.000281  -0.000067   0.004874
    34  H   -0.004602  -0.000005  -0.000005  -0.000009   0.000001   0.005633
    35  H   -0.001640   0.000003   0.000006  -0.000000  -0.000005  -0.000511
    36  H   -0.033505   0.000000  -0.000003   0.000000  -0.000000  -0.000001
    37  H    0.553521  -0.000000  -0.000000  -0.000000  -0.000000  -0.000006
    38  H   -0.000000   0.546514  -0.033368  -0.006129   0.002548  -0.000137
    39  H   -0.000000  -0.033368   0.569476   0.003361  -0.009555  -0.000177
    40  H   -0.000000  -0.006129   0.003361   0.537072  -0.028238  -0.006182
    41  H   -0.000000   0.002548  -0.009555  -0.028238   0.546994   0.004853
    42  H   -0.000006  -0.000137  -0.000177  -0.006182   0.004853   0.608026
    43  H   -0.000001   0.000029  -0.000002  -0.000060   0.001974   0.000103
    44  H   -0.000048   0.000001   0.000032  -0.000005  -0.000006  -0.000140
    45  H    0.000047  -0.000019   0.000024  -0.000000   0.000028  -0.000082
    46  H    0.000001   0.000003  -0.000002  -0.000209   0.001036   0.005733
              43         44         45         46
     1  C   -0.000000   0.000000   0.000000  -0.000000
     2  O    0.000000   0.000000   0.000000   0.000000
     3  C    0.000000  -0.000000  -0.000001  -0.000000
     4  C    0.000000  -0.000000  -0.000010   0.000000
     5  C   -0.000002  -0.000009   0.000155  -0.000000
     6  C   -0.000000   0.000000   0.000001   0.000000
     7  C    0.000000  -0.000000  -0.000000   0.000000
     8  C   -0.000000  -0.000000   0.000017  -0.000000
     9  C   -0.000024  -0.000001  -0.000036   0.000000
    10  C   -0.000006  -0.000002   0.002189  -0.000010
    11  C    0.000016   0.000149  -0.000381  -0.000000
    12  C   -0.003271   0.005559  -0.007456   0.000530
    13  C   -0.032301  -0.032415  -0.028933  -0.014973
    14  C    0.004604  -0.005077  -0.003170  -0.000406
    15  C    0.000119  -0.000880   0.000925  -0.000037
    16  C    0.001236  -0.000189   0.000045  -0.000250
    17  C    0.003848   0.000274  -0.000360   0.002471
    18  C   -0.005374  -0.003885   0.004555  -0.032740
    19  C    0.378624   0.369297   0.378082   0.009798
    20  O   -0.000304   0.000530   0.000233   0.247034
    21  H   -0.000000   0.000000  -0.000000   0.000000
    22  H    0.000002   0.000001   0.000549  -0.000000
    23  H    0.000000   0.000000   0.000000   0.000000
    24  H    0.000000  -0.000000  -0.000003   0.000000
    25  H    0.000000   0.000000  -0.000000   0.000000
    26  H    0.000000  -0.000000   0.000000   0.000000
    27  H   -0.000000   0.000000  -0.000000   0.000000
    28  H    0.000000   0.000000  -0.000007   0.000000
    29  H    0.000000   0.000000  -0.000001   0.000000
    30  H    0.000001  -0.000000   0.000005  -0.000000
    31  H    0.000197   0.000010   0.003972  -0.000002
    32  H    0.000001   0.000002  -0.000007  -0.000000
    33  H   -0.000070  -0.000115   0.000031   0.000005
    34  H   -0.000125   0.000028  -0.000075   0.000021
    35  H   -0.000050   0.004886  -0.000194   0.001020
    36  H    0.000031   0.000693   0.000714  -0.000011
    37  H   -0.000001  -0.000048   0.000047   0.000001
    38  H    0.000029   0.000001  -0.000019   0.000003
    39  H   -0.000002   0.000032   0.000024  -0.000002
    40  H   -0.000060  -0.000005  -0.000000  -0.000209
    41  H    0.001974  -0.000006   0.000028   0.001036
    42  H    0.000103  -0.000140  -0.000082   0.005733
    43  H    0.528590  -0.028999  -0.026804   0.000238
    44  H   -0.028999   0.555770  -0.026535   0.006153
    45  H   -0.026804  -0.026535   0.527608  -0.000161
    46  H    0.000238   0.006153  -0.000161   0.363597
 Mulliken charges:
               1
     1  C    0.453916
     2  O   -0.505387
     3  C   -0.271094
     4  C    0.161139
     5  C   -0.186562
     6  C   -0.327473
     7  C   -0.405337
     8  C   -0.387297
     9  C   -0.309802
    10  C   -0.132574
    11  C   -0.112270
    12  C   -0.118233
    13  C    0.001774
    14  C   -0.300542
    15  C   -0.325951
    16  C   -0.327650
    17  C   -0.343915
    18  C    0.162463
    19  C   -0.545028
    20  O   -0.671693
    21  H    0.170286
    22  H    0.161281
    23  H    0.166091
    24  H    0.167300
    25  H    0.184979
    26  H    0.196867
    27  H    0.184982
    28  H    0.187199
    29  H    0.158600
    30  H    0.165616
    31  H    0.132404
    32  H    0.141947
    33  H    0.136974
    34  H    0.151477
    35  H    0.152815
    36  H    0.149887
    37  H    0.167401
    38  H    0.163859
    39  H    0.154133
    40  H    0.169387
    41  H    0.165351
    42  H    0.143763
    43  H    0.177781
    44  H    0.154921
    45  H    0.175054
    46  H    0.411158
 Sum of Mulliken charges =  -0.00000
 Mulliken charges with hydrogens summed into heavy atoms:
               1
     1  C    0.453916
     2  O   -0.505387
     3  C   -0.100808
     4  C    0.161139
     5  C   -0.025282
     6  C    0.005918
     7  C   -0.023491
     8  C   -0.015116
     9  C    0.014414
    10  C   -0.000170
    11  C    0.029678
    12  C    0.018741
    13  C    0.001774
    14  C    0.003750
    15  C   -0.008663
    16  C   -0.009657
    17  C   -0.009176
    18  C    0.306227
    19  C   -0.037272
    20  O   -0.260535
 Electronic spatial extent (au):  <R**2>=           6833.7209
 Charge=             -0.0000 electrons
 Dipole moment (field-independent basis, Debye):
    X=             -3.0787    Y=              0.3222    Z=              0.1883  Tot=              3.1013
 Quadrupole moment (field-independent basis, Debye-Ang):
   XX=           -173.6842   YY=           -114.3395   ZZ=           -117.8838
   XY=             -2.5923   XZ=             -6.7758   YZ=             -2.1761
 Traceless Quadrupole moment (field-independent basis, Debye-Ang):
   XX=            -38.3817   YY=             20.9630   ZZ=             17.4187
   XY=             -2.5923   XZ=             -6.7758   YZ=             -2.1761
 Octapole moment (field-independent basis, Debye-Ang**2):
  XXX=           -167.8093  YYY=             -6.2049  ZZZ=              2.7551  XYY=              8.4828
  XXY=             16.9472  XXZ=            -12.2518  XZZ=             -9.9497  YZZ=             -4.6243
  YYZ=              4.4787  XYZ=             11.1353
 Hexadecapole moment (field-independent basis, Debye-Ang**3):
 XXXX=          -9431.6337 YYYY=          -1422.7601 ZZZZ=           -432.8836 XXXY=            -99.7064
 XXXZ=           -226.1841 YYYX=             50.0903 YYYZ=            -15.5959 ZZZX=              4.8249
 ZZZY=             -1.3242 XXYY=          -1345.1734 XXZZ=          -1204.3685 YYZZ=           -311.3400
 XXYZ=            -46.7893 YYXZ=            -21.2050 ZZXY=              7.8039
 N-N= 1.665681935589D+03 E-N=-5.308043366354D+03  KE= 8.439252940905D+02

 **********************************************************************

            Electrostatic Properties Using The SCF Density.

 **********************************************************************

       Atomic Center    1 is at   4.658159 -0.191958  0.245214
       Atomic Center    2 is at   5.875543 -0.143824  0.462278
       Atomic Center    3 is at   3.835300  0.985707  0.054874
       Atomic Center    4 is at   2.482565  0.935624 -0.013765
       Atomic Center    5 is at   1.747385 -0.387563  0.054300
       Atomic Center    6 is at   2.633406 -1.514350 -0.480265
       Atomic Center    7 is at   3.975968 -1.537146  0.234005
       Atomic Center    8 is at   1.698761  2.214244 -0.006077
       Atomic Center    9 is at   0.264817  2.135303 -0.533744
       Atomic Center   10 is at  -0.423154  0.864299 -0.038060
       Atomic Center   11 is at   0.354291 -0.346332 -0.604423
       Atomic Center   12 is at  -1.903627  0.782555 -0.380292
       Atomic Center   13 is at  -2.529450 -0.559668  0.046907
       Atomic Center   14 is at  -1.856114 -1.672338 -0.746687
       Atomic Center   15 is at  -0.355235 -1.706587 -0.446060
       Atomic Center   16 is at  -2.855003  1.831951  0.218116
       Atomic Center   17 is at  -4.250338  1.151352  0.173358
       Atomic Center   18 is at  -3.998518 -0.298692 -0.317207
       Atomic Center   19 is at  -2.402001 -0.818145  1.563613
       Atomic Center   20 is at  -4.951874 -1.240694  0.146592
       Atomic Center   21 is at   4.346386  1.944138  0.027670
       Atomic Center   22 is at   1.567747 -0.547060  1.132000
       Atomic Center   23 is at   2.787371 -1.371195 -1.559331
       Atomic Center   24 is at   2.144584 -2.484378 -0.354486
       Atomic Center   25 is at   3.826737 -1.817335  1.287703
       Atomic Center   26 is at   4.664775 -2.268953 -0.196763
       Atomic Center   27 is at   2.267359  3.003740 -0.512525
       Atomic Center   28 is at   1.645524  2.518053  1.050073
       Atomic Center   29 is at   0.247997  2.155803 -1.632049
       Atomic Center   30 is at  -0.274856  3.027830 -0.198958
       Atomic Center   31 is at  -0.319341  0.844939  1.052482
       Atomic Center   32 is at   0.482803 -0.168932 -1.686327
       Atomic Center   33 is at  -1.997376  0.831626 -1.480025
       Atomic Center   34 is at  -2.023423 -1.496600 -1.818991
       Atomic Center   35 is at  -2.306729 -2.645074 -0.517882
       Atomic Center   36 is at  -0.200995 -2.068891  0.579769
       Atomic Center   37 is at   0.119752 -2.443854 -1.103767
       Atomic Center   38 is at  -2.826498  2.780862 -0.322139
       Atomic Center   39 is at  -2.559542  2.052346  1.251248
       Atomic Center   40 is at  -4.945449  1.672983 -0.492537
       Atomic Center   41 is at  -4.722280  1.120043  1.161166
       Atomic Center   42 is at  -4.072210 -0.315401 -1.412353
       Atomic Center   43 is at  -3.046851 -0.151752  2.146081
       Atomic Center   44 is at  -2.694829 -1.848788  1.793578
       Atomic Center   45 is at  -1.385292 -0.673440  1.936975
       Atomic Center   46 is at  -4.578000 -1.784100  0.855584
 -----------------------------------------------------------------

              Electrostatic Properties (Atomic Units)

 -----------------------------------------------------------------
    Center     Electric         -------- Electric Field --------
               Potential          X             Y             Z
 -----------------------------------------------------------------
    1 Atom    -14.670101      0.002021     -0.002529      0.000222
    2 Atom    -22.351783      0.104595      0.004025      0.018338
    3 Atom    -14.745972     -0.008841     -0.000311     -0.000542
    4 Atom    -14.707403      0.012586     -0.000754     -0.000441
    5 Atom    -14.716664     -0.002828     -0.003331     -0.002211
    6 Atom    -14.731413     -0.000061     -0.001075     -0.000432
    7 Atom    -14.740387      0.001070      0.000159     -0.001834
    8 Atom    -14.723169     -0.001949      0.002722     -0.000564
    9 Atom    -14.730458     -0.002634     -0.001661     -0.000622
   10 Atom    -14.728503     -0.001010     -0.000225     -0.001307
   11 Atom    -14.723938     -0.001564      0.000845      0.000195
   12 Atom    -14.733702     -0.000148     -0.001347      0.002499
   13 Atom    -14.727036     -0.000676      0.001685     -0.004189
   14 Atom    -14.737411     -0.001753      0.002495      0.000999
   15 Atom    -14.733191     -0.000354     -0.000115      0.000031
   16 Atom    -14.737208      0.001099     -0.000155     -0.000025
   17 Atom    -14.745592     -0.002123     -0.002775      0.000209
   18 Atom    -14.692571      0.017269      0.014614     -0.007669
   19 Atom    -14.734625      0.000475      0.002163     -0.002137
   20 Atom    -22.315910     -0.104843     -0.007763     -0.044578
   21 Atom     -1.105803      0.017919      0.028673     -0.000281
   22 Atom     -1.102316     -0.005365     -0.009263      0.030288
   23 Atom     -1.116827      0.003539      0.003249     -0.028982
   24 Atom     -1.116890     -0.014136     -0.026614      0.002564
   25 Atom     -1.105815     -0.001867     -0.010211      0.027988
   26 Atom     -1.114944      0.020999     -0.018693     -0.010349
   27 Atom     -1.105386      0.014815      0.020811     -0.013530
   28 Atom     -1.102065     -0.001066      0.011199      0.028599
   29 Atom     -1.116626     -0.000446      0.001376     -0.029641
   30 Atom     -1.116224     -0.016566      0.024163      0.008232
   31 Atom     -1.117363      0.000877      0.000908      0.034337
   32 Atom     -1.118153      0.003698      0.004274     -0.029117
   33 Atom     -1.120884     -0.002355      0.001683     -0.028920
   34 Atom     -1.120734     -0.005288      0.003036     -0.028697
   35 Atom     -1.120563     -0.012586     -0.027808      0.004286
   36 Atom     -1.118448      0.004040     -0.012280      0.027025
   37 Atom     -1.118875      0.012727     -0.019628     -0.016490
   38 Atom     -1.123103     -0.000122      0.026590     -0.015324
   39 Atom     -1.122736      0.006913      0.007103      0.028171
   40 Atom     -1.128083     -0.019375      0.013325     -0.016356
   41 Atom     -1.126480     -0.014808     -0.001286      0.025158
   42 Atom     -1.131618     -0.004017     -0.001740     -0.031481
   43 Atom     -1.108079     -0.016840      0.017248      0.016656
   44 Atom     -1.103653     -0.003005     -0.028753      0.010681
   45 Atom     -1.105659      0.026343      0.000982      0.010649
   46 Atom     -0.996981      0.014428     -0.021327      0.030407
 -----------------------------------------------------------------
 -----------------------------------------------------
    Center         ---- Electric Field Gradient ----
                     XX            YY            ZZ
 -----------------------------------------------------
    1 Atom     -493.279088   -493.188767   -493.926673
    2 Atom    -1217.152869  -1214.532770  -1217.609132
    3 Atom     -493.073334   -493.152749   -493.376733
    4 Atom     -493.141104   -493.254419   -493.805365
    5 Atom     -492.744211   -492.785888   -492.770147
    6 Atom     -492.613970   -492.588921   -492.592466
    7 Atom     -492.718166   -492.733157   -492.746683
    8 Atom     -492.562347   -492.601145   -492.556808
    9 Atom     -492.663602   -492.612371   -492.619820
   10 Atom     -492.766451   -492.787200   -492.771114
   11 Atom     -492.809656   -492.788310   -492.785964
   12 Atom     -492.895528   -492.910046   -492.890171
   13 Atom     -492.902665   -492.895493   -492.978656
   14 Atom     -492.708813   -492.671155   -492.685659
   15 Atom     -492.635906   -492.641039   -492.603135
   16 Atom     -492.645321   -492.592677   -492.577915
   17 Atom     -492.717791   -492.706067   -492.662126
   18 Atom     -492.806741   -492.823599   -492.636740
   19 Atom     -492.564295   -492.593114   -492.598914
   20 Atom    -1214.116019  -1214.345093  -1214.024333
   21 Atom       -1.706911     -1.958900     -1.592658
   22 Atom       -1.631611     -1.628166     -2.004656
   23 Atom       -1.626575     -1.622870     -2.022088
   24 Atom       -1.719405     -1.970048     -1.632296
   25 Atom       -1.606785     -1.625612     -1.983556
   26 Atom       -1.773067     -1.799152     -1.670762
   27 Atom       -1.730413     -1.832405     -1.699329
   28 Atom       -1.611120     -1.640983     -1.994823
   29 Atom       -1.623195     -1.622687     -2.045162
   30 Atom       -1.732719     -1.911539     -1.665078
   31 Atom       -1.654404     -1.648158     -2.069390
   32 Atom       -1.637733     -1.646122     -2.022168
   33 Atom       -1.642994     -1.637018     -2.035161
   34 Atom       -1.633432     -1.634716     -2.023372
   35 Atom       -1.698097     -1.964747     -1.644926
   36 Atom       -1.637832     -1.672590     -1.995794
   37 Atom       -1.711537     -1.820735     -1.780022
   38 Atom       -1.627659     -1.958636     -1.735550
   39 Atom       -1.656171     -1.640771     -2.007162
   40 Atom       -1.795650     -1.722060     -1.784617
   41 Atom       -1.694053     -1.615453     -1.972540
   42 Atom       -1.677731     -1.672717     -2.085744
   43 Atom       -1.752082     -1.763039     -1.726248
   44 Atom       -1.645059     -1.996731     -1.631121
   45 Atom       -1.988131     -1.608672     -1.654882
   46 Atom       -1.545182     -1.631003     -1.771925
 -----------------------------------------------------
 -----------------------------------------------------
    Center         ---- Electric Field Gradient ----
                     XY            XZ            YZ
 -----------------------------------------------------
    1 Atom        0.002002      0.122310     -0.039447
    2 Atom       -0.035654      0.095385     -0.152220
    3 Atom        0.001322      0.013483     -0.021847
    4 Atom        0.001669      0.029571     -0.007917
    5 Atom       -0.027075     -0.009298     -0.005921
    6 Atom        0.033743     -0.002377     -0.025562
    7 Atom       -0.006082     -0.028096      0.003559
    8 Atom        0.026990     -0.020438     -0.002456
    9 Atom       -0.008919     -0.017259      0.021825
   10 Atom        0.000694      0.007281     -0.004022
   11 Atom       -0.006291     -0.014101     -0.011455
   12 Atom        0.012283     -0.001993      0.008696
   13 Atom        0.000896     -0.002051      0.016808
   14 Atom       -0.003617     -0.003682     -0.016982
   15 Atom       -0.018423     -0.004706      0.015571
   16 Atom       -0.005638      0.012808     -0.017843
   17 Atom       -0.029655     -0.001612     -0.025130
   18 Atom       -0.181305      0.119518      0.120589
   19 Atom       -0.013920     -0.000930      0.012136
   20 Atom       -0.638840     -0.197344      1.627672
   21 Atom       -0.182048      0.004107      0.011963
   22 Atom       -0.009733      0.066216      0.060652
   23 Atom       -0.004771      0.056866      0.054196
   24 Atom       -0.171499      0.022018      0.044537
   25 Atom       -0.017360      0.055844      0.103122
   26 Atom        0.182093      0.107565     -0.117389
   27 Atom       -0.156390      0.101784      0.144727
   28 Atom        0.009043      0.020206     -0.112307
   29 Atom       -0.002211     -0.006401      0.006606
   30 Atom        0.171951      0.064271     -0.108751
   31 Atom       -0.001036     -0.038857      0.009627
   32 Atom       -0.007842      0.046035      0.064238
   33 Atom        0.000546     -0.033867      0.017137
   34 Atom        0.012892     -0.061620      0.066502
   35 Atom       -0.155883      0.039653      0.080959
   36 Atom        0.016729     -0.056011      0.129975
   37 Atom        0.123924      0.111989     -0.173341
   38 Atom       -0.009898      0.005281      0.191292
   39 Atom       -0.022937     -0.107921     -0.080126
   40 Atom        0.130345     -0.168540      0.126472
   41 Atom       -0.004342      0.165800      0.011377
   42 Atom       -0.006022     -0.023723     -0.002683
   43 Atom        0.157895      0.135124     -0.139388
   44 Atom       -0.113533      0.021131      0.085355
   45 Atom       -0.054821     -0.138052     -0.017705
   46 Atom        0.126360     -0.192324      0.288028
 -----------------------------------------------------
 -----------------------------------------------------
    Center         ---- Electric Field Gradient ----
                   ----       Eigenvalues       ----
 -----------------------------------------------------
    1 Atom     -493.951016   -493.257128   -493.186384
    2 Atom    -1217.634810  -1217.135324  -1214.524637
    3 Atom     -493.379443   -493.150638   -493.072735
    4 Atom     -493.806794   -493.254319   -493.139775
    5 Atom     -492.802038   -492.768170   -492.730039
    6 Atom     -492.641229   -492.601743   -492.552386
    7 Atom     -492.763932   -492.734628   -492.699445
    8 Atom     -492.615936   -492.571702   -492.532662
    9 Atom     -492.669621   -492.636633   -492.589539
   10 Atom     -492.788435   -492.775322   -492.761008
   11 Atom     -492.819914   -492.789825   -492.774191
   12 Atom     -492.919555   -492.890603   -492.885586
   13 Atom     -492.981984   -492.902627   -492.892202
   14 Atom     -492.710690   -492.695016   -492.659921
   15 Atom     -492.658556   -492.627053   -492.594471
   16 Atom     -492.647780   -492.604476   -492.563657
   17 Atom     -492.745925   -492.691353   -492.648707
   18 Atom     -493.064102   -492.633803   -492.569176
   19 Atom     -492.610021   -492.588400   -492.557902
   20 Atom    -1215.889638  -1214.238456  -1212.357350
   21 Atom       -2.054640     -1.611699     -1.592130
   22 Atom       -2.025555     -1.620474     -1.618404
   23 Atom       -2.037226     -1.620300     -1.614007
   24 Atom       -2.062867     -1.632367     -1.626515
   25 Atom       -2.019414     -1.600599     -1.595940
   26 Atom       -2.037743     -1.604101     -1.601137
   27 Atom       -2.038255     -1.617431     -1.606461
   28 Atom       -2.028610     -1.612305     -1.606011
   29 Atom       -2.045361     -1.625166     -1.620517
   30 Atom       -2.056681     -1.628780     -1.623876
   31 Atom       -2.073209     -1.651764     -1.646979
   32 Atom       -2.038283     -1.635463     -1.632278
   33 Atom       -2.038794     -1.640301     -1.636078
   34 Atom       -2.044072     -1.626299     -1.621149
   35 Atom       -2.056289     -1.627912     -1.623569
   36 Atom       -2.049851     -1.631305     -1.625060
   37 Atom       -2.055918     -1.630815     -1.625561
   38 Atom       -2.068815     -1.627443     -1.625587
   39 Atom       -2.054480     -1.625682     -1.623943
   40 Atom       -2.057189     -1.623654     -1.621484
   41 Atom       -2.050150     -1.617154     -1.614742
   42 Atom       -2.087141     -1.680661     -1.668390
   43 Atom       -2.036877     -1.604939     -1.599554
   44 Atom       -2.048682     -1.615934     -1.608295
   45 Atom       -2.045480     -1.605887     -1.600318
   46 Atom       -2.093906     -1.455616     -1.398589
 -----------------------------------------------------
 -----------------------------------------------------
    Center         ---- Electric Field Gradient ----
                       ( tensor representation )
                   3XX-RR        3YY-RR        3ZZ-RR
 -----------------------------------------------------
    1 Atom        0.185755      0.276076     -0.461830
    2 Atom       -0.721279      1.898820     -1.177542
    3 Atom        0.127604      0.048190     -0.175794
    4 Atom        0.259192      0.145877     -0.405069
    5 Atom        0.022538     -0.019140     -0.003399
    6 Atom       -0.015517      0.009531      0.005986
    7 Atom        0.014502     -0.000488     -0.014014
    8 Atom        0.011086     -0.027712      0.016626
    9 Atom       -0.031671      0.019559      0.012111
   10 Atom        0.008471     -0.012279      0.003808
   11 Atom       -0.015012      0.006333      0.008679
   12 Atom        0.003054     -0.011464      0.008410
   13 Atom        0.022940      0.030111     -0.053051
   14 Atom       -0.020271      0.017387      0.002884
   15 Atom       -0.009212     -0.014345      0.023558
   16 Atom       -0.040017      0.012627      0.027389
   17 Atom       -0.022463     -0.010739      0.033202
   18 Atom       -0.051047     -0.067906      0.118953
   19 Atom        0.021146     -0.007673     -0.013473
   20 Atom        0.045796     -0.183278      0.137482
   21 Atom        0.045912     -0.206077      0.160165
   22 Atom        0.123200      0.126645     -0.249845
   23 Atom        0.130603      0.134307     -0.264910
   24 Atom        0.054512     -0.196132      0.141620
   25 Atom        0.131866      0.113039     -0.244905
   26 Atom       -0.025407     -0.051492      0.076898
   27 Atom        0.023636     -0.078356      0.054720
   28 Atom        0.137855      0.107992     -0.245847
   29 Atom        0.140486      0.140995     -0.281481
   30 Atom        0.037060     -0.141761      0.104701
   31 Atom        0.136247      0.142493     -0.278739
   32 Atom        0.130941      0.122552     -0.253494
   33 Atom        0.128731      0.134707     -0.263437
   34 Atom        0.130408      0.129124     -0.259532
   35 Atom        0.071160     -0.195490      0.124331
   36 Atom        0.130906      0.096149     -0.227055
   37 Atom        0.059228     -0.049971     -0.009257
   38 Atom        0.146289     -0.184687      0.038398
   39 Atom        0.111863      0.127264     -0.239127
   40 Atom       -0.028208      0.045383     -0.017175
   41 Atom        0.066629      0.145229     -0.211858
   42 Atom        0.134333      0.139348     -0.273680
   43 Atom       -0.004959     -0.015916      0.020875
   44 Atom        0.112578     -0.239094      0.126517
   45 Atom       -0.237569      0.141890      0.095680
   46 Atom        0.104188      0.018367     -0.122555
 -----------------------------------------------------
 -----------------------------------------------------
    Center         ---- Electric Field Gradient ----
                       ( tensor representation )
                   ----       Eigenvalues       ----
 -----------------------------------------------------
    1 Atom       -0.486173      0.207715      0.278459
    2 Atom       -1.203219     -0.703734      1.906953
    3 Atom       -0.178505      0.050301      0.128204
    4 Atom       -0.406498      0.145977      0.260521
    5 Atom       -0.035289     -0.001421      0.036710
    6 Atom       -0.042776     -0.003290      0.046067
    7 Atom       -0.031263     -0.001960      0.033223
    8 Atom       -0.042502      0.001731      0.040771
    9 Atom       -0.037690     -0.004702      0.042392
   10 Atom       -0.013513     -0.000401      0.013914
   11 Atom       -0.025271      0.004819      0.020452
   12 Atom       -0.020973      0.007978      0.012995
   13 Atom       -0.056380      0.022977      0.033403
   14 Atom       -0.022147     -0.006474      0.028621
   15 Atom       -0.031863     -0.000359      0.032222
   16 Atom       -0.042476      0.000828      0.041648
   17 Atom       -0.050597      0.003975      0.046622
   18 Atom       -0.308409      0.121891      0.186518
   19 Atom       -0.024580     -0.002959      0.027539
   20 Atom       -1.727824     -0.076641      1.804465
   21 Atom       -0.301817      0.141124      0.160692
   22 Atom       -0.270744      0.134337      0.136407
   23 Atom       -0.280048      0.136877      0.143171
   24 Atom       -0.288951      0.141550      0.147401
   25 Atom       -0.280763      0.138052      0.142711
   26 Atom       -0.290082      0.143560      0.146523
   27 Atom       -0.284206      0.136618      0.147588
   28 Atom       -0.279635      0.136670      0.142964
   29 Atom       -0.281680      0.138515      0.143165
   30 Atom       -0.286902      0.140999      0.145903
   31 Atom       -0.282558      0.138887      0.143672
   32 Atom       -0.269609      0.133212      0.136397
   33 Atom       -0.267070      0.131423      0.135647
   34 Atom       -0.280232      0.137541      0.142691
   35 Atom       -0.287032      0.141345      0.145687
   36 Atom       -0.281113      0.137434      0.143679
   37 Atom       -0.285153      0.139950      0.145203
   38 Atom       -0.294866      0.146505      0.148361
   39 Atom       -0.286445      0.142353      0.144092
   40 Atom       -0.289746      0.143788      0.145958
   41 Atom       -0.289468      0.143528      0.145940
   42 Atom       -0.275077      0.131403      0.143674
   43 Atom       -0.289754      0.142185      0.147569
   44 Atom       -0.291045      0.141703      0.149342
   45 Atom       -0.294919      0.144675      0.150244
   46 Atom       -0.444535      0.193754      0.250781
 -----------------------------------------------------
 Unable to Open any file for archive entry.
 1\1\GINC-EXP-1-03\SP\RwB97XD\6-31G(d)\C18H26O2\HKLEM\12-Aug-2024\0\\# 
 wb97xd 6-31G(d) prop=efg\\19nt_xstal_distance_cutoff3_ligand_conf_1\\0
 ,1\C,0,2.547,2.835,0.065\O,0,3.5539,3.5427,0.1945\C,0,2.6002,1.397,-0.
 1069\C,0,1.5112,0.6515,-0.4158\C,0,0.143,1.2888,-0.5493\C,0,0.0532,2.5
 398,0.3267\C,0,1.1936,3.4996,0.0243\C,0,1.6883,-0.7935,-0.7762\C,0,0.4
 449,-1.6783,-0.6669\C,0,-0.786,-0.9472,-1.2006\C,0,-1.0163,0.2999,-0.3
 16\C,0,-2.0373,-1.8094,-1.281\C,0,-3.2747,-1.0045,-1.7245\C,0,-3.5622,
 0.0494,-0.6625\C,0,-2.3728,1.0036,-0.5246\C,0,-2.0352,-3.0207,-2.2282\
 C,0,-3.5393,-3.2901,-2.5062\C,0,-4.3109,-2.1344,-1.8165\C,0,-3.0902,-0
 .3468,-3.109\O,0,-5.551,-1.8198,-2.4285\H,0,3.5782,0.9288,-0.0373\H,0,
 0.0797,1.5839,-1.6114\H,0,0.0864,2.2426,1.3846\H,0,-0.8988,3.0546,0.17
 05\H,0,1.0761,3.9005,-0.9938\H,0,1.2096,4.3553,0.7048\H,0,2.5303,-1.21
 76,-0.2156\H,0,2.003,-0.7953,-1.8305\H,0,0.2677,-1.9811,0.3742\H,0,0.6
 273,-2.5996,-1.2307\H,0,-0.542,-0.5979,-2.21\H,0,-0.9823,-0.0393,0.733
 9\H,0,-2.2568,-2.1786,-0.2631\H,0,-3.7567,-0.4539,0.2954\H,0,-4.4697,0
 .614,-0.906\H,0,-2.3101,1.634,-1.4224\H,0,-2.5622,1.685,0.313\H,0,-1.5
 192,-3.8847,-1.8035\H,0,-1.5053,-2.7651,-3.154\H,0,-3.8653,-4.2614,-2.
 1202\H,0,-3.7649,-3.284,-3.5779\H,0,-4.5544,-2.4395,-0.7905\H,0,-3.087
 8,-1.088,-3.9151\H,0,-3.9108,0.353,-3.3033\H,0,-2.1544,0.2108,-3.195\H
 ,0,-5.4801,-1.0028,-2.9435\\Version=ES64L-G16RevC.01\State=1-A\HF=-851
 .7877962\RMSD=5.166e-09\Dipole=-0.8482421,-0.7678532,-0.4238025\Quadru
 pole=-14.3296187,2.1287665,12.2008522,-20.4758998,-4.890984,-4.6492754
 \PG=C01 [X(C18H26O2)]\\@
 The archive entry for this job was punched.


 EDUCATION WITHOUT COMMON SENSE IS A LOAD OF BOOKS ON THE BACK OF AN ASS.
 Job cpu time:       0 days  0 hours  9 minutes 40.6 seconds.
 Elapsed time:       0 days  0 hours  0 minutes 24.9 seconds.
 File lengths (MBytes):  RWF=     71 Int=      0 D2E=      0 Chk=      8 Scr=      1
 Normal termination of Gaussian 16 at Mon Aug 12 07:11:02 2024.
