 Entering Gaussian System, Link 0=g16
 Initial command:
 /cm/shared/apps/spack/cpu/opt/spack/linux-centos8-zen/gcc-8.3.1/gaussian-16.C.01-po5bqktfeugvmjyga3v7eigbecnokxng/g16/l1.exe "/scratch/hklem/job_32333382/Gau-1002723.inp" -scrdir="/scratch/hklem/job_32333382/"
 Entering Link 1 = /cm/shared/apps/spack/cpu/opt/spack/linux-centos8-zen/gcc-8.3.1/gaussian-16.C.01-po5bqktfeugvmjyga3v7eigbecnokxng/g16/l1.exe PID=   1002726.
  
 Copyright (c) 1988-2019, Gaussian, Inc.  All Rights Reserved.
  
 This is part of the Gaussian(R) 16 program.  It is based on
 the Gaussian(R) 09 system (copyright 2009, Gaussian, Inc.),
 the Gaussian(R) 03 system (copyright 2003, Gaussian, Inc.),
 the Gaussian(R) 98 system (copyright 1998, Gaussian, Inc.),
 the Gaussian(R) 94 system (copyright 1995, Gaussian, Inc.),
 the Gaussian 92(TM) system (copyright 1992, Gaussian, Inc.),
 the Gaussian 90(TM) system (copyright 1990, Gaussian, Inc.),
 the Gaussian 88(TM) system (copyright 1988, Gaussian, Inc.),
 the Gaussian 86(TM) system (copyright 1986, Carnegie Mellon
 University), and the Gaussian 82(TM) system (copyright 1983,
 Carnegie Mellon University). Gaussian is a federally registered
 trademark of Gaussian, Inc.
  
 This software contains proprietary and confidential information,
 including trade secrets, belonging to Gaussian, Inc.
  
 This software is provided under written license and may be
 used, copied, transmitted, or stored only in accord with that
 written license.
  
 The following legend is applicable only to US Government
 contracts under FAR:
  
                    RESTRICTED RIGHTS LEGEND
  
 Use, reproduction and disclosure by the US Government is
 subject to restrictions as set forth in subparagraphs (a)
 and (c) of the Commercial Computer Software - Restricted
 Rights clause in FAR 52.227-19.
  
 Gaussian, Inc.
 340 Quinnipiac St., Bldg. 40, Wallingford CT 06492
  
  
 ---------------------------------------------------------------
 Warning -- This program may not be used in any manner that
 competes with the business of Gaussian, Inc. or will provide
 assistance to any competitor of Gaussian, Inc.  The licensee
 of this program is prohibited from giving any competitor of
 Gaussian, Inc. access to this program.  By using this program,
 the user acknowledges that Gaussian, Inc. is engaged in the
 business of creating and licensing software in the field of
 computational chemistry and represents and warrants to the
 licensee that it is not a competitor of Gaussian, Inc. and that
 it will not use this program in any manner prohibited above.
 ---------------------------------------------------------------
  

 Cite this work as:
 Gaussian 16, Revision C.01,
 M. J. Frisch, G. W. Trucks, H. B. Schlegel, G. E. Scuseria, 
 M. A. Robb, J. R. Cheeseman, G. Scalmani, V. Barone, 
 G. A. Petersson, H. Nakatsuji, X. Li, M. Caricato, A. V. Marenich, 
 J. Bloino, B. G. Janesko, R. Gomperts, B. Mennucci, H. P. Hratchian, 
 J. V. Ortiz, A. F. Izmaylov, J. L. Sonnenberg, D. Williams-Young, 
 F. Ding, F. Lipparini, F. Egidi, J. Goings, B. Peng, A. Petrone, 
 T. Henderson, D. Ranasinghe, V. G. Zakrzewski, J. Gao, N. Rega, 
 G. Zheng, W. Liang, M. Hada, M. Ehara, K. Toyota, R. Fukuda, 
 J. Hasegawa, M. Ishida, T. Nakajima, Y. Honda, O. Kitao, H. Nakai, 
 T. Vreven, K. Throssell, J. A. Montgomery, Jr., J. E. Peralta, 
 F. Ogliaro, M. J. Bearpark, J. J. Heyd, E. N. Brothers, K. N. Kudin, 
 V. N. Staroverov, T. A. Keith, R. Kobayashi, J. Normand, 
 K. Raghavachari, A. P. Rendell, J. C. Burant, S. S. Iyengar, 
 J. Tomasi, M. Cossi, J. M. Millam, M. Klene, C. Adamo, R. Cammi, 
 J. W. Ochterski, R. L. Martin, K. Morokuma, O. Farkas, 
 J. B. Foresman, and D. J. Fox, Gaussian, Inc., Wallingford CT, 2019.
 
 ******************************************
 Gaussian 16:  ES64L-G16RevC.01  3-Jul-2019
                16-Jul-2024 
 ******************************************
 %nprocshared=32
 Will use up to   32 processors via shared memory.
 %mem=64GB
 --------------------------
 # 6-31G(d) wb97xd prop=efg
 --------------------------
 1/38=1,172=1/1;
 2/12=2,17=6,18=5,40=1/2;
 3/5=1,6=6,7=1,11=2,25=1,30=1,74=-58/1,2,3;
 4//1;
 5/5=2,38=5/2;
 6/7=2,8=2,9=2,10=2,14=1,28=1/1,2;
 99/5=1,9=1/99;
 ---------------------------
 19nt_xstal_distance_cutoff5
 ---------------------------
 Symbolic Z-matrix:
 Charge = -1 Multiplicity = 1
 H                    0    -9.25469   4.58183  -3.04239 
 C                    -1   -8.48642   4.4163   -2.27455 
 H                    0    -8.60761   5.19393  -1.51625 
 C                    0    -8.70279   3.0325   -1.63366 
 H                    0    -9.69134   3.03715  -1.15973 
 H                    0    -8.7515    2.2646   -2.41706 
 C                    0    -7.64613   2.63449  -0.62987 
 C                    0    -7.76921   2.84669   0.74315 
 H                    0    -8.6585    3.33727   1.1338 
 C                    0    -6.78384   2.42437   1.6395 
 H                    0    -6.90742   2.59249   2.70662 
 C                    0    -5.64498   1.77004   1.16336 
 O                    0    -4.65706   1.28098   1.94632 
 H                    0    -4.75707   1.49289   2.89478 
 C                    0    -5.50117   1.57485  -0.21219 
 H                    0    -4.62472   1.05008  -0.56774 
 C                    0    -6.4852    2.0027   -1.08026 
 H                    0    -6.35533   1.83106  -2.14317 
 C                    0    -7.11921   4.67605  -2.89513 
 O                    0    -6.43109   5.62881  -2.55645 
 N                    0    -6.72361   3.81556  -3.874 
 H                    0    -7.35629   3.09583  -4.18997 
 C                    -1   -5.5007    4.04871  -4.61694 
 H                    0    -4.76719   4.44649  -3.91215 
 C                    0    -4.95088   2.79539  -5.309 
 H                    0    -5.72466   2.42225  -5.99834 
 C                    0    -3.7382    3.19486  -6.1564 
 H                    0    -2.95844   3.6559   -5.53966 
 H                    0    -3.30238   2.31501  -6.64252 
 H                    0    -4.01353   3.91457  -6.93568 
 C                    0    -4.61317   1.64182  -4.34757 
 H                    0    -5.5409    1.27197  -3.89478 
 H                    0    -4.22891   0.80011  -4.93715 
 C                    0    -3.61199   1.97532  -3.24284 
 H                    0    -3.98916   2.75917  -2.57658 
 H                    0    -3.413     1.08604  -2.63679 
 H                    0    -2.65212   2.30849  -3.65455 
 H                    0    -5.664     4.83472  -5.36912 
 H                    0    -3.83869   7.4796   -1.69151 
 C                    -1   -2.82867   7.05812  -1.65426 
 H                    0    -2.34767   7.40277  -0.72915 
 C                    0    -2.88202   5.52992  -1.69352 
 H                    0    -3.3931    5.2427   -2.62153 
 C                    0    -1.47485   4.93113  -1.72556 
 H                    0    -0.92946   5.17     -0.80247 
 H                    0    -1.51114   3.84034  -1.82149 
 H                    0    -0.89028   5.32386  -2.5668 
 C                    0    -3.70397   4.98404  -0.52471 
 H                    0    -4.72336   5.38094  -0.54975 
 H                    0    -3.78195   3.89225  -0.55793 
 H                    0    -3.24346   5.25411   0.43527 
 H                    0    -2.2573    7.4601   -2.49972 
 H                    0    -0.12037  -4.9934    7.00506 
 C                    -1    0.40472  -4.55726   6.14472 
 H                    0     0.22373  -5.21195   5.29192 
 C                    0    -0.15881  -3.16669   5.85483 
 H                    0    -1.23898  -3.2212    5.67002 
 H                    0    -0.00792  -2.5209    6.72641 
 C                    0     0.51316  -2.48728   4.65348 
 O                    0     1.44836  -3.08638   4.09218 
 O                    0     0.066    -1.34409   4.31681 
 C                    0     1.87954  -4.46623   6.50724 
 O                    0     2.30658  -3.55823   7.21238 
 N                    0     2.69411  -5.45691   6.06274 
 C                    0     4.13531  -5.36329   6.27884 
 H                    0     4.3534   -5.19991   7.3374 
 H                    0     4.53961  -4.50972   5.71928 
 C                    0     4.66498  -6.69208   5.73728 
 H                    0     4.62854  -7.46003   6.5198 
 H                    0     5.69639  -6.61366   5.38375 
 C                    0     3.67551  -7.02761   4.6163 
 H                    0     3.665    -8.08753   4.34715 
 H                    0     3.92102  -6.45122   3.71772 
 C                    -1    2.32714  -6.55163   5.17294 
 H                    0     1.67968  -6.20692   4.36205 
 H                    0     1.80675  -7.3497    5.72093 
 H                    0    -0.88314   5.64361   7.6402 
 C                    -1   -0.38494   6.08949   6.77267 
 H                    0     0.32928   5.35965   6.37701 
 C                    0    -1.40755   6.46444   5.69126 
 H                    0    -2.08447   7.2405    6.06962 
 H                    0    -0.87734   6.8917    4.83277 
 C                    0    -2.19558   5.25139   5.26164 
 C                    0    -3.44033   4.96162   5.82004 
 H                    0    -3.90527   5.67968   6.49263 
 C                    0    -4.07913   3.74897   5.57273 
 H                    0    -5.02669   3.50381   6.04252 
 C                    0    -3.46671   2.8098    4.75171 
 O                    0    -4.06058   1.58056   4.58607 
 H                    0    -3.33037   0.91752   4.62814 
 C                    0    -2.26054   3.11481   4.12172 
 H                    0    -1.79812   2.3845    3.46511 
 C                    0    -1.62725   4.32094   4.38672 
 H                    0    -0.65145   4.51602   3.94701 
 H                    0     0.17389   6.96994   7.11338 
 H                    0     4.17678   6.16728   6.01814 
 C                    -1    4.21207   5.57883   5.0959 
 H                    0     5.13938   5.00402   5.06915 
 H                    0     3.36502   4.8819    5.09156 
 C                    0     4.12904   6.43858   3.85689 
 O                    0     4.60968   6.08662   2.78068 
 N                    0     3.46393   7.61337   4.01861 
 H                    0     3.00698   7.76456   4.9058 
 C                    -1    3.12066   8.50953   2.9302 
 H                    0     3.68045   8.16342   2.05854 
 C                    0     1.6145    8.5483    2.63946 
 H                    0     1.0995    9.01244   3.49394 
 H                    0     1.45804   9.22448   1.7865 
 C                    0     0.94865   7.19512   2.34285 
 H                    0     1.05068   6.55673   3.23151 
 C                    0    -0.54504   7.39656   2.06852 
 H                    0    -0.69445   7.93883   1.12576 
 H                    0    -1.06225   6.43421   1.98809 
 H                    0    -1.03429   7.97188   2.86306 
 C                    0     1.60092   6.46477   1.16729 
 H                    0     2.64079   6.19547   1.37602 
 H                    0     1.05531   5.5409    0.9454 
 H                    0     1.58152   7.08802   0.26303 
 H                    0     3.47559   9.51928   3.1696 
 H                    0     5.80968   8.81797  -2.58546 
 C                    -1    5.16989   7.98392  -2.89677 
 H                    0     5.81138   7.20813  -3.33499 
 C                    0     4.38021   7.41432  -1.71014 
 H                    0     3.74375   8.21791  -1.3106 
 C                    0     3.47133   6.26459  -2.15502 
 H                    0     4.06605   5.45475  -2.59522 
 H                    0     2.91883   5.84542  -1.30666 
 H                    0     2.74282   6.59593  -2.90461 
 C                    0     5.31645   6.95622  -0.58917 
 H                    0     6.02817   7.74356  -0.31259 
 H                    0     4.76701   6.67254   0.31458 
 H                    0     5.89445   6.0807   -0.9095 
 H                    0     4.49854   8.34449  -3.68481 
 H                    0     1.47719   4.82492  -5.88222 
 C                    -1    0.6228    4.48498  -6.477 
 H                    0     0.95381   4.39698  -7.51734 
 C                    0     0.08494   3.15345  -5.95251 
 H                    0    -0.24743   3.24087  -4.91198 
 H                    0    -0.76935   2.8071   -6.54384 
 H                    0     0.85335   2.37352  -5.9887 
 H                    0    -0.14544   5.26433  -6.43475 
 H                    0    -7.3438   -5.91714  -5.66814 
 C                    -1   -6.62722  -5.38164  -6.30118 
 H                    0    -6.85908  -5.61528  -7.3454 
 C                    0    -6.6915   -3.87301  -6.04941 
 H                    0    -5.99286  -3.35491  -6.71813 
 H                    0    -7.69404  -3.5023   -6.29586 
 C                    0    -6.36248  -3.50327  -4.60317 
 H                    0    -7.03416  -4.02786  -3.91249 
 H                    0    -5.33453  -3.80102  -4.3625 
 S                    0    -6.53246  -1.70793  -4.34628 
 C                    0    -6.007    -1.60095  -2.61385 
 H                    0    -4.94181  -1.81985  -2.51074 
 H                    0    -6.18113  -0.57832  -2.27061 
 H                    0    -6.60159  -2.27104  -1.98601 
 H                    0    -5.62831  -5.77585  -6.08152 
 H                    0    -1.51249  -3.20379  -7.51132 
 C                    -1   -1.1419   -2.19674  -7.73007 
 H                    0    -1.13174  -2.06432  -8.81779 
 C                    0    -2.01482  -1.13557  -7.0464 
 H                    0    -1.64187  -0.13539  -7.29871 
 H                    0    -3.03942  -1.19868  -7.43433 
 C                    0    -2.02313  -1.31554  -5.54752 
 C                    0    -1.25881  -0.49803  -4.71324 
 H                    0    -0.69358   0.32665  -5.14314 
 C                    0    -1.2055   -0.73276  -3.34075 
 H                    0    -0.60153  -0.09443  -2.70035 
 C                    0    -1.9147   -1.79231  -2.78776 
 H                    0    -1.8794   -1.99766  -1.72653 
 C                    0    -2.68391  -2.61032  -3.6103 
 H                    0    -3.2172   -3.44936  -3.17102 
 C                    0    -2.74363  -2.36893  -4.9767 
 H                    0    -3.34746  -3.00942  -5.61736 
 H                    0    -0.11096  -2.13734  -7.36498 
 H                    0     4.67816   1.24746  -5.7722 
 C                    -1    3.8345    1.84731  -5.40441 
 H                    0     3.23129   2.13609  -6.2733 
 C                    0     3.01119   1.0449   -4.39066 
 H                    0     2.16294   1.66825  -4.07354 
 C                    0     2.44959  -0.2304   -5.02438 
 H                    0     3.26458  -0.90323  -5.32367 
 H                    0     1.80372  -0.77423  -4.32619 
 H                    0     1.85632  -0.00635  -5.91965 
 C                    0     3.84237   0.71615  -3.1488 
 H                    0     4.16416   1.62423  -2.62532 
 H                    0     3.27658   0.0978   -2.44206 
 H                    0     4.74284   0.15212  -3.42546 
 H                    0     4.23715   2.76278  -4.95471 
 H                    0     8.43239   5.10385  -4.35868 
 C                    -1    9.19394   5.35473  -3.61263 
 H                    0     9.67871   6.28553  -3.92505 
 C                    0     8.56658   5.49967  -2.22944 
 H                    0     9.33479   5.78805  -1.49962 
 H                    0     7.83205   6.31361  -2.24269 
 C                    0     7.89581   4.22707  -1.71236 
 H                    0     8.61809   3.40454  -1.65828 
 H                    0     7.52447   4.37355  -0.6935 
 S                    0     6.49294   3.65058  -2.74251 
 C                    0     7.24427   2.20968  -3.54921 
 H                    0     7.50783   1.44508  -2.81218 
 H                    0     6.49833   1.79322  -4.22976 
 H                    0     8.13036   2.49176  -4.12467 
 H                    0     9.95241   4.56194  -3.62021 
 H                    0     7.88077  -2.06486  -5.29765 
 C                    -1    6.90716  -2.43733  -4.96035 
 H                    0     6.8437   -3.49386  -5.24167 
 C                    0     6.73101  -2.235    -3.45633 
 H                    0     7.52673  -2.76916  -2.91672 
 H                    0     6.8705   -1.16992  -3.2226 
 C                    0     5.3715   -2.68044  -2.89881 
 H                    0     4.58697  -2.167    -3.47542 
 C                    0     5.14117  -4.18536  -3.03954 
 H                    0     5.86249  -4.73831  -2.42497 
 H                    0     4.13873  -4.44718  -2.68675 
 H                    0     5.23171  -4.5319   -4.075 
 C                    0     5.23665  -2.26659  -1.43334 
 H                    0     5.26011  -1.17598  -1.32284 
 H                    0     4.29955  -2.63287  -1.0034 
 H                    0     6.04991  -2.68904  -0.83086 
 H                    0     6.13008  -1.90015  -5.51858 
 H                    0     1.902    -4.67389  -4.57743 
 C                    -1    1.26029  -5.20633  -3.86477 
 H                    0     1.90365  -5.8677   -3.27021 
 C                    0     0.49984  -4.22859  -2.96715 
 H                    0    -0.12207  -3.60001  -3.61574 
 C                    0    -0.42594  -4.98049  -2.0088 
 H                    0     0.15831  -5.62104  -1.33367 
 H                    0    -1.02217  -4.30056  -1.39301 
 H                    0    -1.12288  -5.62573  -2.55858 
 C                    0     1.44551  -3.305    -2.19396 
 H                    0     2.13551  -2.7808   -2.86782 
 H                    0     0.87863  -2.54719  -1.63907 
 H                    0     2.04629  -3.86952  -1.46794 
 H                    0     0.56831  -5.8361   -4.43639 
 H                    0    -4.86987  -4.95049  -2.11215 
 C                    -1   -4.67334  -5.46051  -1.16202 
 H                    0    -3.61468  -5.73141  -1.13668 
 C                    0    -5.01604  -4.55904   0.01598 
 H                    0    -6.05203  -4.20976  -0.02858 
 H                    0    -4.87816  -5.09252   0.96368 
 C                    0    -4.08519  -3.37312   0.03796 
 O                    0    -2.8933   -3.46965  -0.18701 
 O                    0    -4.69326  -2.22364   0.28415 
 H                    0    -4.02614  -1.49309   0.14203 
 H                    0    -5.27222  -6.3766   -1.14412 
 H                    0    -9.52009  -6.04772   1.53622 
 C                    -1   -10.44096  -5.45451   1.58109 
 H                    0    -10.56254  -5.10873   2.61424 
 C                    0    -10.38347  -4.27619   0.61234 
 H                    0    -10.28793  -4.64364  -0.4167 
 H                    0    -11.32151  -3.7102    0.65852 
 C                    0    -9.21893  -3.34155   0.92592 
 H                    0    -9.3038   -2.96635   1.95371 
 H                    0    -8.26858  -3.88413   0.85115 
 S                    0    -9.20608  -1.92711  -0.21685 
 C                    0    -7.88927  -0.93922   0.54055 
 H                    0    -6.91835  -1.43481   0.46448 
 H                    0    -7.84214   0.00668  -0.00136 
 H                    0    -8.12048  -0.72314   1.58825 
 H                    0    -11.27929  -6.11948   1.34841 
 H                    0    -8.09088  -4.36015   5.66968 
 C                    -1   -7.40838  -4.39424   4.81392 
 H                    0    -7.89105  -4.97831   4.02008 
 C                    0    -7.06768  -2.9896    4.31744 
 H                    0    -7.99006  -2.47627   4.01076 
 H                    0    -6.63423  -2.39597   5.13127 
 C                    0    -6.11067  -2.99554   3.1262 
 H                    0    -6.48973  -3.671     2.35149 
 H                    0    -6.0367   -2.00663   2.66587 
 S                    0    -4.40859  -3.53914   3.5108 
 C                    0    -3.59109  -1.9259    3.66517 
 H                    0    -3.925    -1.396     4.55986 
 H                    0    -2.51405  -2.09637   3.74378 
 H                    0    -3.78127  -1.3134    2.77877 
 H                    0    -6.50215  -4.92606   5.12289 
 H                    0    -2.10494  -6.25371   2.98468 
 C                    -1   -1.65613  -5.96546   2.02779 
 H                    0    -2.44976  -5.95019   1.27347 
 C                    0    -0.99162  -4.5945    2.1185 
 H                    0    -0.17651  -4.57533   2.84938 
 H                    0    -0.59048  -4.28809   1.14671 
 H                    0    -1.71896  -3.83043   2.40442 
 H                    0    -0.9369   -6.74381   1.74411 
 H                    0     3.2446   -8.52101   0.44236 
 C                    -1    3.82354  -8.11231  -0.39283 
 H                    0     3.75562  -8.80987  -1.23554 
 C                    0     3.30541  -6.72383  -0.77811 
 H                    0     3.87139  -6.3629   -1.64642 
 H                    0     2.26165  -6.80401  -1.10557 
 C                    0     3.39385  -5.72887   0.33848 
 C                    0     2.35172  -5.23625   1.0806 
 H                    0     1.29515  -5.4447    0.98618 
 N                    0     2.80258  -4.37035   2.04325 
 H                    0     2.23041  -3.85314   2.71922 
 C                    0     4.1645   -4.27895   1.93924 
 C                    0     5.06699  -3.50818   2.68022 
 H                    0     4.71354  -2.85875   3.47605 
 C                    0     6.40822  -3.60135   2.34902 
 H                    0     7.13474  -3.00915   2.89819 
 C                    0     6.84774  -4.44636   1.30925 
 H                    0     7.9081   -4.49378   1.07623 
 C                    0     5.95059  -5.20664   0.57807 
 H                    0     6.30131  -5.84905  -0.22712 
 C                    0     4.58173  -5.12623   0.88121 
 H                    0     4.8709   -8.06313  -0.07488 
 H                    0     10.71302  -4.51568  -5.44726 
 C                    -1    10.67211  -4.93967  -4.43843 
 H                    0     10.86677  -4.12578  -3.73183 
 C                    0     9.31691  -5.60322  -4.17998 
 H                    0     8.51513  -4.85813  -4.27909 
 H                    0     9.13768  -6.35177  -4.96356 
 C                    0     9.18438  -6.28845  -2.81002 
 H                    0     10.0629  -6.93796  -2.67566 
 C                    0     9.15755  -5.2831   -1.65491 
 H                    0     8.27081  -4.63974  -1.71916 
 H                    0     9.11588  -5.8018   -0.69014 
 H                    0     10.04231  -4.63774  -1.64665 
 C                    0     7.93396  -7.17197  -2.77001 
 H                    0     7.97514  -7.95732  -3.53354 
 H                    0     7.81973  -7.65574  -1.79305 
 H                    0     7.03202  -6.5759   -2.95385 
 H                    0     11.4879  -5.6664   -4.34474 
 C                    0    -2.01886   0.14599   0.06908 
 O                    0    -3.11666  -0.26119  -0.32531 
 C                    0    -0.94932  -0.76388   0.41963 
 C                    0     0.28383  -0.33452   0.76782 
 C                    0     0.62966   1.13842   0.83413 
 C                    0    -0.33359   2.00052   0.01345 
 C                    0    -1.79015   1.62127   0.21393 
 C                    0     1.31897  -1.32565   1.20986 
 C                    0     2.74219  -0.95435   0.79986 
 C                    0     3.05641   0.4851    1.19929 
 C                    0     2.09407   1.4259    0.44338 
 C                    0     4.49409   0.90272   0.92317 
 C                    0     4.76523   2.36269   1.33135 
 C                    0     3.88972   3.2809    0.47909 
 C                    0     2.40691   2.92338   0.61671 
 C                    0     5.64877   0.11919   1.56686 
 C                    0     6.84396   1.11322   1.53297 
 C                    0     6.26691   2.45174   1.02033 
 C                    0     4.53289   2.6194    2.82953 
 O                    0     6.94802   3.5593    1.5903 
 H                    0    -1.19429  -1.82337   0.41034 
 H                    0     0.52335   1.40653   1.90011 
 H                    0    -0.07579   1.90187  -1.0519 
 H                    0    -0.20496   3.05504   0.26916 
 H                    0    -2.13602   1.88612   1.22271 
 H                    0    -2.4497    2.14751  -0.48046 
 H                    0     1.05432  -2.32574   0.85042 
 H                    0     1.25809  -1.37896   2.30699 
 H                    0     2.86203  -1.06183  -0.28683 
 H                    0     3.44542  -1.65274   1.26474 
 H                    0     2.86289   0.57428   2.27881 
 H                    0     2.21055   1.19048  -0.62793 
 H                    0     4.6366    0.85532  -0.17054 
 H                    0     4.19186   3.18003  -0.57263 
 H                    0     4.0369    4.33482   0.75055 
 H                    0     2.0219    3.24495   1.59265 
 H                    0     1.84617   3.50199  -0.12527 
 H                    0     5.86036  -0.81669   1.04285 
 H                    0     5.39396  -0.1541    2.59782 
 H                    0     7.65487   0.75988   0.88845 
 H                    0     7.2714    1.272     2.5279 
 H                    0     6.37039   2.49052  -0.07551 
 H                    0     5.2116    2.03635   3.45892 
 H                    0     4.69901   3.67694   3.0538 
 H                    0     3.51585   2.36868   3.14064 
 H                    0     6.3271    4.29954   1.64596 
 O                    0     0.63255   1.41101   4.21874 
 H                    0    -0.23788   1.3896    4.65206 
 H                    0     0.83038   0.45847   4.13029 
 O                    0     1.57686   4.05594   4.03219 
 H                    0     2.20964   4.09092   3.30524 
 H                    0     1.34533   3.10637   4.11987 
 O                    0    -1.79695   0.21932   5.23005 
 H                    0    -1.77935   0.1703    6.19213 
 H                    0    -1.17922  -0.50938   4.91316 
 
 Stoichiometry    C122H233N4O14S4(1-)
 Framework group  C1[X(C122H233N4O14S4)]
 Deg. of freedom  1125
 Full point group                 C1      NOp   1
 Largest Abelian subgroup         C1      NOp   1
 Largest concise Abelian subgroup C1      NOp   1
                         Standard orientation:                         
 ---------------------------------------------------------------------
 Center     Atomic      Atomic             Coordinates (Angstroms)
 Number     Number       Type             X           Y           Z
 ---------------------------------------------------------------------
      1          1           0       -9.254685    4.581829   -3.042389
      2          6           0       -8.486423    4.416303   -2.274553
      3          1           0       -8.607607    5.193934   -1.516245
      4          6           0       -8.702793    3.032504   -1.633663
      5          1           0       -9.691339    3.037147   -1.159734
      6          1           0       -8.751497    2.264605   -2.417060
      7          6           0       -7.646133    2.634485   -0.629868
      8          6           0       -7.769208    2.846690    0.743150
      9          1           0       -8.658498    3.337271    1.133801
     10          6           0       -6.783840    2.424369    1.639496
     11          1           0       -6.907423    2.592487    2.706624
     12          6           0       -5.644982    1.770035    1.163360
     13          8           0       -4.657056    1.280977    1.946317
     14          1           0       -4.757067    1.492885    2.894781
     15          6           0       -5.501175    1.574852   -0.212190
     16          1           0       -4.624716    1.050085   -0.567735
     17          6           0       -6.485198    2.002700   -1.080257
     18          1           0       -6.355331    1.831055   -2.143170
     19          6           0       -7.119213    4.676054   -2.895132
     20          8           0       -6.431091    5.628811   -2.556445
     21          7           0       -6.723611    3.815561   -3.874004
     22          1           0       -7.356290    3.095830   -4.189966
     23          6           0       -5.500698    4.048709   -4.616938
     24          1           0       -4.767191    4.446490   -3.912145
     25          6           0       -4.950877    2.795385   -5.308999
     26          1           0       -5.724656    2.422251   -5.998343
     27          6           0       -3.738202    3.194858   -6.156404
     28          1           0       -2.958436    3.655898   -5.539663
     29          1           0       -3.302377    2.315006   -6.642519
     30          1           0       -4.013527    3.914565   -6.935675
     31          6           0       -4.613174    1.641824   -4.347569
     32          1           0       -5.540897    1.271965   -3.894781
     33          1           0       -4.228911    0.800112   -4.937154
     34          6           0       -3.611992    1.975315   -3.242837
     35          1           0       -3.989163    2.759167   -2.576576
     36          1           0       -3.413004    1.086036   -2.636789
     37          1           0       -2.652122    2.308494   -3.654548
     38          1           0       -5.663998    4.834723   -5.369121
     39          1           0       -3.838694    7.479597   -1.691508
     40          6           0       -2.828666    7.058120   -1.654259
     41          1           0       -2.347670    7.402770   -0.729147
     42          6           0       -2.882022    5.529917   -1.693515
     43          1           0       -3.393101    5.242704   -2.621533
     44          6           0       -1.474849    4.931130   -1.725560
     45          1           0       -0.929463    5.170000   -0.802473
     46          1           0       -1.511136    3.840343   -1.821488
     47          1           0       -0.890282    5.323855   -2.566795
     48          6           0       -3.703966    4.984038   -0.524709
     49          1           0       -4.723355    5.380937   -0.549748
     50          1           0       -3.781947    3.892249   -0.557930
     51          1           0       -3.243464    5.254107    0.435268
     52          1           0       -2.257297    7.460100   -2.499724
     53          1           0       -0.120370   -4.993403    7.005058
     54          6           0        0.404724   -4.557264    6.144719
     55          1           0        0.223725   -5.211955    5.291924
     56          6           0       -0.158807   -3.166693    5.854826
     57          1           0       -1.238980   -3.221200    5.670017
     58          1           0       -0.007915   -2.520898    6.726408
     59          6           0        0.513155   -2.487282    4.653483
     60          8           0        1.448363   -3.086385    4.092181
     61          8           0        0.066003   -1.344090    4.316811
     62          6           0        1.879536   -4.466227    6.507239
     63          8           0        2.306583   -3.558225    7.212382
     64          7           0        2.694107   -5.456911    6.062745
     65          6           0        4.135310   -5.363288    6.278839
     66          1           0        4.353397   -5.199910    7.337399
     67          1           0        4.539607   -4.509720    5.719275
     68          6           0        4.664979   -6.692081    5.737275
     69          1           0        4.628544   -7.460031    6.519802
     70          1           0        5.696385   -6.613662    5.383749
     71          6           0        3.675507   -7.027613    4.616301
     72          1           0        3.664997   -8.087530    4.347153
     73          1           0        3.921016   -6.451220    3.717723
     74          6           0        2.327139   -6.551627    5.172943
     75          1           0        1.679684   -6.206922    4.362050
     76          1           0        1.806751   -7.349697    5.720931
     77          1           0       -0.883136    5.643613    7.640201
     78          6           0       -0.384943    6.089487    6.772673
     79          1           0        0.329277    5.359651    6.377010
     80          6           0       -1.407554    6.464436    5.691262
     81          1           0       -2.084473    7.240503    6.069624
     82          1           0       -0.877338    6.891701    4.832770
     83          6           0       -2.195585    5.251394    5.261642
     84          6           0       -3.440329    4.961616    5.820035
     85          1           0       -3.905271    5.679684    6.492635
     86          6           0       -4.079129    3.748965    5.572731
     87          1           0       -5.026689    3.503812    6.042518
     88          6           0       -3.466706    2.809799    4.751714
     89          8           0       -4.060576    1.580564    4.586070
     90          1           0       -3.330374    0.917524    4.628137
     91          6           0       -2.260540    3.114808    4.121721
     92          1           0       -1.798122    2.384504    3.465107
     93          6           0       -1.627247    4.320935    4.386723
     94          1           0       -0.651449    4.516024    3.947012
     95          1           0        0.173892    6.969941    7.113381
     96          1           0        4.176777    6.167281    6.018136
     97          6           0        4.212071    5.578832    5.095897
     98          1           0        5.139383    5.004017    5.069146
     99          1           0        3.365023    4.881901    5.091561
    100          6           0        4.129043    6.438584    3.856886
    101          8           0        4.609676    6.086620    2.780678
    102          7           0        3.463932    7.613371    4.018610
    103          1           0        3.006983    7.764563    4.905802
    104          6           0        3.120662    8.509527    2.930196
    105          1           0        3.680453    8.163422    2.058543
    106          6           0        1.614497    8.548304    2.639459
    107          1           0        1.099505    9.012443    3.493937
    108          1           0        1.458035    9.224485    1.786495
    109          6           0        0.948650    7.195121    2.342852
    110          1           0        1.050677    6.556731    3.231509
    111          6           0       -0.545040    7.396559    2.068518
    112          1           0       -0.694447    7.938829    1.125759
    113          1           0       -1.062250    6.434206    1.988092
    114          1           0       -1.034289    7.971882    2.863057
    115          6           0        1.600919    6.464771    1.167293
    116          1           0        2.640791    6.195467    1.376021
    117          1           0        1.055306    5.540899    0.945398
    118          1           0        1.581518    7.088024    0.263025
    119          1           0        3.475585    9.519281    3.169600
    120          1           0        5.809680    8.817974   -2.585457
    121          6           0        5.169890    7.983922   -2.896770
    122          1           0        5.811383    7.208131   -3.334989
    123          6           0        4.380209    7.414315   -1.710137
    124          1           0        3.743750    8.217909   -1.310601
    125          6           0        3.471325    6.264590   -2.155015
    126          1           0        4.066053    5.454754   -2.595220
    127          1           0        2.918833    5.845418   -1.306655
    128          1           0        2.742822    6.595925   -2.904610
    129          6           0        5.316447    6.956216   -0.589174
    130          1           0        6.028166    7.743561   -0.312589
    131          1           0        4.767012    6.672536    0.314582
    132          1           0        5.894449    6.080697   -0.909502
    133          1           0        4.498536    8.344490   -3.684805
    134          1           0        1.477192    4.824917   -5.882219
    135          6           0        0.622797    4.484979   -6.476997
    136          1           0        0.953814    4.396983   -7.517339
    137          6           0        0.084940    3.153453   -5.952508
    138          1           0       -0.247433    3.240867   -4.911984
    139          1           0       -0.769353    2.807098   -6.543841
    140          1           0        0.853350    2.373520   -5.988698
    141          1           0       -0.145439    5.264335   -6.434752
    142          1           0       -7.343799   -5.917143   -5.668135
    143          6           0       -6.627218   -5.381640   -6.301179
    144          1           0       -6.859079   -5.615284   -7.345403
    145          6           0       -6.691499   -3.873009   -6.049409
    146          1           0       -5.992857   -3.354912   -6.718130
    147          1           0       -7.694039   -3.502301   -6.295861
    148          6           0       -6.362476   -3.503266   -4.603166
    149          1           0       -7.034164   -4.027861   -3.912493
    150          1           0       -5.334527   -3.801016   -4.362498
    151         16           0       -6.532456   -1.707931   -4.346277
    152          6           0       -6.006997   -1.600951   -2.613853
    153          1           0       -4.941810   -1.819845   -2.510736
    154          1           0       -6.181132   -0.578323   -2.270612
    155          1           0       -6.601589   -2.271038   -1.986009
    156          1           0       -5.628312   -5.775852   -6.081520
    157          1           0       -1.512490   -3.203792   -7.511323
    158          6           0       -1.141899   -2.196737   -7.730067
    159          1           0       -1.131735   -2.064318   -8.817790
    160          6           0       -2.014819   -1.135566   -7.046403
    161          1           0       -1.641867   -0.135391   -7.298713
    162          1           0       -3.039420   -1.198677   -7.434328
    163          6           0       -2.023130   -1.315539   -5.547518
    164          6           0       -1.258814   -0.498027   -4.713235
    165          1           0       -0.693578    0.326650   -5.143135
    166          6           0       -1.205499   -0.732755   -3.340745
    167          1           0       -0.601534   -0.094427   -2.700348
    168          6           0       -1.914697   -1.792312   -2.787761
    169          1           0       -1.879398   -1.997664   -1.726530
    170          6           0       -2.683910   -2.610320   -3.610304
    171          1           0       -3.217199   -3.449362   -3.171020
    172          6           0       -2.743629   -2.368933   -4.976699
    173          1           0       -3.347459   -3.009418   -5.617360
    174          1           0       -0.110955   -2.137344   -7.364979
    175          1           0        4.678155    1.247456   -5.772201
    176          6           0        3.834498    1.847311   -5.404409
    177          1           0        3.231288    2.136092   -6.273300
    178          6           0        3.011188    1.044903   -4.390661
    179          1           0        2.162936    1.668246   -4.073541
    180          6           0        2.449588   -0.230402   -5.024381
    181          1           0        3.264576   -0.903232   -5.323668
    182          1           0        1.803717   -0.774230   -4.326188
    183          1           0        1.856319   -0.006349   -5.919646
    184          6           0        3.842370    0.716148   -3.148796
    185          1           0        4.164162    1.624234   -2.625319
    186          1           0        3.276583    0.097795   -2.442055
    187          1           0        4.742836    0.152123   -3.425462
    188          1           0        4.237146    2.762783   -4.954705
    189          1           0        8.432393    5.103853   -4.358676
    190          6           0        9.193939    5.354732   -3.612631
    191          1           0        9.678706    6.285532   -3.925047
    192          6           0        8.566575    5.499667   -2.229443
    193          1           0        9.334787    5.788055   -1.499624
    194          1           0        7.832053    6.313612   -2.242686
    195          6           0        7.895807    4.227068   -1.712363
    196          1           0        8.618087    3.404536   -1.658283
    197          1           0        7.524470    4.373554   -0.693500
    198         16           0        6.492941    3.650577   -2.742509
    199          6           0        7.244272    2.209678   -3.549214
    200          1           0        7.507828    1.445080   -2.812179
    201          1           0        6.498325    1.793220   -4.229761
    202          1           0        8.130359    2.491763   -4.124675
    203          1           0        9.952407    4.561942   -3.620211
    204          1           0        7.880772   -2.064859   -5.297645
    205          6           0        6.907160   -2.437330   -4.960354
    206          1           0        6.843699   -3.493859   -5.241668
    207          6           0        6.731011   -2.235000   -3.456325
    208          1           0        7.526729   -2.769162   -2.916717
    209          1           0        6.870501   -1.169923   -3.222601
    210          6           0        5.371501   -2.680439   -2.898806
    211          1           0        4.586973   -2.167004   -3.475415
    212          6           0        5.141172   -4.185362   -3.039540
    213          1           0        5.862488   -4.738307   -2.424968
    214          1           0        4.138732   -4.447177   -2.686754
    215          1           0        5.231713   -4.531904   -4.075005
    216          6           0        5.236650   -2.266592   -1.433344
    217          1           0        5.260112   -1.175984   -1.322842
    218          1           0        4.299554   -2.632873   -1.003403
    219          1           0        6.049910   -2.689040   -0.830858
    220          1           0        6.130080   -1.900149   -5.518575
    221          1           0        1.902004   -4.673893   -4.577433
    222          6           0        1.260290   -5.206326   -3.864767
    223          1           0        1.903649   -5.867703   -3.270211
    224          6           0        0.499841   -4.228586   -2.967150
    225          1           0       -0.122071   -3.600014   -3.615738
    226          6           0       -0.425944   -4.980493   -2.008798
    227          1           0        0.158311   -5.621041   -1.333669
    228          1           0       -1.022172   -4.300562   -1.393014
    229          1           0       -1.122881   -5.625734   -2.558584
    230          6           0        1.445509   -3.305003   -2.193960
    231          1           0        2.135509   -2.780796   -2.867822
    232          1           0        0.878627   -2.547186   -1.639074
    233          1           0        2.046291   -3.869519   -1.467944
    234          1           0        0.568308   -5.836095   -4.436394
    235          1           0       -4.869868   -4.950491   -2.112149
    236          6           0       -4.673341   -5.460513   -1.162022
    237          1           0       -3.614681   -5.731406   -1.136680
    238          6           0       -5.016043   -4.559040    0.015983
    239          1           0       -6.052031   -4.209760   -0.028577
    240          1           0       -4.878162   -5.092523    0.963676
    241          6           0       -4.085191   -3.373122    0.037958
    242          8           0       -2.893302   -3.469652   -0.187005
    243          8           0       -4.693264   -2.223641    0.284147
    244          1           0       -4.026140   -1.493093    0.142030
    245          1           0       -5.272218   -6.376595   -1.144116
    246          1           0       -9.520087   -6.047719    1.536216
    247          6           0      -10.440959   -5.454513    1.581085
    248          1           0      -10.562537   -5.108727    2.614236
    249          6           0      -10.383467   -4.276188    0.612341
    250          1           0      -10.287928   -4.643642   -0.416695
    251          1           0      -11.321505   -3.710199    0.658519
    252          6           0       -9.218929   -3.341551    0.925918
    253          1           0       -9.303798   -2.966351    1.953710
    254          1           0       -8.268585   -3.884130    0.851148
    255         16           0       -9.206075   -1.927107   -0.216845
    256          6           0       -7.889273   -0.939218    0.540549
    257          1           0       -6.918351   -1.434810    0.464475
    258          1           0       -7.842140    0.006682   -0.001356
    259          1           0       -8.120478   -0.723135    1.588245
    260          1           0      -11.279288   -6.119484    1.348408
    261          1           0       -8.090880   -4.360154    5.669683
    262          6           0       -7.408376   -4.394239    4.813916
    263          1           0       -7.891048   -4.978306    4.020077
    264          6           0       -7.067685   -2.989602    4.317442
    265          1           0       -7.990056   -2.476266    4.010761
    266          1           0       -6.634233   -2.395971    5.131272
    267          6           0       -6.110665   -2.995536    3.126196
    268          1           0       -6.489729   -3.671002    2.351487
    269          1           0       -6.036702   -2.006631    2.665872
    270         16           0       -4.408588   -3.539140    3.510797
    271          6           0       -3.591086   -1.925904    3.665173
    272          1           0       -3.925003   -1.395999    4.559855
    273          1           0       -2.514050   -2.096368    3.743782
    274          1           0       -3.781268   -1.313402    2.778767
    275          1           0       -6.502145   -4.926056    5.122886
    276          1           0       -2.104941   -6.253708    2.984675
    277          6           0       -1.656128   -5.965455    2.027787
    278          1           0       -2.449755   -5.950190    1.273468
    279          6           0       -0.991621   -4.594499    2.118500
    280          1           0       -0.176511   -4.575329    2.849381
    281          1           0       -0.590481   -4.288089    1.146713
    282          1           0       -1.718964   -3.830426    2.404424
    283          1           0       -0.936900   -6.743805    1.744106
    284          1           0        3.244596   -8.521006    0.442363
    285          6           0        3.823535   -8.112309   -0.392827
    286          1           0        3.755617   -8.809865   -1.235542
    287          6           0        3.305407   -6.723834   -0.778114
    288          1           0        3.871388   -6.362900   -1.646423
    289          1           0        2.261652   -6.804005   -1.105567
    290          6           0        3.393851   -5.728874    0.338477
    291          6           0        2.351716   -5.236249    1.080597
    292          1           0        1.295150   -5.444697    0.986177
    293          7           0        2.802581   -4.370346    2.043250
    294          1           0        2.230412   -3.853142    2.719223
    295          6           0        4.164498   -4.278949    1.939240
    296          6           0        5.066991   -3.508176    2.680215
    297          1           0        4.713540   -2.858746    3.476050
    298          6           0        6.408219   -3.601351    2.349020
    299          1           0        7.134740   -3.009150    2.898191
    300          6           0        6.847736   -4.446362    1.309245
    301          1           0        7.908102   -4.493784    1.076228
    302          6           0        5.950590   -5.206644    0.578074
    303          1           0        6.301313   -5.849050   -0.227116
    304          6           0        4.581729   -5.126231    0.881206
    305          1           0        4.870896   -8.063132   -0.074879
    306          1           0       10.713017   -4.515682   -5.447262
    307          6           0       10.672115   -4.939674   -4.438433
    308          1           0       10.866768   -4.125783   -3.731829
    309          6           0        9.316906   -5.603215   -4.179978
    310          1           0        8.515134   -4.858131   -4.279092
    311          1           0        9.137685   -6.351770   -4.963561
    312          6           0        9.184383   -6.288454   -2.810018
    313          1           0       10.062901   -6.937961   -2.675661
    314          6           0        9.157549   -5.283103   -1.654907
    315          1           0        8.270806   -4.639739   -1.719164
    316          1           0        9.115880   -5.801797   -0.690144
    317          1           0       10.042307   -4.637740   -1.646650
    318          6           0        7.933959   -7.171973   -2.770010
    319          1           0        7.975139   -7.957316   -3.533544
    320          1           0        7.819731   -7.655741   -1.793054
    321          1           0        7.032023   -6.575902   -2.953849
    322          1           0       11.487897   -5.666402   -4.344742
    323          6           0       -2.018858    0.145985    0.069079
    324          8           0       -3.116659   -0.261189   -0.325308
    325          6           0       -0.949324   -0.763880    0.419632
    326          6           0        0.283829   -0.334522    0.767820
    327          6           0        0.629655    1.138416    0.834128
    328          6           0       -0.333589    2.000519    0.013451
    329          6           0       -1.790149    1.621266    0.213931
    330          6           0        1.318965   -1.325645    1.209856
    331          6           0        2.742189   -0.954348    0.799861
    332          6           0        3.056411    0.485101    1.199289
    333          6           0        2.094066    1.425903    0.443377
    334          6           0        4.494091    0.902724    0.923169
    335          6           0        4.765228    2.362691    1.331345
    336          6           0        3.889716    3.280896    0.479088
    337          6           0        2.406906    2.923377    0.616705
    338          6           0        5.648774    0.119192    1.566858
    339          6           0        6.843955    1.113222    1.532966
    340          6           0        6.266913    2.451743    1.020335
    341          6           0        4.532895    2.619396    2.829532
    342          8           0        6.948021    3.559301    1.590303
    343          1           0       -1.194288   -1.823373    0.410338
    344          1           0        0.523347    1.406532    1.900112
    345          1           0       -0.075785    1.901868   -1.051903
    346          1           0       -0.204961    3.055037    0.269158
    347          1           0       -2.136016    1.886124    1.222710
    348          1           0       -2.449702    2.147514   -0.480461
    349          1           0        1.054320   -2.325736    0.850415
    350          1           0        1.258092   -1.378964    2.306990
    351          1           0        2.862025   -1.061830   -0.286831
    352          1           0        3.445424   -1.652744    1.264737
    353          1           0        2.862889    0.574277    2.278812
    354          1           0        2.210548    1.190484   -0.627929
    355          1           0        4.636599    0.855322   -0.170538
    356          1           0        4.191858    3.180034   -0.572632
    357          1           0        4.036900    4.334822    0.750552
    358          1           0        2.021899    3.244954    1.592648
    359          1           0        1.846167    3.501987   -0.125269
    360          1           0        5.860361   -0.816691    1.042846
    361          1           0        5.393956   -0.154102    2.597817
    362          1           0        7.654865    0.759878    0.888449
    363          1           0        7.271403    1.272002    2.527902
    364          1           0        6.370391    2.490519   -0.075508
    365          1           0        5.211603    2.036346    3.458918
    366          1           0        4.699011    3.676941    3.053801
    367          1           0        3.515847    2.368675    3.140637
    368          1           0        6.327100    4.299538    1.645956
    369          8           0        0.632546    1.411009    4.218737
    370          1           0       -0.237875    1.389602    4.652056
    371          1           0        0.830377    0.458467    4.130287
    372          8           0        1.576858    4.055939    4.032185
    373          1           0        2.209644    4.090920    3.305242
    374          1           0        1.345326    3.106375    4.119867
    375          8           0       -1.796948    0.219321    5.230050
    376          1           0       -1.779347    0.170303    6.192129
    377          1           0       -1.179218   -0.509380    4.913158
 ---------------------------------------------------------------------
 Rotational constants (GHZ):           0.0078704           0.0063350           0.0055780
 Standard basis: 6-31G(d) (6D, 7F)
 There are  2642 symmetry adapted cartesian basis functions of A   symmetry.
 There are  2642 symmetry adapted basis functions of A   symmetry.
  2642 basis functions,  5060 primitive gaussians,  2642 cartesian basis functions
   585 alpha electrons      585 beta electrons
       nuclear repulsion energy     45571.1320611196 Hartrees.
 NAtoms=  377 NActive=  377 NUniq=  377 SFac= 1.00D+00 NAtFMM=   60 NAOKFM=T Big=T
 Integral buffers will be    131072 words long.
 Raffenetti 2 integral format.
 Two-electron integral symmetry is turned on.
 Nuclear repulsion after empirical dispersion term =    45570.6449871119 Hartrees.
 One-electron integrals computed using PRISM.
 NBasis=  2642 RedAO= T EigKep=  3.45D-04  NBF=  2642
 NBsUse=  2642 1.00D-06 EigRej= -1.00D+00 NBFU=  2642
 ExpMin= 1.17D-01 ExpMax= 2.19D+04 ExpMxC= 3.30D+03 IAcc=3 IRadAn=         5 AccDes= 0.00D+00
 Harris functional with IExCor= 4639 and IRadAn=       5 diagonalized for initial guess.
 HarFok:  IExCor= 4639 AccDes= 0.00D+00 IRadAn=         5 IDoV= 1 UseB2=F ITyADJ=14
 ICtDFT=  3500011 ScaDFX=  1.000000  1.000000  1.000000  1.000000
 FoFCou: FMM=F IPFlag=           0 FMFlag=      100000 FMFlg1=        2001
         NFxFlg=           0 DoJE=T BraDBF=F KetDBF=T FulRan=T
         wScrn=  0.000000 ICntrl=       500 IOpCl=  0 I1Cent=   200000004 NGrid=           0
         NMat0=    1 NMatS0=      1 NMatT0=    0 NMatD0=    1 NMtDS0=    0 NMtDT0=    0
 Petite list used in FoFCou.
 Requested convergence on RMS density matrix=1.00D-08 within 128 cycles.
 Requested convergence on MAX density matrix=1.00D-06.
 Requested convergence on             energy=1.00D-06.
 No special actions if energy rises.
 Integral accuracy reduced to 1.0D-05 until final iterations.
 Initial convergence to 1.0D-05 achieved.  Increase integral accuracy.
 SCF Done:  E(RwB97XD) =  -7652.91657162     A.U. after   15 cycles
            NFock= 15  Conv=0.36D-08     -V/T= 2.0082
 Hyperfine terms turned off by default for NAtoms > 100.

 **********************************************************************

            Population analysis using the SCF Density.

 **********************************************************************

 Orbital symmetries:
       Occupied  (A) (A) (A) (A) (A) (A) (A) (A) (A) (A) (A) (A)
                 (A) (A) (A) (A) (A) (A) (A) (A) (A) (A) (A) (A)
                 (A) (A) (A) (A) (A) (A) (A) (A) (A) (A) (A) (A)
                 (A) (A) (A) (A) (A) (A) (A) (A) (A) (A) (A) (A)
                 (A) (A) (A) (A) (A) (A) (A) (A) (A) (A) (A) (A)
                 (A) (A) (A) (A) (A) (A) (A) (A) (A) (A) (A) (A)
                 (A) (A) (A) (A) (A) (A) (A) (A) (A) (A) (A) (A)
                 (A) (A) (A) (A) (A) (A) (A) (A) (A) (A) (A) (A)
                 (A) (A) (A) (A) (A) (A) (A) (A) (A) (A) (A) (A)
                 (A) (A) (A) (A) (A) (A) (A) (A) (A) (A) (A) (A)
                 (A) (A) (A) (A) (A) (A) (A) (A) (A) (A) (A) (A)
                 (A) (A) (A) (A) (A) (A) (A) (A) (A) (A) (A) (A)
                 (A) (A) (A) (A) (A) (A) (A) (A) (A) (A) (A) (A)
                 (A) (A) (A) (A) (A) (A) (A) (A) (A) (A) (A) (A)
                 (A) (A) (A) (A) (A) (A) (A) (A) (A) (A) (A) (A)
                 (A) (A) (A) (A) (A) (A) (A) (A) (A) (A) (A) (A)
                 (A) (A) (A) (A) (A) (A) (A) (A) (A) (A) (A) (A)
                 (A) (A) (A) (A) (A) (A) (A) (A) (A) (A) (A) (A)
                 (A) (A) (A) (A) (A) (A) (A) (A) (A) (A) (A) (A)
                 (A) (A) (A) (A) (A) (A) (A) (A) (A) (A) (A) (A)
                 (A) (A) (A) (A) (A) (A) (A) (A) (A) (A) (A) (A)
                 (A) (A) (A) (A) (A) (A) (A) (A) (A) (A) (A) (A)
                 (A) (A) (A) (A) (A) (A) (A) (A) (A) (A) (A) (A)
                 (A) (A) (A) (A) (A) (A) (A) (A) (A) (A) (A) (A)
                 (A) (A) (A) (A) (A) (A) (A) (A) (A) (A) (A) (A)
                 (A) (A) (A) (A) (A) (A) (A) (A) (A) (A) (A) (A)
                 (A) (A) (A) (A) (A) (A) (A) (A) (A) (A) (A) (A)
                 (A) (A) (A) (A) (A) (A) (A) (A) (A) (A) (A) (A)
                 (A) (A) (A) (A) (A) (A) (A) (A) (A) (A) (A) (A)
                 (A) (A) (A) (A) (A) (A) (A) (A) (A) (A) (A) (A)
                 (A) (A) (A) (A) (A) (A) (A) (A) (A) (A) (A) (A)
                 (A) (A) (A) (A) (A) (A) (A) (A) (A) (A) (A) (A)
                 (A) (A) (A) (A) (A) (A) (A) (A) (A) (A) (A) (A)
                 (A) (A) (A) (A) (A) (A) (A) (A) (A) (A) (A) (A)
                 (A) (A) (A) (A) (A) (A) (A) (A) (A) (A) (A) (A)
                 (A) (A) (A) (A) (A) (A) (A) (A) (A) (A) (A) (A)
                 (A) (A) (A) (A) (A) (A) (A) (A) (A) (A) (A) (A)
                 (A) (A) (A) (A) (A) (A) (A) (A) (A) (A) (A) (A)
                 (A) (A) (A) (A) (A) (A) (A) (A) (A) (A) (A) (A)
                 (A) (A) (A) (A) (A) (A) (A) (A) (A) (A) (A) (A)
                 (A) (A) (A) (A) (A) (A) (A) (A) (A) (A) (A) (A)
                 (A) (A) (A) (A) (A) (A) (A) (A) (A) (A) (A) (A)
                 (A) (A) (A) (A) (A) (A) (A) (A) (A) (A) (A) (A)
                 (A) (A) (A) (A) (A) (A) (A) (A) (A) (A) (A) (A)
                 (A) (A) (A) (A) (A) (A) (A) (A) (A) (A) (A) (A)
                 (A) (A) (A) (A) (A) (A) (A) (A) (A) (A) (A) (A)
                 (A) (A) (A) (A) (A) (A) (A) (A) (A) (A) (A) (A)
                 (A) (A) (A) (A) (A) (A) (A) (A) (A) (A) (A) (A)
                 (A) (A) (A) (A) (A) (A) (A) (A) (A)
       Virtual   (A) (A) (A) (A) (A) (A) (A) (A) (A) (A) (A) (A)
                 (A) (A) (A) (A) (A) (A) (A) (A) (A) (A) (A) (A)
                 (A) (A) (A) (A) (A) (A) (A) (A) (A) (A) (A) (A)
                 (A) (A) (A) (A) (A) (A) (A) (A) (A) (A) (A) (A)
                 (A) (A) (A) (A) (A) (A) (A) (A) (A) (A) (A) (A)
                 (A) (A) (A) (A) (A) (A) (A) (A) (A) (A) (A) (A)
                 (A) (A) (A) (A) (A) (A) (A) (A) (A) (A) (A) (A)
                 (A) (A) (A) (A) (A) (A) (A) (A) (A) (A) (A) (A)
                 (A) (A) (A) (A) (A) (A) (A) (A) (A) (A) (A) (A)
                 (A) (A) (A) (A) (A) (A) (A) (A) (A) (A) (A) (A)
                 (A) (A) (A) (A) (A) (A) (A) (A) (A) (A) (A) (A)
                 (A) (A) (A) (A) (A) (A) (A) (A) (A) (A) (A) (A)
                 (A) (A) (A) (A) (A) (A) (A) (A) (A) (A) (A) (A)
                 (A) (A) (A) (A) (A) (A) (A) (A) (A) (A) (A) (A)
                 (A) (A) (A) (A) (A) (A) (A) (A) (A) (A) (A) (A)
                 (A) (A) (A) (A) (A) (A) (A) (A) (A) (A) (A) (A)
                 (A) (A) (A) (A) (A) (A) (A) (A) (A) (A) (A) (A)
                 (A) (A) (A) (A) (A) (A) (A) (A) (A) (A) (A) (A)
                 (A) (A) (A) (A) (A) (A) (A) (A) (A) (A) (A) (A)
                 (A) (A) (A) (A) (A) (A) (A) (A) (A) (A) (A) (A)
                 (A) (A) (A) (A) (A) (A) (A) (A) (A) (A) (A) (A)
                 (A) (A) (A) (A) (A) (A) (A) (A) (A) (A) (A) (A)
                 (A) (A) (A) (A) (A) (A) (A) (A) (A) (A) (A) (A)
                 (A) (A) (A) (A) (A) (A) (A) (A) (A) (A) (A) (A)
                 (A) (A) (A) (A) (A) (A) (A) (A) (A) (A) (A) (A)
                 (A) (A) (A) (A) (A) (A) (A) (A) (A) (A) (A) (A)
                 (A) (A) (A) (A) (A) (A) (A) (A) (A) (A) (A) (A)
                 (A) (A) (A) (A) (A) (A) (A) (A) (A) (A) (A) (A)
                 (A) (A) (A) (A) (A) (A) (A) (A) (A) (A) (A) (A)
                 (A) (A) (A) (A) (A) (A) (A) (A) (A) (A) (A) (A)
                 (A) (A) (A) (A) (A) (A) (A) (A) (A) (A) (A) (A)
                 (A) (A) (A) (A) (A) (A) (A) (A) (A) (A) (A) (A)
                 (A) (A) (A) (A) (A) (A) (A) (A) (A) (A) (A) (A)
                 (A) (A) (A) (A) (A) (A) (A) (A) (A) (A) (A) (A)
                 (A) (A) (A) (A) (A) (A) (A) (A) (A) (A) (A) (A)
                 (A) (A) (A) (A) (A) (A) (A) (A) (A) (A) (A) (A)
                 (A) (A) (A) (A) (A) (A) (A) (A) (A) (A) (A) (A)
                 (A) (A) (A) (A) (A) (A) (A) (A) (A) (A) (A) (A)
                 (A) (A) (A) (A) (A) (A) (A) (A) (A) (A) (A) (A)
                 (A) (A) (A) (A) (A) (A) (A) (A) (A) (A) (A) (A)
                 (A) (A) (A) (A) (A) (A) (A) (A) (A) (A) (A) (A)
                 (A) (A) (A) (A) (A) (A) (A) (A) (A) (A) (A) (A)
                 (A) (A) (A) (A) (A) (A) (A) (A) (A) (A) (A) (A)
                 (A) (A) (A) (A) (A) (A) (A) (A) (A) (A) (A) (A)
                 (A) (A) (A) (A) (A) (A) (A) (A) (A) (A) (A) (A)
                 (A) (A) (A) (A) (A) (A) (A) (A) (A) (A) (A) (A)
                 (A) (A) (A) (A) (A) (A) (A) (A) (A) (A) (A) (A)
                 (A) (A) (A) (A) (A) (A) (A) (A) (A) (A) (A) (A)
                 (A) (A) (A) (A) (A) (A) (A) (A) (A) (A) (A) (A)
                 (A) (A) (A) (A) (A) (A) (A) (A) (A) (A) (A) (A)
                 (A) (A) (A) (A) (A) (A) (A) (A) (A) (A) (A) (A)
                 (A) (A) (A) (A) (A) (A) (A) (A) (A) (A) (A) (A)
                 (A) (A) (A) (A) (A) (A) (A) (A) (A) (A) (A) (A)
                 (A) (A) (A) (A) (A) (A) (A) (A) (A) (A) (A) (A)
                 (A) (A) (A) (A) (A) (A) (A) (A) (A) (A) (A) (A)
                 (A) (A) (A) (A) (A) (A) (A) (A) (A) (A) (A) (A)
                 (A) (A) (A) (A) (A) (A) (A) (A) (A) (A) (A) (A)
                 (A) (A) (A) (A) (A) (A) (A) (A) (A) (A) (A) (A)
                 (A) (A) (A) (A) (A) (A) (A) (A) (A) (A) (A) (A)
                 (A) (A) (A) (A) (A) (A) (A) (A) (A) (A) (A) (A)
                 (A) (A) (A) (A) (A) (A) (A) (A) (A) (A) (A) (A)
                 (A) (A) (A) (A) (A) (A) (A) (A) (A) (A) (A) (A)
                 (A) (A) (A) (A) (A) (A) (A) (A) (A) (A) (A) (A)
                 (A) (A) (A) (A) (A) (A) (A) (A) (A) (A) (A) (A)
                 (A) (A) (A) (A) (A) (A) (A) (A) (A) (A) (A) (A)
                 (A) (A) (A) (A) (A) (A) (A) (A) (A) (A) (A) (A)
                 (A) (A) (A) (A) (A) (A) (A) (A) (A) (A) (A) (A)
                 (A) (A) (A) (A) (A) (A) (A) (A) (A) (A) (A) (A)
                 (A) (A) (A) (A) (A) (A) (A) (A) (A) (A) (A) (A)
                 (A) (A) (A) (A) (A) (A) (A) (A) (A) (A) (A) (A)
                 (A) (A) (A) (A) (A) (A) (A) (A) (A) (A) (A) (A)
                 (A) (A) (A) (A) (A) (A) (A) (A) (A) (A) (A) (A)
                 (A) (A) (A) (A) (A) (A) (A) (A) (A) (A) (A) (A)
                 (A) (A) (A) (A) (A) (A) (A) (A) (A) (A) (A) (A)
                 (A) (A) (A) (A) (A) (A) (A) (A) (A) (A) (A) (A)
                 (A) (A) (A) (A) (A) (A) (A) (A) (A) (A) (A) (A)
                 (A) (A) (A) (A) (A) (A) (A) (A) (A) (A) (A) (A)
                 (A) (A) (A) (A) (A) (A) (A) (A) (A) (A) (A) (A)
                 (A) (A) (A) (A) (A) (A) (A) (A) (A) (A) (A) (A)
                 (A) (A) (A) (A) (A) (A) (A) (A) (A) (A) (A) (A)
                 (A) (A) (A) (A) (A) (A) (A) (A) (A) (A) (A) (A)
                 (A) (A) (A) (A) (A) (A) (A) (A) (A) (A) (A) (A)
                 (A) (A) (A) (A) (A) (A) (A) (A) (A) (A) (A) (A)
                 (A) (A) (A) (A) (A) (A) (A) (A) (A) (A) (A) (A)
                 (A) (A) (A) (A) (A) (A) (A) (A) (A) (A) (A) (A)
                 (A) (A) (A) (A) (A) (A) (A) (A) (A) (A) (A) (A)
                 (A) (A) (A) (A) (A) (A) (A) (A) (A) (A) (A) (A)
                 (A) (A) (A) (A) (A) (A) (A) (A) (A) (A) (A) (A)
                 (A) (A) (A) (A) (A) (A) (A) (A) (A) (A) (A) (A)
                 (A) (A) (A) (A) (A) (A) (A) (A) (A) (A) (A) (A)
                 (A) (A) (A) (A) (A) (A) (A) (A) (A) (A) (A) (A)
                 (A) (A) (A) (A) (A) (A) (A) (A) (A) (A) (A) (A)
                 (A) (A) (A) (A) (A) (A) (A) (A) (A) (A) (A) (A)
                 (A) (A) (A) (A) (A) (A) (A) (A) (A) (A) (A) (A)
                 (A) (A) (A) (A) (A) (A) (A) (A) (A) (A) (A) (A)
                 (A) (A) (A) (A) (A) (A) (A) (A) (A) (A) (A) (A)
                 (A) (A) (A) (A) (A) (A) (A) (A) (A) (A) (A) (A)
                 (A) (A) (A) (A) (A) (A) (A) (A) (A) (A) (A) (A)
                 (A) (A) (A) (A) (A) (A) (A) (A) (A) (A) (A) (A)
                 (A) (A) (A) (A) (A) (A) (A) (A) (A) (A) (A) (A)
                 (A) (A) (A) (A) (A) (A) (A) (A) (A) (A) (A) (A)
                 (A) (A) (A) (A) (A) (A) (A) (A) (A) (A) (A) (A)
                 (A) (A) (A) (A) (A) (A) (A) (A) (A) (A) (A) (A)
                 (A) (A) (A) (A) (A) (A) (A) (A) (A) (A) (A) (A)
                 (A) (A) (A) (A) (A) (A) (A) (A) (A) (A) (A) (A)
                 (A) (A) (A) (A) (A) (A) (A) (A) (A) (A) (A) (A)
                 (A) (A) (A) (A) (A) (A) (A) (A) (A) (A) (A) (A)
                 (A) (A) (A) (A) (A) (A) (A) (A) (A) (A) (A) (A)
                 (A) (A) (A) (A) (A) (A) (A) (A) (A) (A) (A) (A)
                 (A) (A) (A) (A) (A) (A) (A) (A) (A) (A) (A) (A)
                 (A) (A) (A) (A) (A) (A) (A) (A) (A) (A) (A) (A)
                 (A) (A) (A) (A) (A) (A) (A) (A) (A) (A) (A) (A)
                 (A) (A) (A) (A) (A) (A) (A) (A) (A) (A) (A) (A)
                 (A) (A) (A) (A) (A) (A) (A) (A) (A) (A) (A) (A)
                 (A) (A) (A) (A) (A) (A) (A) (A) (A) (A) (A) (A)
                 (A) (A) (A) (A) (A) (A) (A) (A) (A) (A) (A) (A)
                 (A) (A) (A) (A) (A) (A) (A) (A) (A) (A) (A) (A)
                 (A) (A) (A) (A) (A) (A) (A) (A) (A) (A) (A) (A)
                 (A) (A) (A) (A) (A) (A) (A) (A) (A) (A) (A) (A)
                 (A) (A) (A) (A) (A) (A) (A) (A) (A) (A) (A) (A)
                 (A) (A) (A) (A) (A) (A) (A) (A) (A) (A) (A) (A)
                 (A) (A) (A) (A) (A) (A) (A) (A) (A) (A) (A) (A)
                 (A) (A) (A) (A) (A) (A) (A) (A) (A) (A) (A) (A)
                 (A) (A) (A) (A) (A) (A) (A) (A) (A) (A) (A) (A)
                 (A) (A) (A) (A) (A) (A) (A) (A) (A) (A) (A) (A)
                 (A) (A) (A) (A) (A) (A) (A) (A) (A) (A) (A) (A)
                 (A) (A) (A) (A) (A) (A) (A) (A) (A) (A) (A) (A)
                 (A) (A) (A) (A) (A) (A) (A) (A) (A) (A) (A) (A)
                 (A) (A) (A) (A) (A) (A) (A) (A) (A) (A) (A) (A)
                 (A) (A) (A) (A) (A) (A) (A) (A) (A) (A) (A) (A)
                 (A) (A) (A) (A) (A) (A) (A) (A) (A) (A) (A) (A)
                 (A) (A) (A) (A) (A) (A) (A) (A) (A) (A) (A) (A)
                 (A) (A) (A) (A) (A) (A) (A) (A) (A) (A) (A) (A)
                 (A) (A) (A) (A) (A) (A) (A) (A) (A) (A) (A) (A)
                 (A) (A) (A) (A) (A) (A) (A) (A) (A) (A) (A) (A)
                 (A) (A) (A) (A) (A) (A) (A) (A) (A) (A) (A) (A)
                 (A) (A) (A) (A) (A) (A) (A) (A) (A) (A) (A) (A)
                 (A) (A) (A) (A) (A) (A) (A) (A) (A) (A) (A) (A)
                 (A) (A) (A) (A) (A) (A) (A) (A) (A) (A) (A) (A)
                 (A) (A) (A) (A) (A) (A) (A) (A) (A) (A) (A) (A)
                 (A) (A) (A) (A) (A) (A) (A) (A) (A) (A) (A) (A)
                 (A) (A) (A) (A) (A) (A) (A) (A) (A) (A) (A) (A)
                 (A) (A) (A) (A) (A) (A) (A) (A) (A) (A) (A) (A)
                 (A) (A) (A) (A) (A) (A) (A) (A) (A) (A) (A) (A)
                 (A) (A) (A) (A) (A) (A) (A) (A) (A) (A) (A) (A)
                 (A) (A) (A) (A) (A) (A) (A) (A) (A) (A) (A) (A)
                 (A) (A) (A) (A) (A) (A) (A) (A) (A) (A) (A) (A)
                 (A) (A) (A) (A) (A) (A) (A) (A) (A) (A) (A) (A)
                 (A) (A) (A) (A) (A) (A) (A) (A) (A) (A) (A) (A)
                 (A) (A) (A) (A) (A) (A) (A) (A) (A) (A) (A) (A)
                 (A) (A) (A) (A) (A) (A) (A) (A) (A) (A) (A) (A)
                 (A) (A) (A) (A) (A) (A) (A) (A) (A) (A) (A) (A)
                 (A) (A) (A) (A) (A) (A) (A) (A) (A) (A) (A) (A)
                 (A) (A) (A) (A) (A) (A) (A) (A) (A) (A) (A) (A)
                 (A) (A) (A) (A) (A) (A) (A) (A) (A) (A) (A) (A)
                 (A) (A) (A) (A) (A) (A) (A) (A) (A) (A) (A) (A)
                 (A) (A) (A) (A) (A) (A) (A) (A) (A) (A) (A) (A)
                 (A) (A) (A) (A) (A) (A) (A) (A) (A) (A) (A) (A)
                 (A) (A) (A) (A) (A) (A) (A) (A) (A) (A) (A) (A)
                 (A) (A) (A) (A) (A) (A) (A) (A) (A) (A) (A) (A)
                 (A) (A) (A) (A) (A) (A) (A) (A) (A) (A) (A) (A)
                 (A) (A) (A) (A) (A) (A) (A) (A) (A) (A) (A) (A)
                 (A) (A) (A) (A) (A) (A) (A) (A) (A) (A) (A) (A)
                 (A) (A) (A) (A) (A) (A) (A) (A) (A) (A) (A) (A)
                 (A) (A) (A) (A) (A) (A) (A) (A) (A) (A) (A) (A)
                 (A) (A) (A) (A) (A) (A) (A) (A) (A) (A) (A) (A)
                 (A) (A) (A) (A) (A) (A) (A) (A) (A) (A) (A) (A)
                 (A) (A) (A) (A) (A) (A) (A) (A) (A) (A) (A) (A)
                 (A) (A) (A) (A) (A) (A) (A) (A) (A) (A) (A) (A)
                 (A) (A) (A) (A) (A) (A) (A) (A) (A) (A) (A) (A)
                 (A) (A) (A) (A) (A) (A) (A) (A) (A) (A) (A) (A)
                 (A) (A) (A) (A) (A)
 The electronic state is 1-A.
 Alpha  occ. eigenvalues --  -88.97604 -88.96495 -88.96276 -88.96070 -19.22836
 Alpha  occ. eigenvalues --  -19.22186 -19.21254 -19.20366 -19.19277 -19.19027
 Alpha  occ. eigenvalues --  -19.18849 -19.18457 -19.18325 -19.18201 -19.16768
 Alpha  occ. eigenvalues --  -19.14440 -19.13831 -19.13694 -14.42632 -14.41307
 Alpha  occ. eigenvalues --  -14.39796 -14.39093 -10.35573 -10.35029 -10.33347
 Alpha  occ. eigenvalues --  -10.31725 -10.31051 -10.30622 -10.28576 -10.28536
 Alpha  occ. eigenvalues --  -10.27827 -10.26466 -10.26368 -10.26360 -10.26262
 Alpha  occ. eigenvalues --  -10.26174 -10.26040 -10.25843 -10.25722 -10.25385
 Alpha  occ. eigenvalues --  -10.24932 -10.24915 -10.24856 -10.24837 -10.24780
 Alpha  occ. eigenvalues --  -10.24717 -10.24565 -10.24475 -10.24469 -10.24295
 Alpha  occ. eigenvalues --  -10.24281 -10.24246 -10.24159 -10.24102 -10.24049
 Alpha  occ. eigenvalues --  -10.24000 -10.23994 -10.23987 -10.23903 -10.23900
 Alpha  occ. eigenvalues --  -10.23893 -10.23843 -10.23784 -10.23776 -10.23733
 Alpha  occ. eigenvalues --  -10.23593 -10.23558 -10.23469 -10.23433 -10.23424
 Alpha  occ. eigenvalues --  -10.23284 -10.23271 -10.23254 -10.23240 -10.23235
 Alpha  occ. eigenvalues --  -10.23175 -10.23107 -10.23085 -10.23075 -10.23064
 Alpha  occ. eigenvalues --  -10.23027 -10.22989 -10.22985 -10.22957 -10.22954
 Alpha  occ. eigenvalues --  -10.22933 -10.22893 -10.22886 -10.22876 -10.22866
 Alpha  occ. eigenvalues --  -10.22835 -10.22829 -10.22759 -10.22713 -10.22644
 Alpha  occ. eigenvalues --  -10.22620 -10.22577 -10.22512 -10.22509 -10.22447
 Alpha  occ. eigenvalues --  -10.22411 -10.22396 -10.22391 -10.22313 -10.22284
 Alpha  occ. eigenvalues --  -10.22225 -10.22215 -10.22127 -10.22117 -10.22076
 Alpha  occ. eigenvalues --  -10.22056 -10.22016 -10.21989 -10.21978 -10.21960
 Alpha  occ. eigenvalues --  -10.21759 -10.21665 -10.21662 -10.21610 -10.21589
 Alpha  occ. eigenvalues --  -10.21511 -10.21498 -10.21480 -10.21395 -10.21381
 Alpha  occ. eigenvalues --  -10.21375 -10.21324 -10.21302 -10.21140 -10.21071
 Alpha  occ. eigenvalues --  -10.21061 -10.20931 -10.20899 -10.20882 -10.20758
 Alpha  occ. eigenvalues --  -10.20750 -10.20722 -10.20641 -10.20498 -10.20199
 Alpha  occ. eigenvalues --  -10.20049 -10.19911 -10.19616 -10.19526  -7.99363
 Alpha  occ. eigenvalues --   -7.98405  -7.98159  -7.97898  -5.94422  -5.94034
 Alpha  occ. eigenvalues --   -5.93450  -5.93354  -5.93211  -5.93067  -5.92948
 Alpha  occ. eigenvalues --   -5.92831  -5.92558  -5.92382  -5.92129  -5.91893
 Alpha  occ. eigenvalues --   -1.12827  -1.08504  -1.08169  -1.07331  -1.07101
 Alpha  occ. eigenvalues --   -1.06864  -1.05512  -1.04286  -1.04221  -1.03620
 Alpha  occ. eigenvalues --   -1.03293  -1.02614  -1.01427  -0.99509  -0.97200
 Alpha  occ. eigenvalues --   -0.96096  -0.95952  -0.95820  -0.89789  -0.89046
 Alpha  occ. eigenvalues --   -0.88677  -0.88625  -0.87547  -0.86277  -0.85857
 Alpha  occ. eigenvalues --   -0.85699  -0.85644  -0.85359  -0.85160  -0.84953
 Alpha  occ. eigenvalues --   -0.84658  -0.84404  -0.84066  -0.83724  -0.82798
 Alpha  occ. eigenvalues --   -0.82722  -0.82701  -0.82410  -0.82370  -0.82033
 Alpha  occ. eigenvalues --   -0.81980  -0.81900  -0.81825  -0.81605  -0.80315
 Alpha  occ. eigenvalues --   -0.80193  -0.79928  -0.79851  -0.79734  -0.79385
 Alpha  occ. eigenvalues --   -0.79150  -0.79104  -0.78133  -0.77578  -0.77463
 Alpha  occ. eigenvalues --   -0.77449  -0.77380  -0.76854  -0.76815  -0.76756
 Alpha  occ. eigenvalues --   -0.76625  -0.76198  -0.75900  -0.75595  -0.75393
 Alpha  occ. eigenvalues --   -0.75285  -0.74530  -0.74472  -0.73540  -0.73362
 Alpha  occ. eigenvalues --   -0.73273  -0.72895  -0.72678  -0.72594  -0.72244
 Alpha  occ. eigenvalues --   -0.72087  -0.71925  -0.71747  -0.71554  -0.71426
 Alpha  occ. eigenvalues --   -0.71092  -0.70654  -0.70456  -0.70155  -0.69982
 Alpha  occ. eigenvalues --   -0.69658  -0.69627  -0.69455  -0.69357  -0.68672
 Alpha  occ. eigenvalues --   -0.68038  -0.67694  -0.66971  -0.66729  -0.66547
 Alpha  occ. eigenvalues --   -0.66179  -0.65976  -0.65745  -0.65660  -0.65534
 Alpha  occ. eigenvalues --   -0.65424  -0.65228  -0.64770  -0.64608  -0.64259
 Alpha  occ. eigenvalues --   -0.64228  -0.64094  -0.63943  -0.63579  -0.62939
 Alpha  occ. eigenvalues --   -0.62622  -0.62483  -0.62029  -0.61661  -0.61600
 Alpha  occ. eigenvalues --   -0.61285  -0.61224  -0.60666  -0.60593  -0.60494
 Alpha  occ. eigenvalues --   -0.60446  -0.60352  -0.60095  -0.59838  -0.59745
 Alpha  occ. eigenvalues --   -0.59437  -0.59409  -0.59222  -0.58816  -0.58391
 Alpha  occ. eigenvalues --   -0.58109  -0.57582  -0.57356  -0.57304  -0.56895
 Alpha  occ. eigenvalues --   -0.56817  -0.56570  -0.56362  -0.56161  -0.55695
 Alpha  occ. eigenvalues --   -0.55198  -0.54569  -0.54042  -0.53476  -0.53031
 Alpha  occ. eigenvalues --   -0.52936  -0.52439  -0.52291  -0.52167  -0.52148
 Alpha  occ. eigenvalues --   -0.51619  -0.51470  -0.51033  -0.50960  -0.50939
 Alpha  occ. eigenvalues --   -0.50879  -0.50701  -0.50662  -0.50407  -0.50342
 Alpha  occ. eigenvalues --   -0.50232  -0.49964  -0.49911  -0.49747  -0.49553
 Alpha  occ. eigenvalues --   -0.49419  -0.49411  -0.49403  -0.49325  -0.49009
 Alpha  occ. eigenvalues --   -0.48964  -0.48901  -0.48834  -0.48801  -0.48687
 Alpha  occ. eigenvalues --   -0.48493  -0.48426  -0.48323  -0.48236  -0.48070
 Alpha  occ. eigenvalues --   -0.48051  -0.47994  -0.47761  -0.47463  -0.47351
 Alpha  occ. eigenvalues --   -0.47082  -0.47043  -0.47005  -0.46900  -0.46794
 Alpha  occ. eigenvalues --   -0.46766  -0.46736  -0.46686  -0.46644  -0.46596
 Alpha  occ. eigenvalues --   -0.46573  -0.46436  -0.46368  -0.46186  -0.45785
 Alpha  occ. eigenvalues --   -0.45715  -0.45594  -0.45452  -0.45441  -0.45407
 Alpha  occ. eigenvalues --   -0.45391  -0.45294  -0.45273  -0.45104  -0.45081
 Alpha  occ. eigenvalues --   -0.45013  -0.44866  -0.44846  -0.44797  -0.44777
 Alpha  occ. eigenvalues --   -0.44742  -0.44691  -0.44655  -0.44578  -0.44446
 Alpha  occ. eigenvalues --   -0.44414  -0.44323  -0.44279  -0.44163  -0.44115
 Alpha  occ. eigenvalues --   -0.44087  -0.44021  -0.43938  -0.43851  -0.43751
 Alpha  occ. eigenvalues --   -0.43677  -0.43599  -0.43539  -0.43502  -0.43474
 Alpha  occ. eigenvalues --   -0.43444  -0.43403  -0.43346  -0.43301  -0.43253
 Alpha  occ. eigenvalues --   -0.43222  -0.43105  -0.42974  -0.42940  -0.42795
 Alpha  occ. eigenvalues --   -0.42738  -0.42663  -0.42582  -0.42398  -0.42386
 Alpha  occ. eigenvalues --   -0.42319  -0.42242  -0.42153  -0.42061  -0.41960
 Alpha  occ. eigenvalues --   -0.41760  -0.41674  -0.41630  -0.41542  -0.41398
 Alpha  occ. eigenvalues --   -0.41312  -0.41249  -0.41239  -0.41155  -0.41071
 Alpha  occ. eigenvalues --   -0.40978  -0.40796  -0.40759  -0.40718  -0.40692
 Alpha  occ. eigenvalues --   -0.40573  -0.40434  -0.40430  -0.40408  -0.40265
 Alpha  occ. eigenvalues --   -0.40259  -0.39911  -0.39845  -0.39652  -0.39585
 Alpha  occ. eigenvalues --   -0.39437  -0.39386  -0.39359  -0.39289  -0.39271
 Alpha  occ. eigenvalues --   -0.39187  -0.39161  -0.39131  -0.39030  -0.38985
 Alpha  occ. eigenvalues --   -0.38979  -0.38848  -0.38837  -0.38688  -0.38643
 Alpha  occ. eigenvalues --   -0.38630  -0.38514  -0.38437  -0.38365  -0.38287
 Alpha  occ. eigenvalues --   -0.38266  -0.38192  -0.38189  -0.38152  -0.38014
 Alpha  occ. eigenvalues --   -0.37986  -0.37973  -0.37943  -0.37702  -0.37649
 Alpha  occ. eigenvalues --   -0.37576  -0.37543  -0.37481  -0.37360  -0.37313
 Alpha  occ. eigenvalues --   -0.37180  -0.37078  -0.37065  -0.36954  -0.36915
 Alpha  occ. eigenvalues --   -0.36883  -0.36851  -0.36796  -0.36730  -0.36677
 Alpha  occ. eigenvalues --   -0.36591  -0.36551  -0.36531  -0.36445  -0.36430
 Alpha  occ. eigenvalues --   -0.36376  -0.36299  -0.36164  -0.35950  -0.35921
 Alpha  occ. eigenvalues --   -0.35765  -0.35610  -0.35425  -0.35335  -0.35240
 Alpha  occ. eigenvalues --   -0.35186  -0.35081  -0.35048  -0.35010  -0.34943
 Alpha  occ. eigenvalues --   -0.34872  -0.34795  -0.34752  -0.34723  -0.34685
 Alpha  occ. eigenvalues --   -0.34669  -0.34565  -0.34517  -0.34420  -0.34405
 Alpha  occ. eigenvalues --   -0.34365  -0.34341  -0.34224  -0.34204  -0.34143
 Alpha  occ. eigenvalues --   -0.34120  -0.34049  -0.33957  -0.33896  -0.33852
 Alpha  occ. eigenvalues --   -0.33821  -0.33778  -0.33714  -0.33644  -0.33585
 Alpha  occ. eigenvalues --   -0.33508  -0.33352  -0.33287  -0.33125  -0.32996
 Alpha  occ. eigenvalues --   -0.32855  -0.32834  -0.32733  -0.32624  -0.32575
 Alpha  occ. eigenvalues --   -0.32558  -0.32524  -0.32473  -0.32379  -0.32204
 Alpha  occ. eigenvalues --   -0.32133  -0.32067  -0.32008  -0.31860  -0.31742
 Alpha  occ. eigenvalues --   -0.31413  -0.31329  -0.31031  -0.30733  -0.30696
 Alpha  occ. eigenvalues --   -0.30147  -0.30027  -0.28778  -0.28479  -0.28174
 Alpha  occ. eigenvalues --   -0.27897  -0.27718  -0.27299  -0.26926  -0.26826
 Alpha  occ. eigenvalues --   -0.26275  -0.25937  -0.25756  -0.25731  -0.25590
 Alpha  occ. eigenvalues --   -0.25536  -0.25354  -0.24766  -0.24381  -0.24059
 Alpha  occ. eigenvalues --   -0.23883  -0.23626  -0.23179  -0.22840  -0.22696
 Alpha  occ. eigenvalues --   -0.22646  -0.22630  -0.21547  -0.21529  -0.19215
 Alpha virt. eigenvalues --    0.08790   0.13112   0.13428   0.13639   0.13736
 Alpha virt. eigenvalues --    0.13833   0.14631   0.14917   0.15606   0.15876
 Alpha virt. eigenvalues --    0.16096   0.16578   0.16985   0.17079   0.17141
 Alpha virt. eigenvalues --    0.17242   0.17757   0.18074   0.18249   0.18592
 Alpha virt. eigenvalues --    0.19091   0.19163   0.19321   0.19556   0.19784
 Alpha virt. eigenvalues --    0.19917   0.20127   0.20374   0.20444   0.20529
 Alpha virt. eigenvalues --    0.20690   0.21038   0.21111   0.21313   0.21478
 Alpha virt. eigenvalues --    0.21646   0.21739   0.21984   0.22034   0.22149
 Alpha virt. eigenvalues --    0.22260   0.22404   0.22484   0.22626   0.22766
 Alpha virt. eigenvalues --    0.22856   0.23012   0.23051   0.23282   0.23389
[...]
  258 Atom       -0.289643      0.136735      0.152908
  259 Atom       -0.293521      0.140902      0.152619
  260 Atom       -0.293426      0.144016      0.149411
  261 Atom       -0.294068      0.144250      0.149818
  262 Atom       -0.036856      0.002855      0.034002
  263 Atom       -0.289165      0.141084      0.148081
  264 Atom       -0.036279     -0.006669      0.042948
  265 Atom       -0.283253      0.138646      0.144607
  266 Atom       -0.285992      0.138992      0.147001
  267 Atom       -0.212731      0.076051      0.136681
  268 Atom       -0.287952      0.138839      0.149114
  269 Atom       -0.285282      0.135657      0.149625
  270 Atom       -2.271444     -0.496602      2.768045
  271 Atom       -0.239749      0.108350      0.131399
  272 Atom       -0.295218      0.142060      0.153158
  273 Atom       -0.285252      0.135438      0.149814
  274 Atom       -0.284981      0.137145      0.147837
  275 Atom       -0.288658      0.143079      0.145580
  276 Atom       -0.293205      0.143811      0.149394
  277 Atom       -0.026525      0.001932      0.024593
  278 Atom       -0.293970      0.146065      0.147905
  279 Atom       -0.060685      0.021303      0.039382
  280 Atom       -0.285587      0.142016      0.143571
  281 Atom       -0.291718      0.141651      0.150067
  282 Atom       -0.296519      0.145146      0.151373
  283 Atom       -0.291547      0.142794      0.148754
  284 Atom       -0.292393      0.143213      0.149180
  285 Atom       -0.033513      0.011639      0.021874
  286 Atom       -0.292395      0.143616      0.148779
  287 Atom       -0.042209     -0.004663      0.046872
  288 Atom       -0.283610      0.140028      0.143581
  289 Atom       -0.285361      0.139656      0.145705
  290 Atom       -0.080721      0.012428      0.068292
  291 Atom       -0.123618     -0.096367      0.219985
  292 Atom       -0.308577      0.141894      0.166683
  293 Atom       -0.413835     -0.163938      0.577773
  294 Atom       -0.299495      0.123539      0.175956
  295 Atom       -0.146004     -0.085414      0.231418
  296 Atom       -0.208019      0.073668      0.134350
  297 Atom       -0.301000      0.141431      0.159569
  298 Atom       -0.222640      0.090539      0.132101
  299 Atom       -0.305058      0.142128      0.162929
  300 Atom       -0.197057      0.072251      0.124806
  301 Atom       -0.305086      0.141789      0.163297
  302 Atom       -0.228719      0.081798      0.146922
  303 Atom       -0.301818      0.142658      0.159160
  304 Atom       -0.190576      0.078941      0.111636
  305 Atom       -0.291343      0.141991      0.149353
  306 Atom       -0.293480      0.144425      0.149055
  307 Atom       -0.025643      0.009325      0.016317
  308 Atom       -0.292266      0.143753      0.148513
  309 Atom       -0.033812     -0.003570      0.037382
  310 Atom       -0.280456      0.137405      0.143051
  311 Atom       -0.283829      0.137879      0.145950
  312 Atom       -0.017115     -0.006858      0.023973
  313 Atom       -0.278089      0.138442      0.139647
  314 Atom       -0.024656      0.007466      0.017190
  315 Atom       -0.285820      0.139840      0.145979
  316 Atom       -0.290465      0.141878      0.148587
  317 Atom       -0.293349      0.143805      0.149544
  318 Atom       -0.024241      0.005430      0.018811
  319 Atom       -0.291823      0.142885      0.148938
  320 Atom       -0.290725      0.142378      0.148347
  321 Atom       -0.287022      0.140663      0.146359
  322 Atom       -0.291110      0.142820      0.148290
  323 Atom       -0.561255      0.188560      0.372696
  324 Atom       -0.840134     -0.793050      1.633184
  325 Atom       -0.153426      0.026954      0.126471
  326 Atom       -0.515507      0.212525      0.302982
  327 Atom       -0.063907      0.003206      0.060701
  328 Atom       -0.036903     -0.010602      0.047505
  329 Atom       -0.042517     -0.001486      0.044003
  330 Atom       -0.095440      0.006579      0.088861
  331 Atom       -0.036451     -0.014110      0.050561
  332 Atom       -0.020883      0.007435      0.013447
  333 Atom       -0.033539      0.014481      0.019058
  334 Atom       -0.025981      0.008657      0.017324
  335 Atom       -0.034359      0.010062      0.024296
  336 Atom       -0.033783     -0.002910      0.036693
  337 Atom       -0.023383     -0.000843      0.024226
  338 Atom       -0.064813      0.008334      0.056479
  339 Atom       -0.040489     -0.003525      0.044014
  340 Atom       -0.321558      0.137879      0.183680
  341 Atom       -0.035650      0.002563      0.033087
  342 Atom       -1.619907     -0.106332      1.726239
  343 Atom       -0.287779      0.133597      0.154182
  344 Atom       -0.249921      0.124071      0.125850
  345 Atom       -0.279413      0.135938      0.143476
  346 Atom       -0.289708      0.141514      0.148194
  347 Atom       -0.280986      0.136506      0.144479
  348 Atom       -0.288880      0.140748      0.148132
  349 Atom       -0.286428      0.136311      0.150117
  350 Atom       -0.259975      0.129421      0.130554
  351 Atom       -0.281927      0.139113      0.142815
  352 Atom       -0.284165      0.140213      0.143952
  353 Atom       -0.274270      0.134638      0.139632
  354 Atom       -0.270594      0.134663      0.135931
  355 Atom       -0.267882      0.131639      0.136243
  356 Atom       -0.276772      0.135607      0.141166
  357 Atom       -0.278919      0.134870      0.144048
  358 Atom       -0.289133      0.140404      0.148729
  359 Atom       -0.286690      0.141045      0.145646
  360 Atom       -0.288596      0.142525      0.146071
  361 Atom       -0.287399      0.141728      0.145672
  362 Atom       -0.293077      0.145226      0.147851
  363 Atom       -0.291088      0.143919      0.147169
  364 Atom       -0.264014      0.124816      0.139198
  365 Atom       -0.294556      0.142087      0.152469
  366 Atom       -0.281568      0.136233      0.145334
  367 Atom       -0.293630      0.146538      0.147092
  368 Atom       -0.434730      0.189196      0.245533
  369 Atom       -1.313297     -0.251032      1.564329
  370 Atom       -0.400689      0.174206      0.226484
  371 Atom       -0.384216      0.165108      0.219108
  372 Atom       -1.391621     -0.139342      1.530963
  373 Atom       -0.455215      0.200528      0.254687
  374 Atom       -0.355791      0.149323      0.206468
  375 Atom       -1.344184     -0.069682      1.413866
  376 Atom       -0.465412      0.209925      0.255488
  377 Atom       -0.261404      0.108443      0.152961
 -----------------------------------------------------
 Unable to Open any file for archive entry.
 1\1\GINC-EXP-2-07\SP\RwB97XD\6-31G(d)\C122H233N4O14S4(1-)\HKLEM\16-Jul
 -2024\0\\# 6-31G(d) wb97xd prop=efg\\19nt_xstal_distance_cutoff5\\-1,1
 \H,0,-9.254685,4.581829,-3.042389\C,-1,-8.486423,4.416303,-2.274553\H,
 0,-8.607607,5.193934,-1.516245\C,0,-8.702793,3.032504,-1.633663\H,0,-9
 .691339,3.037147,-1.159734\H,0,-8.751497,2.264605,-2.41706\C,0,-7.6461
 33,2.634485,-0.629868\C,0,-7.769208,2.84669,0.74315\H,0,-8.658498,3.33
 7271,1.133801\C,0,-6.78384,2.424369,1.639496\H,0,-6.907423,2.592487,2.
 706624\C,0,-5.644982,1.770035,1.16336\O,0,-4.657056,1.280977,1.946317\
 H,0,-4.757067,1.492885,2.894781\C,0,-5.501175,1.574852,-0.21219\H,0,-4
 .624716,1.050085,-0.567735\C,0,-6.485198,2.0027,-1.080257\H,0,-6.35533
 1,1.831055,-2.14317\C,0,-7.119213,4.676054,-2.895132\O,0,-6.431091,5.6
 28811,-2.556445\N,0,-6.723611,3.815561,-3.874004\H,0,-7.35629,3.09583,
 -4.189966\C,-1,-5.500698,4.048709,-4.616938\H,0,-4.767191,4.44649,-3.9
 12145\C,0,-4.950877,2.795385,-5.308999\H,0,-5.724656,2.422251,-5.99834
 3\C,0,-3.738202,3.194858,-6.156404\H,0,-2.958436,3.655898,-5.539663\H,
 0,-3.302377,2.315006,-6.642519\H,0,-4.013527,3.914565,-6.935675\C,0,-4
 .613174,1.641824,-4.347569\H,0,-5.540897,1.271965,-3.894781\H,0,-4.228
 911,0.800112,-4.937154\C,0,-3.611992,1.975315,-3.242837\H,0,-3.989163,
 2.759167,-2.576576\H,0,-3.413004,1.086036,-2.636789\H,0,-2.652122,2.30
 8494,-3.654548\H,0,-5.663998,4.834723,-5.369121\H,0,-3.838694,7.479597
 ,-1.691508\C,-1,-2.828666,7.05812,-1.654259\H,0,-2.34767,7.40277,-0.72
 9147\C,0,-2.882022,5.529917,-1.693515\H,0,-3.393101,5.242704,-2.621533
 \C,0,-1.474849,4.93113,-1.72556\H,0,-0.929463,5.17,-0.802473\H,0,-1.51
 1136,3.840343,-1.821488\H,0,-0.890282,5.323855,-2.566795\C,0,-3.703966
 ,4.984038,-0.524709\H,0,-4.723355,5.380937,-0.549748\H,0,-3.781947,3.8
 92249,-0.55793\H,0,-3.243464,5.254107,0.435268\H,0,-2.257297,7.4601,-2
 .499724\H,0,-0.12037,-4.993403,7.005058\C,-1,0.404724,-4.557264,6.1447
 19\H,0,0.223725,-5.211955,5.291924\C,0,-0.158807,-3.166693,5.854826\H,
 0,-1.23898,-3.2212,5.670017\H,0,-0.007915,-2.520898,6.726408\C,0,0.513
 155,-2.487282,4.653483\O,0,1.448363,-3.086385,4.092181\O,0,0.066003,-1
 .34409,4.316811\C,0,1.879536,-4.466227,6.507239\O,0,2.306583,-3.558225
 ,7.212382\N,0,2.694107,-5.456911,6.062745\C,0,4.13531,-5.363288,6.2788
 39\H,0,4.353397,-5.19991,7.337399\H,0,4.539607,-4.50972,5.719275\C,0,4
 .664979,-6.692081,5.737275\H,0,4.628544,-7.460031,6.519802\H,0,5.69638
 5,-6.613662,5.383749\C,0,3.675507,-7.027613,4.616301\H,0,3.664997,-8.0
 8753,4.347153\H,0,3.921016,-6.45122,3.717723\C,-1,2.327139,-6.551627,5
 .172943\H,0,1.679684,-6.206922,4.36205\H,0,1.806751,-7.349697,5.720931
 \H,0,-0.883136,5.643613,7.640201\C,-1,-0.384943,6.089487,6.772673\H,0,
 0.329277,5.359651,6.37701\C,0,-1.407554,6.464436,5.691262\H,0,-2.08447
 3,7.240503,6.069624\H,0,-0.877338,6.891701,4.83277\C,0,-2.195585,5.251
 394,5.261642\C,0,-3.440329,4.961616,5.820035\H,0,-3.905271,5.679684,6.
 492635\C,0,-4.079129,3.748965,5.572731\H,0,-5.026689,3.503812,6.042518
 \C,0,-3.466706,2.809799,4.751714\O,0,-4.060576,1.580564,4.58607\H,0,-3
 .330374,0.917524,4.628137\C,0,-2.26054,3.114808,4.121721\H,0,-1.798122
 ,2.384504,3.465107\C,0,-1.627247,4.320935,4.386723\H,0,-0.651449,4.516
 024,3.947012\H,0,0.173892,6.969941,7.113381\H,0,4.176777,6.167281,6.01
 8136\C,-1,4.212071,5.578832,5.095897\H,0,5.139383,5.004017,5.069146\H,
 0,3.365023,4.881901,5.091561\C,0,4.129043,6.438584,3.856886\O,0,4.6096
 76,6.08662,2.780678\N,0,3.463932,7.613371,4.01861\H,0,3.006983,7.76456
 3,4.905802\C,-1,3.120662,8.509527,2.930196\H,0,3.680453,8.163422,2.058
 543\C,0,1.614497,8.548304,2.639459\H,0,1.099505,9.012443,3.493937\H,0,
 1.458035,9.224485,1.786495\C,0,0.94865,7.195121,2.342852\H,0,1.050677,
 6.556731,3.231509\C,0,-0.54504,7.396559,2.068518\H,0,-0.694447,7.93882
 9,1.125759\H,0,-1.06225,6.434206,1.988092\H,0,-1.034289,7.971882,2.863
 057\C,0,1.600919,6.464771,1.167293\H,0,2.640791,6.195467,1.376021\H,0,
 1.055306,5.540899,0.945398\H,0,1.581518,7.088024,0.263025\H,0,3.475585
 ,9.519281,3.1696\H,0,5.80968,8.817974,-2.585457\C,-1,5.16989,7.983922,
 -2.89677\H,0,5.811383,7.208131,-3.334989\C,0,4.380209,7.414315,-1.7101
 37\H,0,3.74375,8.217909,-1.310601\C,0,3.471325,6.26459,-2.155015\H,0,4
 .066053,5.454754,-2.59522\H,0,2.918833,5.845418,-1.306655\H,0,2.742822
 ,6.595925,-2.90461\C,0,5.316447,6.956216,-0.589174\H,0,6.028166,7.7435
 61,-0.312589\H,0,4.767012,6.672536,0.314582\H,0,5.894449,6.080697,-0.9
 09502\H,0,4.498536,8.34449,-3.684805\H,0,1.477192,4.824917,-5.882219\C
 ,-1,0.622797,4.484979,-6.476997\H,0,0.953814,4.396983,-7.517339\C,0,0.
 08494,3.153453,-5.952508\H,0,-0.247433,3.240867,-4.911984\H,0,-0.76935
 3,2.807098,-6.543841\H,0,0.85335,2.37352,-5.988698\H,0,-0.145439,5.264
 335,-6.434752\H,0,-7.343799,-5.917143,-5.668135\C,-1,-6.627218,-5.3816
 4,-6.301179\H,0,-6.859079,-5.615284,-7.345403\C,0,-6.691499,-3.873009,
 -6.049409\H,0,-5.992857,-3.354912,-6.71813\H,0,-7.694039,-3.502301,-6.
 295861\C,0,-6.362476,-3.503266,-4.603166\H,0,-7.034164,-4.027861,-3.91
 2493\H,0,-5.334527,-3.801016,-4.362498\S,0,-6.532456,-1.707931,-4.3462
 77\C,0,-6.006997,-1.600951,-2.613853\H,0,-4.94181,-1.819845,-2.510736\
 H,0,-6.181132,-0.578323,-2.270612\H,0,-6.601589,-2.271038,-1.986009\H,
 0,-5.628312,-5.775852,-6.08152\H,0,-1.51249,-3.203792,-7.511323\C,-1,-
 1.141899,-2.196737,-7.730067\H,0,-1.131735,-2.064318,-8.81779\C,0,-2.0
 14819,-1.135566,-7.046403\H,0,-1.641867,-0.135391,-7.298713\H,0,-3.039
 42,-1.198677,-7.434328\C,0,-2.02313,-1.315539,-5.547518\C,0,-1.258814,
 -0.498027,-4.713235\H,0,-0.693578,0.32665,-5.143135\C,0,-1.205499,-0.7
 32755,-3.340745\H,0,-0.601534,-0.094427,-2.700348\C,0,-1.914697,-1.792
 312,-2.787761\H,0,-1.879398,-1.997664,-1.72653\C,0,-2.68391,-2.61032,-
 3.610304\H,0,-3.217199,-3.449362,-3.17102\C,0,-2.743629,-2.368933,-4.9
 76699\H,0,-3.347459,-3.009418,-5.61736\H,0,-0.110955,-2.137344,-7.3649
 79\H,0,4.678155,1.247456,-5.772201\C,-1,3.834498,1.847311,-5.404409\H,
 0,3.231288,2.136092,-6.2733\C,0,3.011188,1.044903,-4.390661\H,0,2.1629
 36,1.668246,-4.073541\C,0,2.449588,-0.230402,-5.024381\H,0,3.264576,-0
 .903232,-5.323668\H,0,1.803717,-0.77423,-4.326188\H,0,1.856319,-0.0063
 49,-5.919646\C,0,3.84237,0.716148,-3.148796\H,0,4.164162,1.624234,-2.6
 25319\H,0,3.276583,0.097795,-2.442055\H,0,4.742836,0.152123,-3.425462\
 H,0,4.237146,2.762783,-4.954705\H,0,8.432393,5.103853,-4.358676\C,-1,9
 .193939,5.354732,-3.612631\H,0,9.678706,6.285532,-3.925047\C,0,8.56657
 5,5.499667,-2.229443\H,0,9.334787,5.788055,-1.499624\H,0,7.832053,6.31
 3612,-2.242686\C,0,7.895807,4.227068,-1.712363\H,0,8.618087,3.404536,-
 1.658283\H,0,7.52447,4.373554,-0.6935\S,0,6.492941,3.650577,-2.742509\
 C,0,7.244272,2.209678,-3.549214\H,0,7.507828,1.44508,-2.812179\H,0,6.4
 98325,1.79322,-4.229761\H,0,8.130359,2.491763,-4.124675\H,0,9.952407,4
 .561942,-3.620211\H,0,7.880772,-2.064859,-5.297645\C,-1,6.90716,-2.437
 33,-4.960354\H,0,6.843699,-3.493859,-5.241668\C,0,6.731011,-2.235,-3.4
 56325\H,0,7.526729,-2.769162,-2.916717\H,0,6.870501,-1.169923,-3.22260
 1\C,0,5.371501,-2.680439,-2.898806\H,0,4.586973,-2.167004,-3.475415\C,
 0,5.141172,-4.185362,-3.03954\H,0,5.862488,-4.738307,-2.424968\H,0,4.1
 38732,-4.447177,-2.686754\H,0,5.231713,-4.531904,-4.075005\C,0,5.23665
 ,-2.266592,-1.433344\H,0,5.260112,-1.175984,-1.322842\H,0,4.299554,-2.
 632873,-1.003403\H,0,6.04991,-2.68904,-0.830858\H,0,6.13008,-1.900149,
 -5.518575\H,0,1.902004,-4.673893,-4.577433\C,-1,1.26029,-5.206326,-3.8
 64767\H,0,1.903649,-5.867703,-3.270211\C,0,0.499841,-4.228586,-2.96715
 \H,0,-0.122071,-3.600014,-3.615738\C,0,-0.425944,-4.980493,-2.008798\H
 ,0,0.158311,-5.621041,-1.333669\H,0,-1.022172,-4.300562,-1.393014\H,0,
 -1.122881,-5.625734,-2.558584\C,0,1.445509,-3.305003,-2.19396\H,0,2.13
 5509,-2.780796,-2.867822\H,0,0.878627,-2.547186,-1.639074\H,0,2.046291
 ,-3.869519,-1.467944\H,0,0.568308,-5.836095,-4.436394\H,0,-4.869868,-4
 .950491,-2.112149\C,-1,-4.673341,-5.460513,-1.162022\H,0,-3.614681,-5.
 731406,-1.13668\C,0,-5.016043,-4.55904,0.015983\H,0,-6.052031,-4.20976
 ,-0.028577\H,0,-4.878162,-5.092523,0.963676\C,0,-4.085191,-3.373122,0.
 037958\O,0,-2.893302,-3.469652,-0.187005\O,0,-4.693264,-2.223641,0.284
 147\H,0,-4.02614,-1.493093,0.14203\H,0,-5.272218,-6.376595,-1.144116\H
 ,0,-9.520087,-6.047719,1.536216\C,-1,-10.440959,-5.454513,1.581085\H,0
 ,-10.562537,-5.108727,2.614236\C,0,-10.383467,-4.276188,0.612341\H,0,-
 10.287928,-4.643642,-0.416695\H,0,-11.321505,-3.710199,0.658519\C,0,-9
 .218929,-3.341551,0.925918\H,0,-9.303798,-2.966351,1.95371\H,0,-8.2685
 85,-3.88413,0.851148\S,0,-9.206075,-1.927107,-0.216845\C,0,-7.889273,-
 0.939218,0.540549\H,0,-6.918351,-1.43481,0.464475\H,0,-7.84214,0.00668
 2,-0.001356\H,0,-8.120478,-0.723135,1.588245\H,0,-11.279288,-6.119484,
 1.348408\H,0,-8.09088,-4.360154,5.669683\C,-1,-7.408376,-4.394239,4.81
 3916\H,0,-7.891048,-4.978306,4.020077\C,0,-7.067685,-2.989602,4.317442
 \H,0,-7.990056,-2.476266,4.010761\H,0,-6.634233,-2.395971,5.131272\C,0
 ,-6.110665,-2.995536,3.126196\H,0,-6.489729,-3.671002,2.351487\H,0,-6.
 036702,-2.006631,2.665872\S,0,-4.408588,-3.53914,3.510797\C,0,-3.59108
 6,-1.925904,3.665173\H,0,-3.925003,-1.395999,4.559855\H,0,-2.51405,-2.
 096368,3.743782\H,0,-3.781268,-1.313402,2.778767\H,0,-6.502145,-4.9260
 56,5.122886\H,0,-2.104941,-6.253708,2.984675\C,-1,-1.656128,-5.965455,
 2.027787\H,0,-2.449755,-5.95019,1.273468\C,0,-0.991621,-4.594499,2.118
 5\H,0,-0.176511,-4.575329,2.849381\H,0,-0.590481,-4.288089,1.146713\H,
 0,-1.718964,-3.830426,2.404424\H,0,-0.9369,-6.743805,1.744106\H,0,3.24
 4596,-8.521006,0.442363\C,-1,3.823535,-8.112309,-0.392827\H,0,3.755617
 ,-8.809865,-1.235542\C,0,3.305407,-6.723834,-0.778114\H,0,3.871388,-6.
 3629,-1.646423\H,0,2.261652,-6.804005,-1.105567\C,0,3.393851,-5.728874
 ,0.338477\C,0,2.351716,-5.236249,1.080597\H,0,1.29515,-5.444697,0.9861
 77\N,0,2.802581,-4.370346,2.04325\H,0,2.230412,-3.853142,2.719223\C,0,
 4.164498,-4.278949,1.93924\C,0,5.066991,-3.508176,2.680215\H,0,4.71354
 ,-2.858746,3.47605\C,0,6.408219,-3.601351,2.34902\H,0,7.13474,-3.00915
 ,2.898191\C,0,6.847736,-4.446362,1.309245\H,0,7.908102,-4.493784,1.076
 228\C,0,5.95059,-5.206644,0.578074\H,0,6.301313,-5.84905,-0.227116\C,0
 ,4.581729,-5.126231,0.881206\H,0,4.870896,-8.063132,-0.074879\H,0,10.7
 13017,-4.515682,-5.447262\C,-1,10.672115,-4.939674,-4.438433\H,0,10.86
 6768,-4.125783,-3.731829\C,0,9.316906,-5.603215,-4.179978\H,0,8.515134
 ,-4.858131,-4.279092\H,0,9.137685,-6.35177,-4.963561\C,0,9.184383,-6.2
 88454,-2.810018\H,0,10.062901,-6.937961,-2.675661\C,0,9.157549,-5.2831
 03,-1.654907\H,0,8.270806,-4.639739,-1.719164\H,0,9.11588,-5.801797,-0
 .690144\H,0,10.042307,-4.63774,-1.64665\C,0,7.933959,-7.171973,-2.7700
 1\H,0,7.975139,-7.957316,-3.533544\H,0,7.819731,-7.655741,-1.793054\H,
 0,7.032023,-6.575902,-2.953849\H,0,11.487897,-5.666402,-4.344742\C,0,-
 2.018858,0.145985,0.069079\O,0,-3.116659,-0.261189,-0.325308\C,0,-0.94
 9324,-0.76388,0.419632\C,0,0.283829,-0.334522,0.76782\C,0,0.629655,1.1
 38416,0.834128\C,0,-0.333589,2.000519,0.013451\C,0,-1.790149,1.621266,
 0.213931\C,0,1.318965,-1.325645,1.209856\C,0,2.742189,-0.954348,0.7998
 61\C,0,3.056411,0.485101,1.199289\C,0,2.094066,1.425903,0.443377\C,0,4
 .494091,0.902724,0.923169\C,0,4.765228,2.362691,1.331345\C,0,3.889716,
 3.280896,0.479088\C,0,2.406906,2.923377,0.616705\C,0,5.648774,0.119192
 ,1.566858\C,0,6.843955,1.113222,1.532966\C,0,6.266913,2.451743,1.02033
 5\C,0,4.532895,2.619396,2.829532\O,0,6.948021,3.559301,1.590303\H,0,-1
 .194288,-1.823373,0.410338\H,0,0.523347,1.406532,1.900112\H,0,-0.07578
 5,1.901868,-1.051903\H,0,-0.204961,3.055037,0.269158\H,0,-2.136016,1.8
 86124,1.22271\H,0,-2.449702,2.147514,-0.480461\H,0,1.05432,-2.325736,0
 .850415\H,0,1.258092,-1.378964,2.30699\H,0,2.862025,-1.06183,-0.286831
 \H,0,3.445424,-1.652744,1.264737\H,0,2.862889,0.574277,2.278812\H,0,2.
 210548,1.190484,-0.627929\H,0,4.636599,0.855322,-0.170538\H,0,4.191858
 ,3.180034,-0.572632\H,0,4.0369,4.334822,0.750552\H,0,2.021899,3.244954
 ,1.592648\H,0,1.846167,3.501987,-0.125269\H,0,5.860361,-0.816691,1.042
 846\H,0,5.393956,-0.154102,2.597817\H,0,7.654865,0.759878,0.888449\H,0
 ,7.271403,1.272002,2.527902\H,0,6.370391,2.490519,-0.075508\H,0,5.2116
 03,2.036346,3.458918\H,0,4.699011,3.676941,3.053801\H,0,3.515847,2.368
 675,3.140637\H,0,6.3271,4.299538,1.645956\O,0,0.632546,1.411009,4.2187
 37\H,0,-0.237875,1.389602,4.652056\H,0,0.830377,0.458467,4.130287\O,0,
 1.576858,4.055939,4.032185\H,0,2.209644,4.09092,3.305242\H,0,1.345326,
 3.106375,4.119867\O,0,-1.796948,0.219321,5.23005\H,0,-1.779347,0.17030
 3,6.192129\H,0,-1.179218,-0.50938,4.913158\\Version=ES64L-G16RevC.01\S
 tate=1-A\HF=-7652.9165716\RMSD=3.613e-09\Dipole=-0.4245175,0.3312071,-
 2.2228382\Quadrupole=-23.7382067,9.2738463,14.4643603,18.4650545,-18.6
 985753,24.6212969\PG=C01 [X(C122H233N4O14S4)]\\@
 The archive entry for this job was punched.


 OF ALL THE WONDERS OF THE UNIVERSE, THE GREATEST IS MAN.

                                    -- ARISTOTLE
 Job cpu time:       0 days  6 hours 42 minutes 16.6 seconds.
 Elapsed time:       0 days  0 hours 13 minutes  5.0 seconds.
 File lengths (MBytes):  RWF=   3745 Int=      0 D2E=      0 Chk=    402 Scr=      1
 Normal termination of Gaussian 16 at Tue Jul 16 07:30:35 2024.
