 Entering Gaussian System, Link 0=g16
 Initial command:
 /cm/shared/apps/spack/cpu/opt/spack/linux-centos8-zen/gcc-8.3.1/gaussian-16.C.01-po5bqktfeugvmjyga3v7eigbecnokxng/g16/l1.exe "/scratch/hklem/job_32994910/Gau-1760068.inp" -scrdir="/scratch/hklem/job_32994910/"
 Entering Link 1 = /cm/shared/apps/spack/cpu/opt/spack/linux-centos8-zen/gcc-8.3.1/gaussian-16.C.01-po5bqktfeugvmjyga3v7eigbecnokxng/g16/l1.exe PID=   1760071.
  
 Copyright (c) 1988-2019, Gaussian, Inc.  All Rights Reserved.
  
 This is part of the Gaussian(R) 16 program.  It is based on
 the Gaussian(R) 09 system (copyright 2009, Gaussian, Inc.),
 the Gaussian(R) 03 system (copyright 2003, Gaussian, Inc.),
 the Gaussian(R) 98 system (copyright 1998, Gaussian, Inc.),
 the Gaussian(R) 94 system (copyright 1995, Gaussian, Inc.),
 the Gaussian 92(TM) system (copyright 1992, Gaussian, Inc.),
 the Gaussian 90(TM) system (copyright 1990, Gaussian, Inc.),
 the Gaussian 88(TM) system (copyright 1988, Gaussian, Inc.),
 the Gaussian 86(TM) system (copyright 1986, Carnegie Mellon
 University), and the Gaussian 82(TM) system (copyright 1983,
 Carnegie Mellon University). Gaussian is a federally registered
 trademark of Gaussian, Inc.
  
 This software contains proprietary and confidential information,
 including trade secrets, belonging to Gaussian, Inc.
  
 This software is provided under written license and may be
 used, copied, transmitted, or stored only in accord with that
 written license.
  
 The following legend is applicable only to US Government
 contracts under FAR:
  
                    RESTRICTED RIGHTS LEGEND
  
 Use, reproduction and disclosure by the US Government is
 subject to restrictions as set forth in subparagraphs (a)
 and (c) of the Commercial Computer Software - Restricted
 Rights clause in FAR 52.227-19.
  
 Gaussian, Inc.
 340 Quinnipiac St., Bldg. 40, Wallingford CT 06492
  
  
 ---------------------------------------------------------------
 Warning -- This program may not be used in any manner that
 competes with the business of Gaussian, Inc. or will provide
 assistance to any competitor of Gaussian, Inc.  The licensee
 of this program is prohibited from giving any competitor of
 Gaussian, Inc. access to this program.  By using this program,
 the user acknowledges that Gaussian, Inc. is engaged in the
 business of creating and licensing software in the field of
 computational chemistry and represents and warrants to the
 licensee that it is not a competitor of Gaussian, Inc. and that
 it will not use this program in any manner prohibited above.
 ---------------------------------------------------------------
  

 Cite this work as:
 Gaussian 16, Revision C.01,
 M. J. Frisch, G. W. Trucks, H. B. Schlegel, G. E. Scuseria, 
 M. A. Robb, J. R. Cheeseman, G. Scalmani, V. Barone, 
 G. A. Petersson, H. Nakatsuji, X. Li, M. Caricato, A. V. Marenich, 
 J. Bloino, B. G. Janesko, R. Gomperts, B. Mennucci, H. P. Hratchian, 
 J. V. Ortiz, A. F. Izmaylov, J. L. Sonnenberg, D. Williams-Young, 
 F. Ding, F. Lipparini, F. Egidi, J. Goings, B. Peng, A. Petrone, 
 T. Henderson, D. Ranasinghe, V. G. Zakrzewski, J. Gao, N. Rega, 
 G. Zheng, W. Liang, M. Hada, M. Ehara, K. Toyota, R. Fukuda, 
 J. Hasegawa, M. Ishida, T. Nakajima, Y. Honda, O. Kitao, H. Nakai, 
 T. Vreven, K. Throssell, J. A. Montgomery, Jr., J. E. Peralta, 
 F. Ogliaro, M. J. Bearpark, J. J. Heyd, E. N. Brothers, K. N. Kudin, 
 V. N. Staroverov, T. A. Keith, R. Kobayashi, J. Normand, 
 K. Raghavachari, A. P. Rendell, J. C. Burant, S. S. Iyengar, 
 J. Tomasi, M. Cossi, J. M. Millam, M. Klene, C. Adamo, R. Cammi, 
 J. W. Ochterski, R. L. Martin, K. Morokuma, O. Farkas, 
 J. B. Foresman, and D. J. Fox, Gaussian, Inc., Wallingford CT, 2019.
 
 ******************************************
 Gaussian 16:  ES64L-G16RevC.01  3-Jul-2019
                12-Aug-2024 
 ******************************************
 %nprocshared=24
 Will use up to   24 processors via shared memory.
 %mem=48GB
 --------------------------
 # wb97xd 6-31G(d) prop=efg
 --------------------------
 1/38=1,172=1/1;
 2/12=2,17=6,18=5,40=1/2;
 3/5=1,6=6,7=1,11=2,25=1,30=1,74=-58/1,2,3;
 4//1;
 5/5=2,38=5/2;
 6/7=2,8=2,9=2,10=2,14=1,28=1/1,2;
 99/5=1,9=1/99;
 ---------------------------------------------
 19nt_xstal_distance_cutoff5_xtb_ligand_conf_1
 ---------------------------------------------
 Symbolic Z-matrix:
 Charge =  0 Multiplicity = 1
 C                     43.9058   42.2593   31.4672 
 O                     43.9687   41.2508   32.1728 
 C                     43.5774   43.5593   31.9789 
 C                     43.6034   44.6853   31.2347 
 C                     44.0811   44.6941   29.8115 
 C                     44.8453   43.4115   29.4725 
 C                     44.1197   42.1775   29.984 
 C                     43.0772   45.9569   31.7918 
 C                     43.8816   47.1889   31.391 
 C                     44.1354   47.2074   29.887 
 C                     44.933    45.9477   29.5143 
 C                     44.9327   48.4386   29.4774 
 C                     45.2947   48.4624   27.9842 
 C                     46.1586   47.244    27.6783 
 C                     45.4066   45.9663   28.055 
 C                     44.3172   49.8193   29.7104 
 C                     45.1605   50.746    28.8156 
 C                     46.0237   49.8205   27.9169 
 C                     44.0804   48.4867   27.0471 
 O                     46.2546   50.3368   26.6306 
 H                     43.2683   43.6003   33.0148 
 H                     43.1797   44.7432   29.185 
 H                     45.8414   43.459    29.9231 
 H                     44.9695   43.3205   28.3935 
 H                     43.1271   42.1139   29.5291 
 H                     44.6571   41.2618   29.7344 
 H                     43.0075   45.891    32.8781 
 H                     42.0495   46.0649   31.42 
 H                     44.8389   47.1803   31.9187 
 H                     43.3432   48.0861   31.6941 
 H                     43.1696   47.1948   29.3751 
 H                     45.8245   45.9141   30.1531 
 H                     45.8824   48.4031   30.0271 
 H                     47.0903   47.3017   28.2453 
 H                     46.4169   47.2146   26.6181 
 H                     44.5416   45.8567   27.4011 
 H                     46.0735   45.1221   27.8777 
 H                     44.3562   50.1208   30.7557 
 H                     43.271    49.8195   29.4062 
 H                     45.7959   51.4029   29.4089 
 H                     44.5352   51.3834   28.1884 
 H                     47.0206   49.7103   28.3553 
 H                     43.5815   49.4534   27.0617 
 H                     44.4021   48.2643   26.0301 
 H                     43.3476   47.7392   27.331 
 H                     45.4548   50.2019   26.1097 
 
                          Input orientation:                          
 ---------------------------------------------------------------------
 Center     Atomic      Atomic             Coordinates (Angstroms)
 Number     Number       Type             X           Y           Z
 ---------------------------------------------------------------------
      1          6           0       43.905800   42.259300   31.467200
      2          8           0       43.968700   41.250800   32.172800
      3          6           0       43.577400   43.559300   31.978900
      4          6           0       43.603400   44.685300   31.234700
      5          6           0       44.081100   44.694100   29.811500
      6          6           0       44.845300   43.411500   29.472500
      7          6           0       44.119700   42.177500   29.984000
      8          6           0       43.077200   45.956900   31.791800
      9          6           0       43.881600   47.188900   31.391000
     10          6           0       44.135400   47.207400   29.887000
     11          6           0       44.933000   45.947700   29.514300
     12          6           0       44.932700   48.438600   29.477400
     13          6           0       45.294700   48.462400   27.984200
     14          6           0       46.158600   47.244000   27.678300
     15          6           0       45.406600   45.966300   28.055000
     16          6           0       44.317200   49.819300   29.710400
     17          6           0       45.160500   50.746000   28.815600
     18          6           0       46.023700   49.820500   27.916900
     19          6           0       44.080400   48.486700   27.047100
     20          8           0       46.254600   50.336800   26.630600
     21          1           0       43.268300   43.600300   33.014800
     22          1           0       43.179700   44.743200   29.185000
     23          1           0       45.841400   43.459000   29.923100
     24          1           0       44.969500   43.320500   28.393500
     25          1           0       43.127100   42.113900   29.529100
     26          1           0       44.657100   41.261800   29.734400
     27          1           0       43.007500   45.891000   32.878100
     28          1           0       42.049500   46.064900   31.420000
     29          1           0       44.838900   47.180300   31.918700
     30          1           0       43.343200   48.086100   31.694100
     31          1           0       43.169600   47.194800   29.375100
     32          1           0       45.824500   45.914100   30.153100
     33          1           0       45.882400   48.403100   30.027100
     34          1           0       47.090300   47.301700   28.245300
     35          1           0       46.416900   47.214600   26.618100
     36          1           0       44.541600   45.856700   27.401100
     37          1           0       46.073500   45.122100   27.877700
     38          1           0       44.356200   50.120800   30.755700
     39          1           0       43.271000   49.819500   29.406200
     40          1           0       45.795900   51.402900   29.408900
     41          1           0       44.535200   51.383400   28.188400
     42          1           0       47.020600   49.710300   28.355300
     43          1           0       43.581500   49.453400   27.061700
     44          1           0       44.402100   48.264300   26.030100
     45          1           0       43.347600   47.739200   27.331000
     46          1           0       45.454800   50.201900   26.109700
 ---------------------------------------------------------------------
                    Distance matrix (angstroms):
                    1          2          3          4          5
     1  C    0.000000
     2  O    1.232437   0.000000
     3  C    1.435160   2.349444   0.000000
     4  C    2.455805   3.579003   1.349958   0.000000
     5  C    2.949631   4.176684   2.497821   1.501257   0.000000
     6  C    2.487781   3.567726   2.812731   2.504043   1.531008
     7  C    1.500775   2.381684   2.486581   2.849540   2.522800
     8  C    3.803181   4.804926   2.456358   1.484659   2.554225
     9  C    4.930248   5.989977   3.689466   2.523854   2.959501
    10  C    5.199369   6.382300   4.242174   2.908661   2.515020
    11  C    4.298052   5.482551   3.690035   2.514213   1.544530
    12  C    6.572486   7.736856   5.648177   4.352287   3.854624
    13  C    7.248364   8.444514   6.553407   5.262388   4.360268
    14  C    6.654180   7.804783   6.223726   5.071881   3.920273
    15  C    5.257125   6.423377   4.953445   3.873368   2.541798
    16  C    7.772335   8.922111   6.699328   5.402866   5.131631
    17  C    8.979384  10.141499   8.010077   6.708852   6.227553
    18  C    8.617533   9.786494   7.854098   6.575403   5.800274
    19  C    7.638605   8.868119   6.989630   5.675752   4.693157
    20  O    9.703379  10.885620   9.039149   7.756678   6.832444
    21  H    2.144703   2.592233   1.081810   2.111462   3.481117
    22  H    3.450423   4.663296   3.060337   2.093835   1.098833
    23  H    2.751376   3.666647   3.059750   2.869277   2.153273
    24  H    3.421291   4.423615   3.853578   3.435306   2.164892
    25  H    2.093740   2.905578   2.879839   3.122184   2.765375
    26  H    2.135896   2.533734   3.388516   3.883495   3.481150
    27  H    3.998353   4.790909   2.563235   2.123575   3.462546
    28  H    4.234462   5.236945   2.987454   2.086202   2.931512
    29  H    5.028993   5.998399   3.834925   2.866939   3.346004
    30  H    5.858293   6.880533   4.541792   3.441539   3.948967
    31  H    5.410918   6.617917   4.490316   3.153393   2.697180
    32  H    4.331955   5.410134   3.732035   2.759183   2.155118
    33  H    6.612648   7.708545   5.708323   4.524840   4.128904
    34  H    6.778457   7.860218   6.347109   5.285881   4.278767
    35  H    7.373899   8.509717   7.082525   5.968763   4.691128
    36  H    5.466141   6.656700   5.211908   4.116902   2.715461
    37  H    5.077308   6.153457   5.049030   4.190661   2.809346
    38  H    7.906470   8.990841   6.719824   5.508249   5.515094
    39  H    7.861763   9.031250   6.775158   5.460212   5.204830
    40  H    9.561093  10.679089   8.546853   7.298407   6.936182
    41  H    9.715754  10.902566   8.746531   7.417057   6.898362
    42  H    8.654669   9.769879   7.925964   6.724494   5.993617
    43  H    8.442078   9.672431   7.675890   6.336339   5.519233
    44  H    8.115935   9.333262   7.629245   6.366712   5.210408
    45  H    6.888326   8.119614   6.255186   4.962924   3.995439
    46  H    9.705004  10.912922   9.060699   7.754107   6.776890
                    6          7          8          9         10
     6  C    0.000000
     7  C    1.520159   0.000000
     8  C    3.870968   4.317269   0.000000
     9  C    4.344895   5.210611   1.524967   0.000000
    10  C    3.883893   5.030860   2.512330   1.525376   0.000000
    11  C    2.538060   3.885419   2.937871   2.483550   1.536852
    12  C    5.027862   6.333955   3.867578   2.515636   1.522929
    13  C    5.284751   6.699238   5.068792   3.901915   2.557274
    14  C    4.430798   5.928135   5.298352   4.355675   2.995502
    15  C    2.975125   4.442089   4.403393   3.866429   2.551961
    16  C    6.433925   7.649246   4.559382   3.151693   2.624169
    17  C    7.370601   8.710202   6.011105   4.573973   3.836720
    18  C    6.699537   8.143314   6.214830   4.856262   3.778262
    19  C    5.676733   6.959377   5.469778   4.537981   3.115231
    20  O    7.617237   9.076192   7.477792   6.180761   4.988817
    21  H    3.882070   3.454706   2.661919   3.986341   4.852439
    22  H    2.151814   2.846896   2.877322   3.367573   2.734675
    23  H    1.094309   2.147138   4.168015   4.461805   4.118524
    24  H    1.089930   2.135017   4.698920   5.013287   4.246676
    25  H    2.153876   1.093725   4.459927   5.458165   5.204662
    26  H    2.173757   1.090690   5.364042   6.202922   5.970395
    27  H    4.596035   4.837653   1.090527   2.158718   3.457130
    28  H    4.318540   4.632462   1.098211   2.149606   2.829554
    29  H    4.493082   5.411868   2.148580   1.093144   2.150221
    30  H    5.389220   6.199915   2.147974   1.089363   2.159932
    31  H    4.138939   5.142640   2.716868   2.137950   1.093147
    32  H    2.772193   4.110610   3.199192   2.632940   2.143943
    33  H    5.128277   6.470476   4.119127   2.708820   2.121635
    34  H    4.656147   6.172922   5.521877   4.494876   3.381642
    35  H    5.008103   6.479104   6.285108   5.404533   3.986352
    36  H    3.218996   4.515073   4.629552   4.257894   2.858162
    37  H    2.641593   4.113940   4.999488   4.628106   3.484536
    38  H    6.848396   7.984201   4.477433   3.037250   3.048162
    39  H    6.598885   7.710662   4.544043   3.351465   2.793103
    40  H    8.047991   9.394062   6.536701   5.034984   4.537407
    41  H    8.080610   9.388579   6.675115   5.317675   4.525932
    42  H    6.756844   8.234741   6.438008   5.042445   4.115215
    43  H    6.626741   7.859276   5.903700   4.894983   3.651526
    44  H    5.966256   7.263760   6.346388   5.492418   4.007973
    45  H    5.055503   6.210238   4.811283   4.131778   2.727009
    46  H    7.601937   9.010199   7.480593   6.280546   4.997584
                   11         12         13         14         15
    11  C    0.000000
    12  C    2.491173   0.000000
    13  C    2.965763   1.536638   0.000000
    14  C    2.559958   2.483276   1.524597   0.000000
    15  C    1.534340   2.891379   2.499610   1.529681   0.000000
    16  C    3.925169   1.529530   2.403425   3.761962   4.332753
    17  C    4.854237   2.411217   2.433940   3.814926   4.846092
    18  C    4.328960   2.352677   1.542856   2.591038   3.905732
    19  C    3.641500   2.575866   1.534038   2.502325   3.021107
    20  O    5.415399   3.668086   2.503401   3.266849   4.674322
    21  H    4.531557   6.220335   7.283766   7.078744   5.896601
    22  H    2.152515   4.100547   4.443827   4.171090   2.780640
    23  H    2.680660   5.081417   5.393721   4.412025   3.156802
    24  H    2.856520   5.231744   5.168406   4.161649   2.702942
    25  H    4.237867   6.577590   6.883942   6.239662   4.712757
    26  H    4.699173   7.186686   7.437632   6.501443   5.051184
    27  H    3.876328   4.664914   5.982779   6.228801   5.387360
    28  H    3.458323   4.209630   5.299439   5.681135   4.754268
    29  H    2.703571   2.748102   4.163151   4.441470   4.089530
    30  H    3.442637   2.750368   4.208719   4.976169   4.689800
    31  H    2.164305   2.160098   2.838567   3.437393   2.873333
    32  H    1.097254   2.761336   3.388015   2.829292   2.139951
    33  H    2.682035   1.097889   2.126581   2.633754   3.170735
    34  H    2.845632   2.732371   2.153968   1.092192   2.157395
    35  H    3.492130   3.446248   2.163924   1.091608   2.154911
    36  H    2.151067   3.336194   2.774318   2.148518   1.089873
    37  H    2.158892   3.854820   3.431541   2.132947   1.090351
    38  H    4.391872   2.190023   3.363374   4.582032   5.065273
    39  H    4.214827   2.161759   2.821199   4.237579   4.608002
    40  H    5.524030   3.088184   3.305679   4.519179   5.616157
    41  H    5.609197   3.239039   3.025025   4.475518   5.488361
    42  H    4.456289   2.689917   2.161874   2.698890   4.088118
    43  H    4.486840   2.948079   2.183607   3.450085   4.059249
    44  H    4.217599   3.492248   2.157426   2.615888   3.223359
    45  H    3.238791   2.758394   2.177358   2.875337   2.811909
    46  H    5.473737   3.837085   2.562273   3.421259   4.661204
                   16         17         18         19         20
    16  C    0.000000
    17  C    1.539674   0.000000
    18  C    2.475638   1.552200   0.000000
    19  C    2.987485   3.065721   2.512367   0.000000
    20  O    3.675118   2.477645   1.405151   2.885046   0.000000
    21  H    7.120057   8.501455   8.501276   7.755634   9.749689
    22  H    5.228455   6.331953   5.956122   4.404051   6.875197
    23  H    6.543840   7.402064   6.672837   6.053946   7.636454
    24  H    6.662891   7.439939   6.602158   5.412293   7.347637
    25  H    7.798872   8.897019   8.389348   6.905193   9.262756
    26  H    8.564281   9.541889   8.855634   7.730029   9.723230
    27  H    5.213557   6.686579   7.010844   6.472197   8.327067
    28  H    4.707517   6.194668   6.493882   5.395547   7.672701
    29  H    3.480385   4.737813   4.938503   5.100440   6.319153
    30  H    2.808509   4.320117   4.945752   4.722134   6.259467
    31  H    2.883992   4.109470   4.143252   2.813920   5.188610
    32  H    4.209338   5.057377   4.505578   4.394018   5.670385
    33  H    2.134426   2.734603   2.545964   3.483474   3.926059
    34  H    4.021804   3.989057   2.754966   3.449552   3.538005
    35  H    4.555823   4.344920   2.938061   2.694719   3.126441
    36  H    4.591886   5.127290   4.263142   2.693496   4.857915
    37  H    5.339201   5.774208   4.698827   3.997859   5.364807
    38  H    1.088612   2.191292   3.305983   4.062027   4.546100
    39  H    1.089528   2.185731   3.129756   2.827868   4.107727
    40  H    2.187520   1.089613   2.186766   4.126168   3.010968
    41  H    2.193266   1.091173   2.175316   3.146471   2.545280
    42  H    3.025979   2.178193   1.094600   3.442871   1.988429
    43  H    2.773220   2.690766   2.613517   1.087945   2.848106
    44  H    3.996228   3.806969   2.934512   1.089606   2.843873
    45  H    3.305826   3.812019   3.440436   1.084597   3.960901
    46  H    3.795465   2.775707   1.932637   2.389478   0.963958
                   21         22         23         24         25
    21  H    0.000000
    22  H    3.997679   0.000000
    23  H    4.024850   3.046081   0.000000
    24  H    4.932422   2.419490   1.766088   0.000000
    25  H    3.792021   2.652242   3.054825   2.477884   0.000000
    26  H    4.261264   3.821609   2.503170   2.476662   1.763270
    27  H    2.309548   3.871187   4.762104   5.528883   5.049415
    28  H    3.178540   2.831867   4.838381   5.021736   4.510779
    29  H    4.060126   4.020636   4.339988   5.228972   5.857376
    30  H    4.676779   4.182977   5.548648   6.020777   6.356186
    31  H    5.116404   2.458980   4.625475   4.383307   5.083411
    32  H    4.480754   3.050113   2.465908   3.248689   4.701794
    33  H    6.231112   4.626942   4.945364   5.416166   6.884310
    34  H    7.145360   4.766734   4.375055   4.513281   6.653448
    35  H    7.993411   4.814173   5.035748   4.517856   6.731556
    36  H    6.182739   2.505385   3.714691   2.756858   4.531859
    37  H    6.047712   3.197918   2.646400   2.175001   4.523015
    38  H    6.985985   5.724494   6.875945   7.224971   8.193026
    39  H    7.190302   5.081937   6.879688   6.793193   7.707923
    40  H    8.959456   7.158648   7.960654   8.187745   9.665530
    41  H    9.245313   6.850025   8.216536   8.077193   9.471212
    42  H    8.551187   6.333482   6.551890   6.711037   8.616405
    43  H    8.354416   5.182261   7.016238   6.427495   7.756468
    44  H    8.474930   4.883216   6.349641   5.508971   7.189996
    45  H    7.031526   3.527254   5.590897   4.825389   6.043531
    46  H    9.800118   6.665655   7.756170   7.266700   9.084395
                   26         27         28         29         30
    26  H    0.000000
    27  H    5.833826   0.000000
    28  H    5.719318   1.753300   0.000000
    29  H    6.311328   2.436549   3.045254   0.000000
    30  H    7.220653   2.516548   2.415376   1.762963   0.000000
    31  H    6.127172   3.741281   2.590929   3.042478   2.490444
    32  H    4.814772   3.919394   3.984771   2.385794   3.639933
    33  H    7.251565   4.764861   4.700901   2.482395   3.054000
    34  H    6.679691   6.334206   6.084247   4.310152   5.152695
    35  H    6.945794   7.250071   6.591983   5.530608   5.997743
    36  H    5.154681   5.687897   4.733441   4.716886   4.983597
    37  H    4.511700   5.915705   5.443284   4.700011   5.550202
    38  H    8.922750   4.920852   4.713012   3.198767   2.459018
    39  H    8.675438   5.249441   4.432209   3.966906   2.871302
    40  H   10.210031   7.084601   6.824535   5.004528   4.715829
    41  H   10.239715   7.381979   6.701372   5.627914   4.958123
    42  H    8.880608   7.151765   6.884269   4.884520   5.225790
    43  H    8.683464   6.844756   5.729200   5.508038   4.835848
    44  H    7.926025   7.380553   6.278782   6.003454   5.764887
    45  H    7.031915   5.856776   4.605243   4.856268   4.376871
    46  H    9.679884   8.389540   7.543880   6.576768   6.334113
                   31         32         33         34         35
    31  H    0.000000
    32  H    3.048601   0.000000
    33  H    3.040457   2.492860   0.000000
    34  H    4.081637   2.677197   2.418040   0.000000
    35  H    4.259859   3.812934   3.649589   1.763189   0.000000
    36  H    2.751285   3.036879   3.895866   3.049028   2.444122
    37  H    3.869228   2.422129   3.927009   2.433037   2.466388
    38  H    3.446092   4.496149   2.410526   4.660980   5.460056
    39  H    2.626842   4.725502   3.034982   4.719540   4.945270
    40  H    4.960514   5.539095   3.064058   4.455253   5.071101
    41  H    4.562619   5.952779   3.752060   4.815812   4.835859
    42  H    4.711468   4.367365   2.408150   2.412118   3.100135
    43  H    3.259257   5.207153   3.897546   4.282803   3.639849
    44  H    3.721816   4.954371   4.264571   3.613880   2.346707
    45  H    2.122828   4.174958   3.759645   3.877519   3.194375
    46  H    4.992757   5.905166   4.331806   3.955605   3.179319
                   36         37         38         39         40
    36  H    0.000000
    37  H    1.764512   0.000000
    38  H    5.428652   6.018223   0.000000
    39  H    4.619376   5.679426   1.757723   0.000000
    40  H    6.030329   6.470710   2.351677   2.980316   0.000000
    41  H    5.582499   6.454981   2.866571   2.350962   1.754812
    42  H    4.680403   4.709212   3.609634   3.895615   2.339841
    43  H    3.738079   5.063208   3.832913   2.393140   3.770075
    44  H    2.774101   4.010065   5.077400   3.885368   4.817653
    45  H    2.230326   3.818196   4.291604   2.939383   4.871811
    46  H    4.624112   5.414146   4.774810   3.972672   3.527530
                   41         42         43         44         45
    41  H    0.000000
    42  H    3.000722   0.000000
    43  H    2.429794   3.683315   0.000000
    44  H    3.795360   3.788669   1.775258   0.000000
    45  H    3.927559   4.292477   1.750918   1.755005   0.000000
    46  H    2.561757   2.781388   2.230652   2.206537   3.463633
                   46
    46  H    0.000000
 Stoichiometry    C18H26O2
 Framework group  C1[X(C18H26O2)]
 Deg. of freedom   132
 Full point group                 C1      NOp   1
 Largest Abelian subgroup         C1      NOp   1
 Largest concise Abelian subgroup C1      NOp   1
                         Standard orientation:                         
 ---------------------------------------------------------------------
 Center     Atomic      Atomic             Coordinates (Angstroms)
 Number     Number       Type             X           Y           Z
 ---------------------------------------------------------------------
      1          6           0        4.677990   -0.153579   -0.142402
      2          8           0        5.858986   -0.092750   -0.489459
      3          6           0        3.807852    0.987151   -0.106641
      4          6           0        2.489655    0.914705    0.175301
      5          6           0        1.785288   -0.394941    0.381376
      6          6           0        2.631256   -1.567619   -0.121765
      7          6           0        4.078069   -1.446081    0.328619
      8          6           0        1.701362    2.157872    0.368543
      9          6           0        0.288589    2.090748   -0.201625
     10          6           0       -0.416474    0.812434    0.240610
     11          6           0        0.388565   -0.389616   -0.277950
     12          6           0       -1.830946    0.740874   -0.319266
     13          6           0       -2.556543   -0.570176    0.021192
     14          6           0       -1.772114   -1.727180   -0.587423
     15          6           0       -0.339077   -1.721473   -0.052357
     16          6           0       -2.836966    1.815670    0.095705
     17          6           0       -4.197427    1.201699   -0.282159
     18          6           0       -3.924557   -0.285516   -0.632957
     19          6           0       -2.747814   -0.806298    1.524832
     20          8           0       -4.972982   -1.151432   -0.278776
     21          1           0        4.271301    1.946871   -0.292291
     22          1           0        1.645272   -0.501322    1.466048
     23          1           0        2.592973   -1.593050   -1.215108
     24          1           0        2.228623   -2.509860    0.249738
     25          1           0        4.128103   -1.432943    1.421119
     26          1           0        4.680361   -2.285957   -0.019888
     27          1           0        2.235626    3.010815   -0.051337
     28          1           0        1.641606    2.330504    1.451453
     29          1           0        0.340119    2.115593   -1.293272
     30          1           0       -0.274354    2.964548    0.124380
     31          1           0       -0.440910    0.793596    1.333321
     32          1           0        0.521979   -0.262334   -1.359601
     33          1           0       -1.744807    0.773594   -1.413282
     34          1           0       -1.757663   -1.630183   -1.675203
     35          1           0       -2.246579   -2.680115   -0.345752
     36          1           0       -0.357233   -1.938005    1.015635
     37          1           0        0.206287   -2.523446   -0.550636
     38          1           0       -2.665769    2.763426   -0.411764
     39          1           0       -2.769049    1.998832    1.167578
     40          1           0       -4.645931    1.718008   -1.130407
     41          1           0       -4.910417    1.257066    0.541999
     42          1           0       -3.828662   -0.394282   -1.717910
     43          1           0       -3.502620   -0.143298    1.942351
     44          1           0       -3.045096   -1.840660    1.695012
     45          1           0       -1.827039   -0.634638    2.071693
     46          1           0       -4.924413   -1.301342    0.672215
 ---------------------------------------------------------------------
 Rotational constants (GHZ):           0.9253197           0.1765237           0.1564195
 Standard basis: 6-31G(d) (6D, 7F)
 There are   352 symmetry adapted cartesian basis functions of A   symmetry.
 There are   352 symmetry adapted basis functions of A   symmetry.
   352 basis functions,   664 primitive gaussians,   352 cartesian basis functions
    75 alpha electrons       75 beta electrons
       nuclear repulsion energy      1671.1554394344 Hartrees.
 NAtoms=   46 NActive=   46 NUniq=   46 SFac= 1.00D+00 NAtFMM=   60 NAOKFM=F Big=F
 Integral buffers will be    131072 words long.
 Raffenetti 2 integral format.
 Two-electron integral symmetry is turned on.
 Nuclear repulsion after empirical dispersion term =     1671.1062119780 Hartrees.
 One-electron integrals computed using PRISM.
 NBasis=   352 RedAO= T EigKep=  1.23D-03  NBF=   352
 NBsUse=   352 1.00D-06 EigRej= -1.00D+00 NBFU=   352
 ExpMin= 1.61D-01 ExpMax= 5.48D+03 ExpMxC= 8.25D+02 IAcc=3 IRadAn=         5 AccDes= 0.00D+00
 Harris functional with IExCor= 4639 and IRadAn=       5 diagonalized for initial guess.
 HarFok:  IExCor= 4639 AccDes= 0.00D+00 IRadAn=         5 IDoV= 1 UseB2=F ITyADJ=14
 ICtDFT=  3500011 ScaDFX=  1.000000  1.000000  1.000000  1.000000
 FoFCou: FMM=F IPFlag=           0 FMFlag=      100000 FMFlg1=           0
         NFxFlg=           0 DoJE=T BraDBF=F KetDBF=T FulRan=T
         wScrn=  0.000000 ICntrl=       500 IOpCl=  0 I1Cent=   200000004 NGrid=           0
         NMat0=    1 NMatS0=      1 NMatT0=    0 NMatD0=    1 NMtDS0=    0 NMtDT0=    0
 Petite list used in FoFCou.
 Requested convergence on RMS density matrix=1.00D-08 within 128 cycles.
 Requested convergence on MAX density matrix=1.00D-06.
 Requested convergence on             energy=1.00D-06.
 No special actions if energy rises.
 Integral accuracy reduced to 1.0D-05 until final iterations.
 Initial convergence to 1.0D-05 achieved.  Increase integral accuracy.
 SCF Done:  E(RwB97XD) =  -851.792498930     A.U. after   15 cycles
            NFock= 15  Conv=0.44D-08     -V/T= 2.0088

 **********************************************************************

            Population analysis using the SCF Density.

 **********************************************************************

 Orbital symmetries:
       Occupied  (A) (A) (A) (A) (A) (A) (A) (A) (A) (A) (A) (A)
                 (A) (A) (A) (A) (A) (A) (A) (A) (A) (A) (A) (A)
                 (A) (A) (A) (A) (A) (A) (A) (A) (A) (A) (A) (A)
                 (A) (A) (A) (A) (A) (A) (A) (A) (A) (A) (A) (A)
                 (A) (A) (A) (A) (A) (A) (A) (A) (A) (A) (A) (A)
                 (A) (A) (A) (A) (A) (A) (A) (A) (A) (A) (A) (A)
                 (A) (A) (A)
       Virtual   (A) (A) (A) (A) (A) (A) (A) (A) (A) (A) (A) (A)
                 (A) (A) (A) (A) (A) (A) (A) (A) (A) (A) (A) (A)
                 (A) (A) (A) (A) (A) (A) (A) (A) (A) (A) (A) (A)
                 (A) (A) (A) (A) (A) (A) (A) (A) (A) (A) (A) (A)
                 (A) (A) (A) (A) (A) (A) (A) (A) (A) (A) (A) (A)
                 (A) (A) (A) (A) (A) (A) (A) (A) (A) (A) (A) (A)
                 (A) (A) (A) (A) (A) (A) (A) (A) (A) (A) (A) (A)
                 (A) (A) (A) (A) (A) (A) (A) (A) (A) (A) (A) (A)
                 (A) (A) (A) (A) (A) (A) (A) (A) (A) (A) (A) (A)
                 (A) (A) (A) (A) (A) (A) (A) (A) (A) (A) (A) (A)
                 (A) (A) (A) (A) (A) (A) (A) (A) (A) (A) (A) (A)
                 (A) (A) (A) (A) (A) (A) (A) (A) (A) (A) (A) (A)
                 (A) (A) (A) (A) (A) (A) (A) (A) (A) (A) (A) (A)
                 (A) (A) (A) (A) (A) (A) (A) (A) (A) (A) (A) (A)
                 (A) (A) (A) (A) (A) (A) (A) (A) (A) (A) (A) (A)
                 (A) (A) (A) (A) (A) (A) (A) (A) (A) (A) (A) (A)
                 (A) (A) (A) (A) (A) (A) (A) (A) (A) (A) (A) (A)
                 (A) (A) (A) (A) (A) (A) (A) (A) (A) (A) (A) (A)
                 (A) (A) (A) (A) (A) (A) (A) (A) (A) (A) (A) (A)
                 (A) (A) (A) (A) (A) (A) (A) (A) (A) (A) (A) (A)
                 (A) (A) (A) (A) (A) (A) (A) (A) (A) (A) (A) (A)
                 (A) (A) (A) (A) (A) (A) (A) (A) (A) (A) (A) (A)
                 (A) (A) (A) (A) (A) (A) (A) (A) (A) (A) (A) (A)
                 (A)
 The electronic state is 1-A.
 Alpha  occ. eigenvalues --  -19.26419 -19.23754 -10.36720 -10.33942 -10.32848
 Alpha  occ. eigenvalues --  -10.31517 -10.30821 -10.30652 -10.30387 -10.30373
 Alpha  occ. eigenvalues --  -10.30156 -10.30061 -10.29885 -10.29742 -10.29633
 Alpha  occ. eigenvalues --  -10.29337 -10.29235 -10.29235 -10.29153 -10.28782
 Alpha  occ. eigenvalues --   -1.12322  -1.11201  -0.98505  -0.95947  -0.91065
 Alpha  occ. eigenvalues --   -0.90381  -0.87486  -0.84591  -0.82820  -0.81818
 Alpha  occ. eigenvalues --   -0.78226  -0.77771  -0.73667  -0.72109  -0.69680
 Alpha  occ. eigenvalues --   -0.67971  -0.66449  -0.65765  -0.63617  -0.61011
 Alpha  occ. eigenvalues --   -0.59606  -0.57904  -0.56677  -0.55915  -0.55613
 Alpha  occ. eigenvalues --   -0.54327  -0.53554  -0.52985  -0.51102  -0.50779
 Alpha  occ. eigenvalues --   -0.50307  -0.49700  -0.49502  -0.48688  -0.48346
 Alpha  occ. eigenvalues --   -0.47766  -0.47102  -0.46983  -0.45207  -0.44948
 Alpha  occ. eigenvalues --   -0.44040  -0.43528  -0.43109  -0.42411  -0.42155
 Alpha  occ. eigenvalues --   -0.41656  -0.41144  -0.40452  -0.39863  -0.39050
 Alpha  occ. eigenvalues --   -0.37044  -0.36137  -0.33475  -0.32788  -0.31008
 Alpha virt. eigenvalues --    0.02453   0.13245   0.14683   0.14808   0.16921
 Alpha virt. eigenvalues --    0.17086   0.18073   0.18809   0.19420   0.20212
 Alpha virt. eigenvalues --    0.20769   0.21050   0.21968   0.22556   0.23440
 Alpha virt. eigenvalues --    0.23636   0.23864   0.24728   0.25166   0.25400
 Alpha virt. eigenvalues --    0.25700   0.26190   0.26386   0.26677   0.27129
 Alpha virt. eigenvalues --    0.27613   0.28089   0.28821   0.29521   0.30270
 Alpha virt. eigenvalues --    0.30763   0.31384   0.31799   0.32475   0.33150
 Alpha virt. eigenvalues --    0.33707   0.34585   0.35186   0.35962   0.36471
 Alpha virt. eigenvalues --    0.37178   0.37836   0.39008   0.39375   0.41238
 Alpha virt. eigenvalues --    0.41867   0.42397   0.45159   0.45421   0.49765
 Alpha virt. eigenvalues --    0.52419   0.57967   0.58693   0.59406   0.60057
 Alpha virt. eigenvalues --    0.61524   0.61853   0.62231   0.63061   0.65655
 Alpha virt. eigenvalues --    0.65789   0.66302   0.66560   0.68448   0.69341
 Alpha virt. eigenvalues --    0.70356   0.71439   0.72604   0.73149   0.73420
 Alpha virt. eigenvalues --    0.73803   0.74564   0.75569   0.76199   0.76684
 Alpha virt. eigenvalues --    0.77466   0.78294   0.78600   0.80416   0.81035
 Alpha virt. eigenvalues --    0.83120   0.83625   0.84443   0.84814   0.86030
 Alpha virt. eigenvalues --    0.87010   0.87319   0.88934   0.89607   0.90339
 Alpha virt. eigenvalues --    0.91310   0.92298   0.93454   0.94206   0.94968
 Alpha virt. eigenvalues --    0.95172   0.95671   0.96355   0.96631   0.96890
 Alpha virt. eigenvalues --    0.97326   0.97424   0.98215   0.98867   0.99178
 Alpha virt. eigenvalues --    0.99395   1.00253   1.00570   1.01149   1.02308
 Alpha virt. eigenvalues --    1.03081   1.03855   1.04166   1.04773   1.05219
 Alpha virt. eigenvalues --    1.05712   1.05967   1.06460   1.07623   1.07956
 Alpha virt. eigenvalues --    1.09309   1.09992   1.11194   1.12816   1.14329
 Alpha virt. eigenvalues --    1.15342   1.15939   1.16266   1.18615   1.20502
 Alpha virt. eigenvalues --    1.22046   1.23786   1.26331   1.27455   1.29787
 Alpha virt. eigenvalues --    1.30588   1.31567   1.34551   1.35834   1.38387
 Alpha virt. eigenvalues --    1.40032   1.42889   1.44242   1.44350   1.48390
 Alpha virt. eigenvalues --    1.52118   1.53616   1.55170   1.56769   1.59324
 Alpha virt. eigenvalues --    1.60638   1.61773   1.64788   1.65830   1.68332
 Alpha virt. eigenvalues --    1.70193   1.71253   1.73870   1.74427   1.76636
 Alpha virt. eigenvalues --    1.78013   1.78629   1.81294   1.81978   1.83387
 Alpha virt. eigenvalues --    1.84657   1.86059   1.87235   1.87417   1.88953
 Alpha virt. eigenvalues --    1.89499   1.92173   1.93514   1.94220   1.94996
 Alpha virt. eigenvalues --    1.95989   1.96569   1.97321   1.98951   1.99619
 Alpha virt. eigenvalues --    2.00346   2.01583   2.01902   2.02819   2.04247
 Alpha virt. eigenvalues --    2.05542   2.06152   2.06778   2.07837   2.08381
 Alpha virt. eigenvalues --    2.09137   2.09890   2.10982   2.11771   2.12478
 Alpha virt. eigenvalues --    2.13753   2.14777   2.15476   2.15870   2.18944
 Alpha virt. eigenvalues --    2.19961   2.20772   2.22380   2.24008   2.25726
 Alpha virt. eigenvalues --    2.26555   2.27795   2.30231   2.31108   2.33339
 Alpha virt. eigenvalues --    2.35137   2.35384   2.36769   2.38486   2.40456
 Alpha virt. eigenvalues --    2.41245   2.42438   2.43913   2.44550   2.47001
 Alpha virt. eigenvalues --    2.49102   2.49768   2.51281   2.51874   2.53957
 Alpha virt. eigenvalues --    2.55496   2.57651   2.58971   2.61059   2.63269
 Alpha virt. eigenvalues --    2.64366   2.65604   2.66153   2.66588   2.67704
 Alpha virt. eigenvalues --    2.69689   2.71700   2.72022   2.75475   2.77754
 Alpha virt. eigenvalues --    2.79694   2.79984   2.81811   2.83625   2.84760
 Alpha virt. eigenvalues --    2.87095   2.91406   2.94750   2.97577   2.99466
 Alpha virt. eigenvalues --    3.01220   3.02501   3.08271   3.08692   3.10326
 Alpha virt. eigenvalues --    3.22117   3.27586   4.02728   4.09570   4.25867
 Alpha virt. eigenvalues --    4.27306   4.31323   4.35130   4.36829   4.38338
 Alpha virt. eigenvalues --    4.42831   4.43176   4.48580   4.54629   4.56195
 Alpha virt. eigenvalues --    4.65943   4.68352   4.75178   4.77911   4.81613
 Alpha virt. eigenvalues --    4.86479   4.91482
          Condensed to atoms (all electrons):
               1          2          3          4          5          6
     1  C    4.424323   0.546381   0.354555   0.001305  -0.022444  -0.024803
     2  O    0.546381   8.086009  -0.063401   0.005321   0.000371   0.001827
     3  C    0.354555  -0.063401   5.317403   0.526432  -0.042894   0.000907
     4  C    0.001305   0.005321   0.526432   4.850405   0.379324  -0.043171
     5  C   -0.022444   0.000371  -0.042894   0.379324   5.095319   0.346162
     6  C   -0.024803   0.001827   0.000907  -0.043171   0.346162   5.144326
     7  C    0.342235  -0.078997  -0.140465   0.001174  -0.035351   0.294212
     8  C    0.003910  -0.000099  -0.034571   0.360162  -0.068873   0.005359
     9  C   -0.000146   0.000001   0.002038  -0.035160  -0.011664  -0.000299
    10  C   -0.000017   0.000000   0.000578  -0.014492  -0.041082   0.004323
    11  C   -0.000141   0.000002   0.002610  -0.033146   0.366698  -0.049111
    12  C   -0.000000   0.000000   0.000001   0.000221   0.004122  -0.000142
    13  C   -0.000000   0.000000   0.000000   0.000005   0.000043  -0.000003
    14  C    0.000000   0.000000   0.000001  -0.000092   0.003778   0.000167
    15  C   -0.000005  -0.000000  -0.000099   0.004436  -0.044308  -0.004573
    16  C   -0.000000  -0.000000   0.000000  -0.000001  -0.000115   0.000001
    17  C    0.000000  -0.000000  -0.000000   0.000000   0.000002  -0.000000
    18  C    0.000000   0.000000  -0.000000  -0.000000   0.000005   0.000000
    19  C   -0.000000   0.000000   0.000000   0.000001   0.000036  -0.000000
    20  O   -0.000000   0.000000   0.000000   0.000000  -0.000000   0.000000
    21  H   -0.029723   0.000954   0.358574  -0.044953   0.004889  -0.000382
    22  H    0.000910   0.000002  -0.002901  -0.043372   0.365621  -0.033421
    23  H   -0.002652   0.000161   0.003549  -0.004418  -0.043644   0.387506
    24  H    0.003580  -0.000075  -0.000323   0.004590  -0.028918   0.377900
    25  H   -0.029908   0.000161   0.003089  -0.002686  -0.002804  -0.038580
    26  H   -0.026578   0.003732   0.006234  -0.000218   0.004114  -0.029993
    27  H    0.000258  -0.000001  -0.002599  -0.040658   0.004284  -0.000150
    28  H   -0.000101   0.000002  -0.006794  -0.039034   0.000235   0.000114
    29  H   -0.000002  -0.000000  -0.000110  -0.003012   0.000312   0.000014
    30  H    0.000002  -0.000000  -0.000077   0.004276  -0.000008   0.000011
    31  H    0.000003  -0.000000  -0.000197  -0.003949  -0.001595   0.000150
    32  H    0.000049  -0.000000   0.000094  -0.003287  -0.041403  -0.004857
    33  H    0.000000   0.000000  -0.000002  -0.000078   0.000191   0.000000
    34  H    0.000000   0.000000  -0.000000   0.000003   0.000052  -0.000028
    35  H   -0.000000  -0.000000  -0.000000   0.000001  -0.000102   0.000002
    36  H    0.000001  -0.000000  -0.000006   0.000149  -0.003152  -0.001539
    37  H   -0.000012  -0.000000   0.000016  -0.000105  -0.007290   0.003411
    38  H    0.000000  -0.000000   0.000000  -0.000001   0.000001  -0.000000
    39  H    0.000000   0.000000  -0.000000  -0.000001   0.000001   0.000000
    40  H    0.000000  -0.000000   0.000000   0.000000  -0.000000   0.000000
    41  H    0.000000  -0.000000   0.000000  -0.000000  -0.000000   0.000000
    42  H    0.000000  -0.000000  -0.000000   0.000000   0.000000  -0.000000
    43  H   -0.000000   0.000000   0.000000   0.000000  -0.000001  -0.000000
    44  H    0.000000  -0.000000  -0.000000   0.000000  -0.000004   0.000000
    45  H    0.000000  -0.000000  -0.000000   0.000001   0.000026   0.000002
    46  H   -0.000000   0.000000  -0.000000   0.000000  -0.000000   0.000000
               7          8          9         10         11         12
     1  C    0.342235   0.003910  -0.000146  -0.000017  -0.000141  -0.000000
     2  O   -0.078997  -0.000099   0.000001   0.000000   0.000002   0.000000
     3  C   -0.140465  -0.034571   0.002038   0.000578   0.002610   0.000001
     4  C    0.001174   0.360162  -0.035160  -0.014492  -0.033146   0.000221
     5  C   -0.035351  -0.068873  -0.011664  -0.041082   0.366698   0.004122
     6  C    0.294212   0.005359  -0.000299   0.004323  -0.049111  -0.000142
     7  C    5.356733  -0.000219   0.000045  -0.000098   0.004595   0.000002
     8  C   -0.000219   5.154901   0.336717  -0.043938  -0.015445   0.004085
     9  C    0.000045   0.336717   5.101738   0.370122  -0.044805  -0.044430
    10  C   -0.000098  -0.043938   0.370122   5.026355   0.372066   0.366493
    11  C    0.004595  -0.015445  -0.044805   0.372066   5.047769  -0.039269
    12  C    0.000002   0.004085  -0.044430   0.366493  -0.039269   5.103060
    13  C    0.000000  -0.000140   0.004363  -0.028373  -0.012229   0.360384
    14  C   -0.000003  -0.000009  -0.000091  -0.011387  -0.038430  -0.050608
    15  C    0.000279   0.000309   0.004605  -0.041734   0.364965  -0.017712
    16  C   -0.000000   0.000073  -0.004114  -0.034939   0.004410   0.357326
    17  C    0.000000  -0.000000   0.000144   0.004395  -0.000212  -0.054606
    18  C   -0.000000   0.000002  -0.000132   0.004124   0.000129  -0.066427
    19  C   -0.000000  -0.000000   0.000213  -0.006980  -0.002045  -0.058206
    20  O    0.000000  -0.000000   0.000000  -0.000061  -0.000003   0.002830
    21  H    0.006778  -0.008681   0.000238  -0.000001  -0.000095  -0.000000
    22  H   -0.004518   0.000620  -0.000589  -0.005806  -0.041245   0.000032
    23  H   -0.043020  -0.000040  -0.000039   0.000192  -0.003221  -0.000003
    24  H   -0.031883  -0.000120  -0.000007  -0.000078  -0.007860  -0.000002
    25  H    0.366149  -0.000066  -0.000002   0.000002   0.000071   0.000000
    26  H    0.367149   0.000009   0.000000   0.000001  -0.000065  -0.000000
    27  H    0.000011   0.380255  -0.032213   0.004291  -0.000166  -0.000116
    28  H   -0.000076   0.378329  -0.040442  -0.004768  -0.000675  -0.000019
    29  H   -0.000005  -0.037092   0.381856  -0.039815  -0.007830  -0.004762
    30  H   -0.000000  -0.031801   0.379319  -0.033083   0.005019  -0.007112
    31  H   -0.000009   0.000452  -0.046955   0.379512  -0.048634  -0.042018
    32  H   -0.000139  -0.000078  -0.006184  -0.045610   0.377883  -0.004271
    33  H   -0.000000   0.000104  -0.006166  -0.044204  -0.006073   0.383764
    34  H   -0.000000   0.000000  -0.000028  -0.000363  -0.004246  -0.006212
    35  H   -0.000000  -0.000000   0.000011  -0.000085   0.004222   0.006215
    36  H   -0.000059  -0.000013   0.000005  -0.004002  -0.044840  -0.000534
    37  H    0.000085  -0.000010  -0.000132   0.004396  -0.031619   0.000126
    38  H    0.000000  -0.000013   0.001309  -0.001639  -0.000088  -0.026724
    39  H   -0.000000  -0.000028  -0.000579  -0.004311   0.000084  -0.039548
    40  H   -0.000000  -0.000000  -0.000006  -0.000058   0.000004   0.001088
    41  H   -0.000000  -0.000000   0.000001  -0.000143   0.000003   0.003449
    42  H   -0.000000  -0.000000   0.000004  -0.000221   0.000002  -0.005149
    43  H    0.000000  -0.000000  -0.000017   0.000025   0.000008  -0.003135
    44  H    0.000000  -0.000000   0.000001  -0.000007   0.000116   0.005393
    45  H   -0.000000   0.000012  -0.000091   0.002592  -0.000212  -0.006685
    46  H    0.000000  -0.000000   0.000000  -0.000011   0.000000   0.000311
              13         14         15         16         17         18
     1  C   -0.000000   0.000000  -0.000005  -0.000000   0.000000   0.000000
     2  O    0.000000   0.000000  -0.000000  -0.000000  -0.000000   0.000000
     3  C    0.000000   0.000001  -0.000099   0.000000  -0.000000  -0.000000
     4  C    0.000005  -0.000092   0.004436  -0.000001   0.000000  -0.000000
     5  C    0.000043   0.003778  -0.044308  -0.000115   0.000002   0.000005
     6  C   -0.000003   0.000167  -0.004573   0.000001  -0.000000   0.000000
     7  C    0.000000  -0.000003   0.000279  -0.000000   0.000000  -0.000000
     8  C   -0.000140  -0.000009   0.000309   0.000073  -0.000000   0.000002
     9  C    0.004363  -0.000091   0.004605  -0.004114   0.000144  -0.000132
    10  C   -0.028373  -0.011387  -0.041734  -0.034939   0.004395   0.004124
    11  C   -0.012229  -0.038430   0.364965   0.004410  -0.000212   0.000129
    12  C    0.360384  -0.050608  -0.017712   0.357326  -0.054606  -0.066427
    13  C    5.087349   0.378540  -0.041501  -0.057951  -0.083645   0.370603
    14  C    0.378540   5.097972   0.352746   0.005797   0.007232  -0.041306
    15  C   -0.041501   0.352746   5.110342   0.000216  -0.000214   0.004334
    16  C   -0.057951   0.005797   0.000216   5.132105   0.315378  -0.058842
    17  C   -0.083645   0.007232  -0.000214   0.315378   5.249808   0.338941
    18  C    0.370603  -0.041306   0.004334  -0.058842   0.338941   4.800582
    19  C    0.326624  -0.066638  -0.004622  -0.002286  -0.011411  -0.046551
    20  O   -0.041288   0.001321   0.000037   0.003458  -0.053097   0.270101
    21  H   -0.000000  -0.000000   0.000002  -0.000000  -0.000000  -0.000000
    22  H   -0.000027   0.000038  -0.006421  -0.000000   0.000000  -0.000000
    23  H   -0.000001  -0.000059  -0.002003   0.000000   0.000000  -0.000000
    24  H   -0.000003   0.000053   0.002997  -0.000000   0.000000   0.000000
    25  H   -0.000000  -0.000000  -0.000028   0.000000   0.000000  -0.000000
    26  H   -0.000000  -0.000000  -0.000001   0.000000  -0.000000  -0.000000
    27  H    0.000001  -0.000000   0.000009  -0.000001  -0.000000  -0.000000
    28  H    0.000003   0.000000  -0.000004  -0.000010  -0.000000  -0.000000
    29  H    0.000042  -0.000012   0.000114  -0.000495  -0.000020  -0.000004
    30  H    0.000020  -0.000005  -0.000142   0.003880  -0.000004  -0.000009
    31  H   -0.007654   0.000320  -0.002914  -0.004085  -0.000010   0.000037
    32  H   -0.001230  -0.000854  -0.045280  -0.000035   0.000004  -0.000064
    33  H   -0.052803  -0.005909  -0.001074  -0.044004  -0.002428  -0.003081
    34  H   -0.037172   0.380666  -0.038145   0.000040   0.000058  -0.005822
    35  H   -0.033030   0.376306  -0.035329  -0.000244   0.000085  -0.004049
    36  H   -0.009157  -0.036603   0.380933  -0.000022  -0.000001  -0.000027
    37  H    0.004997  -0.034718   0.381720   0.000009   0.000004  -0.000084
    38  H    0.005122  -0.000144  -0.000003   0.377418  -0.026880   0.002422
    39  H   -0.006437   0.000016  -0.000020   0.384827  -0.032517   0.001658
    40  H    0.004246  -0.000148   0.000003  -0.029717   0.376849  -0.024573
    41  H   -0.000494  -0.000117   0.000003  -0.028020   0.370449  -0.031882
    42  H   -0.046692  -0.008363   0.000059   0.004184  -0.054175   0.394887
    43  H   -0.036140   0.004969   0.000111   0.001557   0.003051  -0.004586
    44  H   -0.030583  -0.005954  -0.000767  -0.000185   0.000399  -0.004309
    45  H   -0.030465  -0.002728   0.000844  -0.000227  -0.000148   0.004812
    46  H   -0.018473  -0.000229  -0.000013  -0.000094  -0.001818  -0.030896
              19         20         21         22         23         24
     1  C   -0.000000  -0.000000  -0.029723   0.000910  -0.002652   0.003580
     2  O    0.000000   0.000000   0.000954   0.000002   0.000161  -0.000075
     3  C    0.000000   0.000000   0.358574  -0.002901   0.003549  -0.000323
     4  C    0.000001   0.000000  -0.044953  -0.043372  -0.004418   0.004590
     5  C    0.000036  -0.000000   0.004889   0.365621  -0.043644  -0.028918
     6  C   -0.000000   0.000000  -0.000382  -0.033421   0.387506   0.377900
     7  C   -0.000000   0.000000   0.006778  -0.004518  -0.043020  -0.031883
     8  C   -0.000000  -0.000000  -0.008681   0.000620  -0.000040  -0.000120
     9  C    0.000213   0.000000   0.000238  -0.000589  -0.000039  -0.000007
    10  C   -0.006980  -0.000061  -0.000001  -0.005806   0.000192  -0.000078
    11  C   -0.002045  -0.000003  -0.000095  -0.041245  -0.003221  -0.007860
    12  C   -0.058206   0.002830  -0.000000   0.000032  -0.000003  -0.000002
    13  C    0.326624  -0.041288  -0.000000  -0.000027  -0.000001  -0.000003
    14  C   -0.066638   0.001321  -0.000000   0.000038  -0.000059   0.000053
    15  C   -0.004622   0.000037   0.000002  -0.006421  -0.002003   0.002997
    16  C   -0.002286   0.003458  -0.000000  -0.000000   0.000000  -0.000000
    17  C   -0.011411  -0.053097  -0.000000   0.000000   0.000000   0.000000
    18  C   -0.046551   0.270101  -0.000000  -0.000000  -0.000000   0.000000
    19  C    5.275170  -0.002022   0.000000  -0.000053  -0.000000  -0.000001
    20  O   -0.002022   8.263519   0.000000  -0.000000  -0.000000   0.000000
    21  H    0.000000   0.000000   0.536788  -0.000205  -0.000082   0.000014
    22  H   -0.000053  -0.000000  -0.000205   0.587801   0.005360  -0.003843
    23  H   -0.000000  -0.000000  -0.000082   0.005360   0.554754  -0.030127
    24  H   -0.000001   0.000000   0.000014  -0.003843  -0.030127   0.549941
    25  H   -0.000000  -0.000000  -0.000186   0.004413   0.005122  -0.004593
    26  H    0.000000   0.000000  -0.000115  -0.000168  -0.002796  -0.003096
    27  H    0.000000   0.000000   0.005606  -0.000095   0.000002   0.000002
    28  H   -0.000003  -0.000000   0.000274   0.001733   0.000001   0.000008
    29  H   -0.000005   0.000000  -0.000003   0.000097  -0.000006   0.000002
    30  H   -0.000005   0.000000  -0.000009  -0.000013   0.000000   0.000000
    31  H    0.001075  -0.000000  -0.000002   0.005438   0.000008   0.000000
    32  H    0.000054   0.000000  -0.000021   0.005818   0.005448   0.000105
    33  H    0.006605   0.000057  -0.000000   0.000001  -0.000003  -0.000000
    34  H    0.006219  -0.000151  -0.000000   0.000004   0.000004   0.000010
    35  H   -0.007807   0.002855   0.000000  -0.000001   0.000001   0.000003
    36  H    0.004101  -0.000002  -0.000000   0.005208   0.000172   0.000996
    37  H   -0.000018   0.000001   0.000000   0.000040   0.001153   0.000712
    38  H    0.000036  -0.000042  -0.000000   0.000000   0.000000  -0.000000
    39  H    0.002988  -0.000016   0.000000  -0.000002  -0.000000  -0.000000
    40  H    0.000196   0.002415   0.000000  -0.000000  -0.000000  -0.000000
    41  H    0.000271   0.001009   0.000000   0.000000   0.000000   0.000000
    42  H    0.006546  -0.041840   0.000000  -0.000000   0.000000   0.000000
    43  H    0.377207  -0.000905  -0.000000   0.000001   0.000000   0.000000
    44  H    0.373004   0.001846   0.000000   0.000001   0.000000  -0.000000
    45  H    0.377331   0.000323  -0.000000   0.000025  -0.000000  -0.000001
    46  H    0.015163   0.245317   0.000000   0.000000   0.000000   0.000000
              25         26         27         28         29         30
     1  C   -0.029908  -0.026578   0.000258  -0.000101  -0.000002   0.000002
     2  O    0.000161   0.003732  -0.000001   0.000002  -0.000000  -0.000000
     3  C    0.003089   0.006234  -0.002599  -0.006794  -0.000110  -0.000077
     4  C   -0.002686  -0.000218  -0.040658  -0.039034  -0.003012   0.004276
     5  C   -0.002804   0.004114   0.004284   0.000235   0.000312  -0.000008
     6  C   -0.038580  -0.029993  -0.000150   0.000114   0.000014   0.000011
     7  C    0.366149   0.367149   0.000011  -0.000076  -0.000005  -0.000000
     8  C   -0.000066   0.000009   0.380255   0.378329  -0.037092  -0.031801
     9  C   -0.000002   0.000000  -0.032213  -0.040442   0.381856   0.379319
    10  C    0.000002   0.000001   0.004291  -0.004768  -0.039815  -0.033083
    11  C    0.000071  -0.000065  -0.000166  -0.000675  -0.007830   0.005019
    12  C    0.000000  -0.000000  -0.000116  -0.000019  -0.004762  -0.007112
    13  C   -0.000000  -0.000000   0.000001   0.000003   0.000042   0.000020
    14  C   -0.000000  -0.000000  -0.000000   0.000000  -0.000012  -0.000005
    15  C   -0.000028  -0.000001   0.000009  -0.000004   0.000114  -0.000142
    16  C    0.000000   0.000000  -0.000001  -0.000010  -0.000495   0.003880
    17  C    0.000000  -0.000000  -0.000000  -0.000000  -0.000020  -0.000004
    18  C   -0.000000  -0.000000  -0.000000  -0.000000  -0.000004  -0.000009
    19  C   -0.000000   0.000000   0.000000  -0.000003  -0.000005  -0.000005
    20  O   -0.000000   0.000000   0.000000  -0.000000   0.000000   0.000000
    21  H   -0.000186  -0.000115   0.005606   0.000274  -0.000003  -0.000009
    22  H    0.004413  -0.000168  -0.000095   0.001733   0.000097  -0.000013
    23  H    0.005122  -0.002796   0.000002   0.000001  -0.000006   0.000000
    24  H   -0.004593  -0.003096   0.000002   0.000008   0.000002   0.000000
    25  H    0.541231  -0.022099   0.000000   0.000008  -0.000000   0.000000
    26  H   -0.022099   0.512241   0.000000  -0.000001  -0.000000   0.000000
    27  H    0.000000   0.000000   0.531909  -0.025787  -0.003595  -0.001663
    28  H    0.000008  -0.000001  -0.025787   0.553748   0.005127  -0.005223
    29  H   -0.000000  -0.000000  -0.003595   0.005127   0.563760  -0.030229
    30  H    0.000000   0.000000  -0.001663  -0.005223  -0.030229   0.552041
    31  H   -0.000001  -0.000000   0.000021   0.004315   0.005597  -0.002860
    32  H    0.000010  -0.000003  -0.000043   0.000113   0.005788   0.000081
    33  H   -0.000000   0.000000   0.000003   0.000003   0.004785  -0.000047
    34  H   -0.000000   0.000000  -0.000000  -0.000000  -0.000011   0.000001
    35  H    0.000000   0.000000   0.000000  -0.000000   0.000000  -0.000000
    36  H    0.000003   0.000000  -0.000000  -0.000002  -0.000001   0.000004
    37  H    0.000009   0.000001  -0.000000   0.000000  -0.000004   0.000002
    38  H    0.000000  -0.000000   0.000001   0.000004   0.000293   0.000830
    39  H   -0.000000   0.000000   0.000001  -0.000001   0.000063   0.000522
    40  H    0.000000   0.000000   0.000000  -0.000000  -0.000000   0.000003
    41  H   -0.000000   0.000000   0.000000   0.000000   0.000000   0.000002
    42  H   -0.000000   0.000000   0.000000  -0.000000  -0.000002  -0.000000
    43  H    0.000000   0.000000  -0.000000   0.000000   0.000000   0.000000
    44  H    0.000000  -0.000000   0.000000   0.000000   0.000000  -0.000000
    45  H    0.000000   0.000000  -0.000000  -0.000005   0.000000   0.000002
    46  H   -0.000000   0.000000   0.000000   0.000000  -0.000000  -0.000000
              31         32         33         34         35         36
     1  C    0.000003   0.000049   0.000000   0.000000  -0.000000   0.000001
     2  O   -0.000000  -0.000000   0.000000   0.000000  -0.000000  -0.000000
     3  C   -0.000197   0.000094  -0.000002  -0.000000  -0.000000  -0.000006
     4  C   -0.003949  -0.003287  -0.000078   0.000003   0.000001   0.000149
     5  C   -0.001595  -0.041403   0.000191   0.000052  -0.000102  -0.003152
     6  C    0.000150  -0.004857   0.000000  -0.000028   0.000002  -0.001539
     7  C   -0.000009  -0.000139  -0.000000  -0.000000  -0.000000  -0.000059
     8  C    0.000452  -0.000078   0.000104   0.000000  -0.000000  -0.000013
     9  C   -0.046955  -0.006184  -0.006166  -0.000028   0.000011   0.000005
    10  C    0.379512  -0.045610  -0.044204  -0.000363  -0.000085  -0.004002
    11  C   -0.048634   0.377883  -0.006073  -0.004246   0.004222  -0.044840
    12  C   -0.042018  -0.004271   0.383764  -0.006212   0.006215  -0.000534
    13  C   -0.007654  -0.001230  -0.052803  -0.037172  -0.033030  -0.009157
    14  C    0.000320  -0.000854  -0.005909   0.380666   0.376306  -0.036603
    15  C   -0.002914  -0.045280  -0.001074  -0.038145  -0.035329   0.380933
    16  C   -0.004085  -0.000035  -0.044004   0.000040  -0.000244  -0.000022
    17  C   -0.000010   0.000004  -0.002428   0.000058   0.000085  -0.000001
    18  C    0.000037  -0.000064  -0.003081  -0.005822  -0.004049  -0.000027
    19  C    0.001075   0.000054   0.006605   0.006219  -0.007807   0.004101
    20  O   -0.000000   0.000000   0.000057  -0.000151   0.002855  -0.000002
    21  H   -0.000002  -0.000021  -0.000000  -0.000000   0.000000  -0.000000
    22  H    0.005438   0.005818   0.000001   0.000004  -0.000001   0.005208
    23  H    0.000008   0.005448  -0.000003   0.000004   0.000001   0.000172
    24  H    0.000000   0.000105  -0.000000   0.000010   0.000003   0.000996
    25  H   -0.000001   0.000010  -0.000000  -0.000000   0.000000   0.000003
    26  H   -0.000000  -0.000003   0.000000   0.000000   0.000000   0.000000
    27  H    0.000021  -0.000043   0.000003  -0.000000   0.000000  -0.000000
    28  H    0.004315   0.000113   0.000003  -0.000000  -0.000000  -0.000002
    29  H    0.005597   0.005788   0.004785  -0.000011   0.000000  -0.000001
    30  H   -0.002860   0.000081  -0.000047   0.000001  -0.000000   0.000004
    31  H    0.608218   0.005823   0.005963   0.000037  -0.000005   0.001908
    32  H    0.005823   0.599850   0.004697   0.003524  -0.000058   0.005643
    33  H    0.005963   0.004697   0.613282   0.004931   0.000030   0.000091
    34  H    0.000037   0.003524   0.004931   0.569289  -0.028968   0.005091
    35  H   -0.000005  -0.000058   0.000030  -0.028968   0.559598  -0.003912
    36  H    0.001908   0.005643   0.000091   0.005091  -0.003912   0.579550
    37  H   -0.000066  -0.004648  -0.000081  -0.004169  -0.002315  -0.030536
    38  H   -0.000127  -0.000000  -0.006107  -0.000002   0.000003   0.000000
    39  H    0.004175   0.000003   0.005315  -0.000006   0.000005  -0.000007
    40  H    0.000001  -0.000000   0.000581  -0.000012  -0.000000   0.000000
    41  H   -0.000007  -0.000000  -0.000044  -0.000000  -0.000002  -0.000000
    42  H   -0.000007  -0.000007   0.004327   0.005300  -0.000212   0.000000
    43  H    0.000070   0.000002  -0.000091  -0.000140  -0.000028   0.000015
    44  H   -0.000027   0.000002  -0.000119   0.000084   0.005933   0.000643
    45  H    0.004561  -0.000016   0.000037  -0.000112  -0.000097   0.000897
    46  H   -0.000003  -0.000000   0.000004   0.000020   0.000065  -0.000004
              37         38         39         40         41         42
     1  C   -0.000012   0.000000   0.000000   0.000000   0.000000   0.000000
     2  O   -0.000000  -0.000000   0.000000  -0.000000  -0.000000  -0.000000
     3  C    0.000016   0.000000  -0.000000   0.000000   0.000000  -0.000000
     4  C   -0.000105  -0.000001  -0.000001   0.000000  -0.000000   0.000000
     5  C   -0.007290   0.000001   0.000001  -0.000000  -0.000000   0.000000
     6  C    0.003411  -0.000000   0.000000   0.000000   0.000000  -0.000000
     7  C    0.000085   0.000000  -0.000000  -0.000000  -0.000000  -0.000000
     8  C   -0.000010  -0.000013  -0.000028  -0.000000  -0.000000  -0.000000
     9  C   -0.000132   0.001309  -0.000579  -0.000006   0.000001   0.000004
    10  C    0.004396  -0.001639  -0.004311  -0.000058  -0.000143  -0.000221
    11  C   -0.031619  -0.000088   0.000084   0.000004   0.000003   0.000002
    12  C    0.000126  -0.026724  -0.039548   0.001088   0.003449  -0.005149
    13  C    0.004997   0.005122  -0.006437   0.004246  -0.000494  -0.046692
    14  C   -0.034718  -0.000144   0.000016  -0.000148  -0.000117  -0.008363
    15  C    0.381720  -0.000003  -0.000020   0.000003   0.000003   0.000059
    16  C    0.000009   0.377418   0.384827  -0.029717  -0.028020   0.004184
    17  C    0.000004  -0.026880  -0.032517   0.376849   0.370449  -0.054175
    18  C   -0.000084   0.002422   0.001658  -0.024573  -0.031882   0.394887
    19  C   -0.000018   0.000036   0.002988   0.000196   0.000271   0.006546
    20  O    0.000001  -0.000042  -0.000016   0.002415   0.001009  -0.041840
    21  H    0.000000  -0.000000   0.000000   0.000000   0.000000   0.000000
    22  H    0.000040   0.000000  -0.000002  -0.000000   0.000000  -0.000000
    23  H    0.001153   0.000000  -0.000000  -0.000000   0.000000   0.000000
    24  H    0.000712  -0.000000  -0.000000  -0.000000   0.000000   0.000000
    25  H    0.000009   0.000000  -0.000000   0.000000  -0.000000  -0.000000
    26  H    0.000001  -0.000000   0.000000   0.000000   0.000000   0.000000
    27  H   -0.000000   0.000001   0.000001   0.000000   0.000000   0.000000
    28  H    0.000000   0.000004  -0.000001  -0.000000   0.000000  -0.000000
    29  H   -0.000004   0.000293   0.000063  -0.000000   0.000000  -0.000002
    30  H    0.000002   0.000830   0.000522   0.000003   0.000002  -0.000000
    31  H   -0.000066  -0.000127   0.004175   0.000001  -0.000007  -0.000007
    32  H   -0.004648  -0.000000   0.000003  -0.000000  -0.000000  -0.000007
    33  H   -0.000081  -0.006107   0.005315   0.000581  -0.000044   0.004327
    34  H   -0.004169  -0.000002  -0.000006  -0.000012  -0.000000   0.005300
    35  H   -0.002315   0.000003   0.000005  -0.000000  -0.000002  -0.000212
    36  H   -0.030536   0.000000  -0.000007   0.000000  -0.000000   0.000000
    37  H    0.551974  -0.000000  -0.000000  -0.000000  -0.000000  -0.000006
    38  H   -0.000000   0.548616  -0.032519  -0.006924   0.002464  -0.000131
    39  H   -0.000000  -0.032519   0.567980   0.003711  -0.009428  -0.000171
    40  H   -0.000000  -0.006924   0.003711   0.535260  -0.027128  -0.006272
    41  H   -0.000000   0.002464  -0.009428  -0.027128   0.552743   0.004307
    42  H   -0.000006  -0.000131  -0.000171  -0.006272   0.004307   0.584513
    43  H   -0.000001   0.000023  -0.000297  -0.000072   0.001603   0.000131
    44  H   -0.000052   0.000001   0.000046  -0.000004  -0.000043  -0.000181
    45  H    0.000032  -0.000023   0.000296   0.000001  -0.000005  -0.000100
    46  H    0.000000   0.000002  -0.000055  -0.000240   0.003268   0.007179
              43         44         45         46
     1  C   -0.000000   0.000000   0.000000  -0.000000
     2  O    0.000000  -0.000000  -0.000000   0.000000
     3  C    0.000000  -0.000000  -0.000000  -0.000000
     4  C    0.000000   0.000000   0.000001   0.000000
     5  C   -0.000001  -0.000004   0.000026  -0.000000
     6  C   -0.000000   0.000000   0.000002   0.000000
     7  C    0.000000   0.000000  -0.000000   0.000000
     8  C   -0.000000  -0.000000   0.000012  -0.000000
     9  C   -0.000017   0.000001  -0.000091   0.000000
    10  C    0.000025  -0.000007   0.002592  -0.000011
    11  C    0.000008   0.000116  -0.000212   0.000000
    12  C   -0.003135   0.005393  -0.006685   0.000311
    13  C   -0.036140  -0.030583  -0.030465  -0.018473
    14  C    0.004969  -0.005954  -0.002728  -0.000229
    15  C    0.000111  -0.000767   0.000844  -0.000013
    16  C    0.001557  -0.000185  -0.000227  -0.000094
    17  C    0.003051   0.000399  -0.000148  -0.001818
    18  C   -0.004586  -0.004309   0.004812  -0.030896
    19  C    0.377207   0.373004   0.377331   0.015163
    20  O   -0.000905   0.001846   0.000323   0.245317
    21  H   -0.000000   0.000000  -0.000000   0.000000
    22  H    0.000001   0.000001   0.000025   0.000000
    23  H    0.000000   0.000000  -0.000000   0.000000
    24  H    0.000000  -0.000000  -0.000001   0.000000
    25  H    0.000000   0.000000   0.000000  -0.000000
    26  H    0.000000  -0.000000   0.000000   0.000000
    27  H   -0.000000   0.000000  -0.000000   0.000000
    28  H    0.000000   0.000000  -0.000005   0.000000
    29  H    0.000000   0.000000   0.000000  -0.000000
    30  H    0.000000  -0.000000   0.000002  -0.000000
    31  H    0.000070  -0.000027   0.004561  -0.000003
    32  H    0.000002   0.000002  -0.000016  -0.000000
    33  H   -0.000091  -0.000119   0.000037   0.000004
    34  H   -0.000140   0.000084  -0.000112   0.000020
    35  H   -0.000028   0.005933  -0.000097   0.000065
    36  H    0.000015   0.000643   0.000897  -0.000004
    37  H   -0.000001  -0.000052   0.000032   0.000000
    38  H    0.000023   0.000001  -0.000023   0.000002
    39  H   -0.000297   0.000046   0.000296  -0.000055
    40  H   -0.000072  -0.000004   0.000001  -0.000240
    41  H    0.001603  -0.000043  -0.000005   0.003268
    42  H    0.000131  -0.000181  -0.000100   0.007179
    43  H    0.541365  -0.029564  -0.024978   0.002590
    44  H   -0.029564   0.535604  -0.025671   0.002097
    45  H   -0.024978  -0.025671   0.522209  -0.000132
    46  H    0.002590   0.002097  -0.000132   0.367097
 Mulliken charges:
               1
     1  C    0.459019
     2  O   -0.502349
     3  C   -0.281640
     4  C    0.174029
     5  C   -0.179936
     6  C   -0.335340
     7  C   -0.404606
     8  C   -0.384059
     9  C   -0.308437
    10  C   -0.132163
    11  C   -0.118951
    12  C   -0.121207
    13  C    0.033152
    14  C   -0.305514
    15  C   -0.322152
    16  C   -0.325293
    17  C   -0.345610
    18  C    0.130008
    19  C   -0.564191
    20  O   -0.655661
    21  H    0.170342
    22  H    0.159519
    23  H    0.168682
    24  H    0.170015
    25  H    0.180685
    26  H    0.191650
    27  H    0.180434
    28  H    0.178924
    29  H    0.159165
    30  H    0.166275
    31  H    0.133440
    32  H    0.143098
    33  H    0.137546
    34  H    0.150255
    35  H    0.160911
    36  H    0.149006
    37  H    0.167180
    38  H    0.162822
    39  H    0.154253
    40  H    0.170797
    41  H    0.157742
    42  H    0.152090
    43  H    0.167224
    44  H    0.172300
    45  H    0.177695
    46  H    0.408854
 Sum of Mulliken charges =  -0.00000
 Mulliken charges with hydrogens summed into heavy atoms:
               1
     1  C    0.459019
     2  O   -0.502349
     3  C   -0.111299
     4  C    0.174029
     5  C   -0.020418
     6  C    0.003356
     7  C   -0.032271
     8  C   -0.024701
     9  C    0.017003
    10  C    0.001277
    11  C    0.024147
    12  C    0.016340
    13  C    0.033152
    14  C    0.005652
    15  C   -0.005967
    16  C   -0.008219
    17  C   -0.017071
    18  C    0.282098
    19  C   -0.046973
    20  O   -0.246808
 Electronic spatial extent (au):  <R**2>=           6838.1234
 Charge=             -0.0000 electrons
 Dipole moment (field-independent basis, Debye):
    X=             -3.4209    Y=              0.6511    Z=              2.2138  Tot=              4.1264
 Quadrupole moment (field-independent basis, Debye-Ang):
   XX=           -168.6327   YY=           -116.7997   ZZ=           -117.6259
   XY=             -4.2380   XZ=             -0.5053   YZ=             -2.4286
 Traceless Quadrupole moment (field-independent basis, Debye-Ang):
   XX=            -34.2800   YY=             17.5531   ZZ=             16.7269
   XY=             -4.2380   XZ=             -0.5053   YZ=             -2.4286
 Octapole moment (field-independent basis, Debye-Ang**2):
  XXX=           -190.3206  YYY=             -1.8745  ZZZ=             -3.0790  XYY=             15.1296
  XXY=             17.3316  XXZ=             67.3859  XZZ=             -9.8939  YZZ=             -2.8036
  YYZ=              1.7709  XYZ=             11.3957
 Hexadecapole moment (field-independent basis, Debye-Ang**3):
 XXXX=          -9242.6607 YYYY=          -1405.7130 ZZZZ=           -408.1076 XXXY=            -99.2342
 XXXZ=             -0.1324 YYYX=             25.2354 YYYZ=             -9.4633 ZZZX=              7.0102
 ZZZY=              3.0779 XXYY=          -1387.5578 XXZZ=          -1212.5187 YYZZ=           -305.3766
 XXYZ=            -68.6753 YYXZ=            -21.4150 ZZXY=              1.8692
 N-N= 1.671106211978D+03 E-N=-5.319314895865D+03  KE= 8.443861349618D+02

 **********************************************************************

            Electrostatic Properties Using The SCF Density.

 **********************************************************************

       Atomic Center    1 is at   4.677990 -0.153579 -0.142402
       Atomic Center    2 is at   5.858986 -0.092750 -0.489459
       Atomic Center    3 is at   3.807852  0.987151 -0.106641
       Atomic Center    4 is at   2.489655  0.914705  0.175301
       Atomic Center    5 is at   1.785288 -0.394941  0.381376
       Atomic Center    6 is at   2.631256 -1.567619 -0.121765
       Atomic Center    7 is at   4.078069 -1.446081  0.328619
       Atomic Center    8 is at   1.701362  2.157872  0.368543
       Atomic Center    9 is at   0.288589  2.090748 -0.201625
       Atomic Center   10 is at  -0.416474  0.812434  0.240610
       Atomic Center   11 is at   0.388565 -0.389616 -0.277950
       Atomic Center   12 is at  -1.830946  0.740874 -0.319266
       Atomic Center   13 is at  -2.556543 -0.570176  0.021192
       Atomic Center   14 is at  -1.772114 -1.727180 -0.587423
       Atomic Center   15 is at  -0.339077 -1.721473 -0.052357
       Atomic Center   16 is at  -2.836966  1.815670  0.095705
       Atomic Center   17 is at  -4.197427  1.201699 -0.282159
       Atomic Center   18 is at  -3.924557 -0.285516 -0.632957
       Atomic Center   19 is at  -2.747814 -0.806298  1.524832
       Atomic Center   20 is at  -4.972982 -1.151432 -0.278776
       Atomic Center   21 is at   4.271301  1.946871 -0.292291
       Atomic Center   22 is at   1.645272 -0.501322  1.466048
       Atomic Center   23 is at   2.592973 -1.593050 -1.215108
       Atomic Center   24 is at   2.228623 -2.509860  0.249738
       Atomic Center   25 is at   4.128103 -1.432943  1.421119
       Atomic Center   26 is at   4.680361 -2.285957 -0.019888
       Atomic Center   27 is at   2.235626  3.010815 -0.051337
       Atomic Center   28 is at   1.641606  2.330504  1.451453
       Atomic Center   29 is at   0.340119  2.115593 -1.293272
       Atomic Center   30 is at  -0.274354  2.964548  0.124380
       Atomic Center   31 is at  -0.440910  0.793596  1.333321
       Atomic Center   32 is at   0.521979 -0.262334 -1.359601
       Atomic Center   33 is at  -1.744807  0.773594 -1.413282
       Atomic Center   34 is at  -1.757663 -1.630183 -1.675203
       Atomic Center   35 is at  -2.246579 -2.680115 -0.345752
       Atomic Center   36 is at  -0.357233 -1.938005  1.015635
       Atomic Center   37 is at   0.206287 -2.523446 -0.550636
       Atomic Center   38 is at  -2.665769  2.763426 -0.411764
       Atomic Center   39 is at  -2.769049  1.998832  1.167578
       Atomic Center   40 is at  -4.645931  1.718008 -1.130407
       Atomic Center   41 is at  -4.910417  1.257066  0.541999
       Atomic Center   42 is at  -3.828662 -0.394282 -1.717910
       Atomic Center   43 is at  -3.502620 -0.143298  1.942351
       Atomic Center   44 is at  -3.045096 -1.840660  1.695012
       Atomic Center   45 is at  -1.827039 -0.634638  2.071693
       Atomic Center   46 is at  -4.924413 -1.301342  0.672215
 -----------------------------------------------------------------

              Electrostatic Properties (Atomic Units)

 -----------------------------------------------------------------
    Center     Electric         -------- Electric Field --------
               Potential          X             Y             Z
 -----------------------------------------------------------------
    1 Atom    -14.674197      0.001022     -0.003449     -0.000497
    2 Atom    -22.350722      0.102774      0.004898     -0.030523
    3 Atom    -14.749776     -0.008643      0.000414      0.001591
    4 Atom    -14.712745      0.011917     -0.000028     -0.002804
    5 Atom    -14.719974     -0.002100     -0.004065     -0.003103
    6 Atom    -14.732985     -0.000440     -0.000611      0.000516
    7 Atom    -14.743791      0.001943     -0.000869     -0.003014
    8 Atom    -14.728367     -0.001735      0.002742     -0.001324
    9 Atom    -14.734301     -0.002103     -0.002102      0.000389
   10 Atom    -14.731410     -0.000852      0.000151     -0.004125
   11 Atom    -14.727066     -0.002229      0.000317      0.002068
   12 Atom    -14.737532     -0.000315     -0.001294      0.004261
   13 Atom    -14.732036     -0.000539      0.000865     -0.005844
   14 Atom    -14.742834     -0.002073      0.002434      0.001572
   15 Atom    -14.738381     -0.000540      0.000386     -0.001515
   16 Atom    -14.741207      0.001154     -0.000447     -0.000960
   17 Atom    -14.747570     -0.001082     -0.002821     -0.000699
   18 Atom    -14.695000      0.018890      0.013204     -0.004930
   19 Atom    -14.737639      0.002002      0.000764     -0.003280
   20 Atom    -22.316218     -0.076389     -0.043930     -0.075757
   21 Atom     -1.108310      0.016997      0.032489     -0.006367
   22 Atom     -1.102973     -0.006127     -0.006097      0.033562
   23 Atom     -1.117144     -0.001742     -0.003077     -0.032534
   24 Atom     -1.117908     -0.013396     -0.028613      0.008516
   25 Atom     -1.106647      0.002478     -0.003662      0.034546
   26 Atom     -1.119525      0.021196     -0.021462     -0.010370
   27 Atom     -1.110770      0.016898      0.026166     -0.011188
   28 Atom     -1.102454     -0.002218      0.008222      0.031337
   29 Atom     -1.117140     -0.000483      0.003057     -0.033334
   30 Atom     -1.117649     -0.017939      0.027991      0.007968
   31 Atom     -1.115064     -0.002544     -0.000600      0.035187
   32 Atom     -1.117400      0.004604      0.004024     -0.033135
   33 Atom     -1.121406      0.002631      0.001072     -0.033306
   34 Atom     -1.123680     -0.001584      0.000772     -0.033891
   35 Atom     -1.125499     -0.015879     -0.029225      0.003441
   36 Atom     -1.119355      0.001784     -0.011563      0.033810
   37 Atom     -1.121856      0.017223     -0.025166     -0.011645
   38 Atom     -1.124474      0.005440      0.029889     -0.013924
   39 Atom     -1.122909      0.001936      0.007879      0.033575
   40 Atom     -1.127248     -0.016069      0.014992     -0.023677
   41 Atom     -1.123889     -0.023620      0.002313      0.022033
   42 Atom     -1.128619      0.003510     -0.003479     -0.031801
   43 Atom     -1.104696     -0.021708      0.021394      0.017824
   44 Atom     -1.105329     -0.007587     -0.031807      0.008768
   45 Atom     -1.106482      0.027533      0.004021      0.020436
   46 Atom     -0.999451     -0.001983     -0.009237      0.045125
 -----------------------------------------------------------------
 -----------------------------------------------------
    Center         ---- Electric Field Gradient ----
                     XX            YY            ZZ
 -----------------------------------------------------
    1 Atom     -493.383424   -493.283138   -493.956706
    2 Atom    -1217.076674  -1214.571182  -1217.503196
    3 Atom     -493.164826   -493.224992   -493.461769
    4 Atom     -493.204889   -493.281778   -493.821600
    5 Atom     -492.757666   -492.796702   -492.782788
    6 Atom     -492.645804   -492.609264   -492.603203
    7 Atom     -492.729185   -492.732495   -492.740917
    8 Atom     -492.594968   -492.632960   -492.612244
    9 Atom     -492.696905   -492.647454   -492.659446
   10 Atom     -492.788830   -492.804164   -492.806326
   11 Atom     -492.856312   -492.815046   -492.829525
   12 Atom     -492.925570   -492.939136   -492.928931
   13 Atom     -492.922759   -492.916419   -492.993583
   14 Atom     -492.730136   -492.699771   -492.711812
   15 Atom     -492.661968   -492.662271   -492.643100
   16 Atom     -492.671772   -492.624527   -492.615417
   17 Atom     -492.745576   -492.733685   -492.710093
   18 Atom     -492.907944   -492.851379   -492.672136
   19 Atom     -492.604522   -492.611568   -492.618018
   20 Atom    -1214.045787  -1213.561371  -1215.220913
   21 Atom       -1.698914     -1.981302     -1.613677
   22 Atom       -1.629538     -1.628372     -2.031725
   23 Atom       -1.626813     -1.621556     -2.054542
   24 Atom       -1.697421     -1.964513     -1.682279
   25 Atom       -1.607259     -1.607246     -2.044040
   26 Atom       -1.743110     -1.872968     -1.654147
   27 Atom       -1.735969     -1.896168     -1.687087
   28 Atom       -1.611138     -1.621488     -2.023976
   29 Atom       -1.630374     -1.628355     -2.062879
   30 Atom       -1.752776     -1.920148     -1.670373
   31 Atom       -1.645067     -1.643850     -2.076821
   32 Atom       -1.645241     -1.645313     -2.046404
   33 Atom       -1.653119     -1.644590     -2.060677
   34 Atom       -1.631855     -1.634613     -2.067062
   35 Atom       -1.712176     -1.966213     -1.651866
   36 Atom       -1.636987     -1.652523     -2.063639
   37 Atom       -1.748787     -1.874443     -1.723218
   38 Atom       -1.644134     -1.973947     -1.730584
   39 Atom       -1.635512     -1.644829     -2.067865
   40 Atom       -1.703237     -1.729522     -1.901149
   41 Atom       -1.809634     -1.624799     -1.880136
   42 Atom       -1.678631     -1.673682     -2.085303
   43 Atom       -1.835737     -1.781666     -1.683488
   44 Atom       -1.646751     -2.015034     -1.622227
   45 Atom       -1.947200     -1.620480     -1.730151
   46 Atom       -1.453982     -1.453774     -2.108923
 -----------------------------------------------------
 -----------------------------------------------------
    Center         ---- Electric Field Gradient ----
                     XY            XZ            YZ
 -----------------------------------------------------
    1 Atom       -0.047581     -0.170368     -0.141017
    2 Atom       -0.256324     -0.088470     -0.534975
    3 Atom       -0.010734     -0.065711     -0.025335
    4 Atom       -0.002998     -0.122704     -0.009356
    5 Atom       -0.018394     -0.011864     -0.002780
    6 Atom        0.021815     -0.002872     -0.025933
    7 Atom       -0.008495     -0.038267      0.001867
    8 Atom        0.023086     -0.021802     -0.010000
    9 Atom       -0.008101     -0.018773      0.020411
   10 Atom       -0.002213      0.006414     -0.001318
   11 Atom       -0.006888     -0.019868     -0.009833
   12 Atom        0.010801     -0.007883      0.006346
   13 Atom        0.000213      0.014986      0.016135
   14 Atom        0.003908     -0.011576     -0.018975
   15 Atom       -0.021960     -0.006199      0.015565
   16 Atom       -0.001290     -0.003914     -0.015497
   17 Atom       -0.016400     -0.007981     -0.027204
   18 Atom       -0.179266      0.099422      0.095784
   19 Atom       -0.000495      0.011741      0.008911
   20 Atom       -1.221608      0.345281      0.813137
   21 Atom       -0.170020      0.036193      0.070559
   22 Atom       -0.005037      0.055567      0.041776
   23 Atom        0.001823     -0.016443     -0.010964
   24 Atom       -0.141624      0.055958      0.130367
   25 Atom       -0.002167     -0.018167     -0.003687
   26 Atom        0.186633      0.076534     -0.110073
   27 Atom       -0.167007      0.084039      0.134072
   28 Atom        0.006570      0.024483     -0.066485
   29 Atom       -0.002851      0.018916      0.009304
   30 Atom        0.183900      0.068174     -0.108133
   31 Atom       -0.001987      0.010582      0.009601
   32 Atom       -0.005914      0.050213      0.049160
   33 Atom       -0.001665      0.032451      0.011674
   34 Atom        0.001936      0.005728      0.040094
   35 Atom       -0.166575      0.044175      0.085199
   36 Atom       -0.003368      0.005829      0.086926
   37 Atom        0.162786      0.100808     -0.148588
   38 Atom       -0.062727      0.032453      0.183585
   39 Atom       -0.004916     -0.026480     -0.073356
   40 Atom        0.086096     -0.143721      0.165205
   41 Atom        0.014136      0.219840     -0.015299
   42 Atom       -0.002541      0.042931     -0.037824
   43 Atom        0.192597      0.119764     -0.105759
   44 Atom       -0.118239      0.019751      0.066981
   45 Atom       -0.062758     -0.197561     -0.036312
   46 Atom       -0.022623     -0.033079      0.108893
 -----------------------------------------------------
 -----------------------------------------------------
    Center         ---- Electric Field Gradient ----
                   ----       Eigenvalues       ----
 -----------------------------------------------------
    1 Atom     -494.032961   -493.337447   -493.252860
    2 Atom    -1217.630155  -1217.065750  -1214.455147
    3 Atom     -493.478538   -493.222498   -493.150551
    4 Atom     -493.845286   -493.281624   -493.181358
    5 Atom     -492.806241   -492.783452   -492.747463
    6 Atom     -492.657582   -492.624752   -492.575937
    7 Atom     -492.774179   -492.733646   -492.694772
    8 Atom     -492.643864   -492.625969   -492.570339
    9 Atom     -492.704696   -492.671612   -492.627497
   10 Atom     -492.808504   -492.804441   -492.786375
   11 Atom     -492.869024   -492.822059   -492.809800
   12 Atom     -492.949482   -492.926397   -492.917759
   13 Atom     -492.999618   -492.921170   -492.911974
   14 Atom     -492.736628   -492.721410   -492.683680
   15 Atom     -492.685286   -492.656212   -492.625842
   16 Atom     -492.672170   -492.635809   -492.603737
   17 Atom     -492.766922   -492.730307   -492.692124
   18 Atom     -493.105033   -492.699030   -492.627395
   19 Atom     -492.628642   -492.609003   -492.596463
   20 Atom    -1215.950294  -1214.386847  -1212.490930
   21 Atom       -2.074735     -1.619491     -1.599668
   22 Atom       -2.043526     -1.624277     -1.621833
   23 Atom       -2.055447     -1.627053     -1.620412
   24 Atom       -2.076659     -1.636322     -1.631232
   25 Atom       -2.044827     -1.608903     -1.604816
   26 Atom       -2.050937     -1.611186     -1.608101
   27 Atom       -2.067167     -1.630854     -1.621204
   28 Atom       -2.036170     -1.612871     -1.607561
   29 Atom       -2.063909     -1.631390     -1.626310
   30 Atom       -2.078539     -1.634713     -1.630046
   31 Atom       -2.077295     -1.646068     -1.642375
   32 Atom       -2.058526     -1.639434     -1.638997
   33 Atom       -2.063576     -1.650637     -1.644174
   34 Atom       -2.070818     -1.633846     -1.628867
   35 Atom       -2.070658     -1.631547     -1.628050
   36 Atom       -2.081355     -1.638261     -1.633534
   37 Atom       -2.077186     -1.637256     -1.632006
   38 Atom       -2.083856     -1.633540     -1.631270
   39 Atom       -2.081849     -1.634017     -1.632341
   40 Atom       -2.076661     -1.629711     -1.627536
   41 Atom       -2.068509     -1.624180     -1.621880
   42 Atom       -2.093114     -1.678954     -1.665548
   43 Atom       -2.069344     -1.617703     -1.613844
   44 Atom       -2.060845     -1.612067     -1.611100
   45 Atom       -2.075631     -1.613378     -1.608822
   46 Atom       -2.127801     -1.473250     -1.415628
 -----------------------------------------------------
 -----------------------------------------------------
    Center         ---- Electric Field Gradient ----
                       ( tensor representation )
                   3XX-RR        3YY-RR        3ZZ-RR
 -----------------------------------------------------
    1 Atom        0.157665      0.257951     -0.415616
    2 Atom       -0.692990      1.812502     -1.119512
    3 Atom        0.119036      0.058870     -0.177906
    4 Atom        0.231200      0.154311     -0.385511
    5 Atom        0.021386     -0.017650     -0.003736
    6 Atom       -0.026380      0.010160      0.016220
    7 Atom        0.005013      0.001704     -0.006718
    8 Atom        0.018423     -0.019569      0.001146
    9 Atom       -0.028970      0.020481      0.008489
   10 Atom        0.010944     -0.004391     -0.006553
   11 Atom       -0.022685      0.018581      0.004103
   12 Atom        0.005642     -0.007924      0.002282
   13 Atom        0.021495      0.027834     -0.049329
   14 Atom       -0.016229      0.014135      0.002095
   15 Atom       -0.006188     -0.006491      0.012680
   16 Atom       -0.034533      0.012712      0.021822
   17 Atom       -0.015791     -0.003900      0.019691
   18 Atom       -0.097458     -0.040892      0.138350
   19 Atom        0.006848     -0.000199     -0.006649
   20 Atom        0.230237      0.714653     -0.944889
   21 Atom        0.065717     -0.216671      0.150954
   22 Atom        0.133674      0.134839     -0.268514
   23 Atom        0.140824      0.146082     -0.286905
   24 Atom        0.083983     -0.183109      0.099126
   25 Atom        0.145589      0.145602     -0.291191
   26 Atom        0.013632     -0.116226      0.102594
   27 Atom        0.037106     -0.123093      0.085988
   28 Atom        0.141063      0.130713     -0.271775
   29 Atom        0.143496      0.145514     -0.289010
   30 Atom        0.028323     -0.139049      0.110726
   31 Atom        0.143512      0.144729     -0.288242
   32 Atom        0.133745      0.133673     -0.267418
   33 Atom        0.133010      0.141539     -0.274548
   34 Atom        0.145988      0.143230     -0.289219
   35 Atom        0.064575     -0.189461      0.124886
   36 Atom        0.147396      0.131860     -0.279256
   37 Atom        0.033363     -0.092294      0.058931
   38 Atom        0.138755     -0.191059      0.052304
   39 Atom        0.147223      0.137906     -0.285130
   40 Atom        0.074733      0.048447     -0.123180
   41 Atom       -0.038111      0.146724     -0.108613
   42 Atom        0.133908      0.138856     -0.272765
   43 Atom       -0.068773     -0.014703      0.083476
   44 Atom        0.114586     -0.253697      0.139110
   45 Atom       -0.181256      0.145464      0.035792
   46 Atom        0.218244      0.218452     -0.436696
 -----------------------------------------------------
 -----------------------------------------------------
    Center         ---- Electric Field Gradient ----
                       ( tensor representation )
                   ----       Eigenvalues       ----
 -----------------------------------------------------
    1 Atom       -0.491872      0.203643      0.288229
    2 Atom       -1.246471     -0.682066      1.928537
    3 Atom       -0.194676      0.061364      0.133311
    4 Atom       -0.409196      0.154465      0.254731
    5 Atom       -0.027189     -0.004400      0.031589
    6 Atom       -0.038159     -0.005328      0.043487
    7 Atom       -0.039980      0.000553      0.039427
    8 Atom       -0.030473     -0.012579      0.043051
    9 Atom       -0.036761     -0.003677      0.040438
   10 Atom       -0.008731     -0.004668      0.013398
   11 Atom       -0.035396      0.011569      0.023827
   12 Atom       -0.018269      0.004816      0.013454
   13 Atom       -0.055364      0.023084      0.032280
   14 Atom       -0.022722     -0.007504      0.030226
   15 Atom       -0.029506     -0.000432      0.029938
   16 Atom       -0.034931      0.001430      0.033502
   17 Atom       -0.037138     -0.000522      0.037660
   18 Atom       -0.294547      0.111456      0.183091
   19 Atom       -0.017273      0.002366      0.014906
   20 Atom       -1.674271     -0.110823      1.785094
   21 Atom       -0.310103      0.145140      0.164963
   22 Atom       -0.280314      0.138935      0.141379
   23 Atom       -0.287810      0.140584      0.147225
   24 Atom       -0.295255      0.145083      0.150172
   25 Atom       -0.291978      0.143946      0.148032
   26 Atom       -0.294195      0.145555      0.148640
   27 Atom       -0.294092      0.142221      0.151871
   28 Atom       -0.283969      0.139330      0.144640
   29 Atom       -0.290039      0.142480      0.147559
   30 Atom       -0.297440      0.146386      0.151054
   31 Atom       -0.288716      0.142511      0.146205
   32 Atom       -0.279541      0.139552      0.139989
   33 Atom       -0.277447      0.135492      0.141955
   34 Atom       -0.292974      0.143997      0.148977
   35 Atom       -0.293906      0.145204      0.148702
   36 Atom       -0.296971      0.146123      0.150849
   37 Atom       -0.295037      0.144894      0.150143
   38 Atom       -0.300968      0.149349      0.151619
   39 Atom       -0.299114      0.148719      0.150395
   40 Atom       -0.298692      0.148259      0.150433
   41 Atom       -0.296986      0.147343      0.149643
   42 Atom       -0.280575      0.133584      0.146991
   43 Atom       -0.302380      0.149261      0.153120
   44 Atom       -0.299508      0.149271      0.150237
   45 Atom       -0.309687      0.152565      0.157122
   46 Atom       -0.455575      0.198977      0.256598
 -----------------------------------------------------
 Unable to Open any file for archive entry.
 1\1\GINC-EXP-3-51\SP\RwB97XD\6-31G(d)\C18H26O2\HKLEM\12-Aug-2024\0\\# 
 wb97xd 6-31G(d) prop=efg\\19nt_xstal_distance_cutoff5_xtb_ligand_conf_
 1\\0,1\C,0,43.9058,42.2593,31.4672\O,0,43.9687,41.2508,32.1728\C,0,43.
 5774,43.5593,31.9789\C,0,43.6034,44.6853,31.2347\C,0,44.0811,44.6941,2
 9.8115\C,0,44.8453,43.4115,29.4725\C,0,44.1197,42.1775,29.984\C,0,43.0
 772,45.9569,31.7918\C,0,43.8816,47.1889,31.391\C,0,44.1354,47.2074,29.
 887\C,0,44.933,45.9477,29.5143\C,0,44.9327,48.4386,29.4774\C,0,45.2947
 ,48.4624,27.9842\C,0,46.1586,47.244,27.6783\C,0,45.4066,45.9663,28.055
 \C,0,44.3172,49.8193,29.7104\C,0,45.1605,50.746,28.8156\C,0,46.0237,49
 .8205,27.9169\C,0,44.0804,48.4867,27.0471\O,0,46.2546,50.3368,26.6306\
 H,0,43.2683,43.6003,33.0148\H,0,43.1797,44.7432,29.185\H,0,45.8414,43.
 459,29.9231\H,0,44.9695,43.3205,28.3935\H,0,43.1271,42.1139,29.5291\H,
 0,44.6571,41.2618,29.7344\H,0,43.0075,45.891,32.8781\H,0,42.0495,46.06
 49,31.42\H,0,44.8389,47.1803,31.9187\H,0,43.3432,48.0861,31.6941\H,0,4
 3.1696,47.1948,29.3751\H,0,45.8245,45.9141,30.1531\H,0,45.8824,48.4031
 ,30.0271\H,0,47.0903,47.3017,28.2453\H,0,46.4169,47.2146,26.6181\H,0,4
 4.5416,45.8567,27.4011\H,0,46.0735,45.1221,27.8777\H,0,44.3562,50.1208
 ,30.7557\H,0,43.271,49.8195,29.4062\H,0,45.7959,51.4029,29.4089\H,0,44
 .5352,51.3834,28.1884\H,0,47.0206,49.7103,28.3553\H,0,43.5815,49.4534,
 27.0617\H,0,44.4021,48.2643,26.0301\H,0,43.3476,47.7392,27.331\H,0,45.
 4548,50.2019,26.1097\\Version=ES64L-G16RevC.01\State=1-A\HF=-851.79249
 89\RMSD=4.400e-09\Dipole=-0.6287333,1.2897202,-0.759538\Quadrupole=9.2
 684174,-14.4976118,5.2291945,-6.868433,4.9279822,16.3527703\PG=C01 [X(
 C18H26O2)]\\@
 The archive entry for this job was punched.


 NEVER LISTEN TO CRITICISM
 OR YOU'LL BE DOIN' EVERYBODY ELSE'S THING BUT BUT YOUR OWN.

                                               -- ANDY CAPP
 Job cpu time:       0 days  0 hours 10 minutes 20.9 seconds.
 Elapsed time:       0 days  0 hours  0 minutes 26.3 seconds.
 File lengths (MBytes):  RWF=     71 Int=      0 D2E=      0 Chk=      8 Scr=      1
 Normal termination of Gaussian 16 at Mon Aug 12 07:19:57 2024.
