 Entering Gaussian System, Link 0=g16
 Initial command:
 /cm/shared/apps/spack/cpu/opt/spack/linux-centos8-zen/gcc-8.3.1/gaussian-16.C.01-po5bqktfeugvmjyga3v7eigbecnokxng/g16/l1.exe "/scratch/hklem/job_32333381/Gau-1002721.inp" -scrdir="/scratch/hklem/job_32333381/"
 Entering Link 1 = /cm/shared/apps/spack/cpu/opt/spack/linux-centos8-zen/gcc-8.3.1/gaussian-16.C.01-po5bqktfeugvmjyga3v7eigbecnokxng/g16/l1.exe PID=   1002725.
  
 Copyright (c) 1988-2019, Gaussian, Inc.  All Rights Reserved.
  
 This is part of the Gaussian(R) 16 program.  It is based on
 the Gaussian(R) 09 system (copyright 2009, Gaussian, Inc.),
 the Gaussian(R) 03 system (copyright 2003, Gaussian, Inc.),
 the Gaussian(R) 98 system (copyright 1998, Gaussian, Inc.),
 the Gaussian(R) 94 system (copyright 1995, Gaussian, Inc.),
 the Gaussian 92(TM) system (copyright 1992, Gaussian, Inc.),
 the Gaussian 90(TM) system (copyright 1990, Gaussian, Inc.),
 the Gaussian 88(TM) system (copyright 1988, Gaussian, Inc.),
 the Gaussian 86(TM) system (copyright 1986, Carnegie Mellon
 University), and the Gaussian 82(TM) system (copyright 1983,
 Carnegie Mellon University). Gaussian is a federally registered
 trademark of Gaussian, Inc.
  
 This software contains proprietary and confidential information,
 including trade secrets, belonging to Gaussian, Inc.
  
 This software is provided under written license and may be
 used, copied, transmitted, or stored only in accord with that
 written license.
  
 The following legend is applicable only to US Government
 contracts under FAR:
  
                    RESTRICTED RIGHTS LEGEND
  
 Use, reproduction and disclosure by the US Government is
 subject to restrictions as set forth in subparagraphs (a)
 and (c) of the Commercial Computer Software - Restricted
 Rights clause in FAR 52.227-19.
  
 Gaussian, Inc.
 340 Quinnipiac St., Bldg. 40, Wallingford CT 06492
  
  
 ---------------------------------------------------------------
 Warning -- This program may not be used in any manner that
 competes with the business of Gaussian, Inc. or will provide
 assistance to any competitor of Gaussian, Inc.  The licensee
 of this program is prohibited from giving any competitor of
 Gaussian, Inc. access to this program.  By using this program,
 the user acknowledges that Gaussian, Inc. is engaged in the
 business of creating and licensing software in the field of
 computational chemistry and represents and warrants to the
 licensee that it is not a competitor of Gaussian, Inc. and that
 it will not use this program in any manner prohibited above.
 ---------------------------------------------------------------
  

 Cite this work as:
 Gaussian 16, Revision C.01,
 M. J. Frisch, G. W. Trucks, H. B. Schlegel, G. E. Scuseria, 
 M. A. Robb, J. R. Cheeseman, G. Scalmani, V. Barone, 
 G. A. Petersson, H. Nakatsuji, X. Li, M. Caricato, A. V. Marenich, 
 J. Bloino, B. G. Janesko, R. Gomperts, B. Mennucci, H. P. Hratchian, 
 J. V. Ortiz, A. F. Izmaylov, J. L. Sonnenberg, D. Williams-Young, 
 F. Ding, F. Lipparini, F. Egidi, J. Goings, B. Peng, A. Petrone, 
 T. Henderson, D. Ranasinghe, V. G. Zakrzewski, J. Gao, N. Rega, 
 G. Zheng, W. Liang, M. Hada, M. Ehara, K. Toyota, R. Fukuda, 
 J. Hasegawa, M. Ishida, T. Nakajima, Y. Honda, O. Kitao, H. Nakai, 
 T. Vreven, K. Throssell, J. A. Montgomery, Jr., J. E. Peralta, 
 F. Ogliaro, M. J. Bearpark, J. J. Heyd, E. N. Brothers, K. N. Kudin, 
 V. N. Staroverov, T. A. Keith, R. Kobayashi, J. Normand, 
 K. Raghavachari, A. P. Rendell, J. C. Burant, S. S. Iyengar, 
 J. Tomasi, M. Cossi, J. M. Millam, M. Klene, C. Adamo, R. Cammi, 
 J. W. Ochterski, R. L. Martin, K. Morokuma, O. Farkas, 
 J. B. Foresman, and D. J. Fox, Gaussian, Inc., Wallingford CT, 2019.
 
 ******************************************
 Gaussian 16:  ES64L-G16RevC.01  3-Jul-2019
                16-Jul-2024 
 ******************************************
 %nprocshared=32
 Will use up to   32 processors via shared memory.
 %mem=64GB
 --------------------------
 # 6-31G(d) wb97xd prop=efg
 --------------------------
 1/38=1,172=1/1;
 2/12=2,17=6,18=5,40=1/2;
 3/5=1,6=6,7=1,11=2,25=1,30=1,74=-58/1,2,3;
 4//1;
 5/5=2,38=5/2;
 6/7=2,8=2,9=2,10=2,14=1,28=1/1,2;
 99/5=1,9=1/99;
 ---------------------------
 19nt_xstal_distance_cutoff3
 ---------------------------
 Symbolic Z-matrix:
 Charge = -1 Multiplicity = 1
 H                    0     2.89124   9.09516   5.00127 
 C                    -1    2.0803    9.09298   4.26645 
 H                    0     1.94769   10.12112   3.91145 
 C                    0     2.41183   8.14126   3.11733 
 H                    0     3.36465   8.44619   2.66526 
 H                    0     2.58809   7.13765   3.52518 
 C                    0     1.36687   8.03658   2.02232 
 C                    0     0.17156   8.75095   2.04402 
 H                    0    -0.04602   9.42896   2.86366 
 C                    0    -0.77895   8.61081   1.03365 
 H                    0    -1.71262   9.16707   1.08663 
 C                    0    -0.54328   7.74165  -0.02481 
 O                    0    -1.45061   7.52615  -1.02212 
 H                    0    -2.26108   8.00914  -0.82113 
 C                    0     0.65877   7.03671  -0.08166 
 H                    0     0.83686   6.3624   -0.91237 
 C                    0     1.59094   7.18072   0.93455 
 H                    0     2.50687   6.59468   0.8871 
 H                    0     1.16263   8.79143   4.7835 
 H                    0    -2.80989   7.3232    2.7746 
 C                    -1   -3.24924   6.479     2.23235 
 H                    0    -3.03997   6.62167   1.16399 
 C                    -1   -2.66103   5.14728   2.70641 
 H                    0    -2.89464   5.03407   3.77468 
 C                    0    -3.29494   3.97497   1.9543 
 H                    0    -3.08595   4.05648   0.88 
 H                    0    -2.89397   3.01509   2.29982 
 H                    0    -4.38387   3.95013   2.0792 
 C                    0    -1.1402    5.13724   2.54345 
 H                    0    -0.67097   5.97096   3.07751 
 H                    0    -0.70526   4.20176   2.91313 
 H                    0    -0.8705    5.23838   1.486 
 H                    0    -4.33704   6.5056    2.36985 
 H                    0     6.31094  -2.12544  -6.00634 
 C                    -1    5.29286  -1.74577  -5.8657 
 H                    0     4.59563  -2.46158  -6.31597 
 C                    0     4.98112  -1.53718  -4.38361 
 H                    0     5.05961  -2.48523  -3.83968 
 H                    0     5.71674  -0.84104  -3.96309 
 C                    -1    3.58593  -0.93071  -4.18364 
 O                    0     2.72032  -1.64381  -3.57769 
 O                    0     3.38897   0.21441  -4.64157 
 H                    0     5.19832  -0.79587  -6.39999 
 H                    0    -5.21602   2.07058  -6.82649 
 C                    -1   -5.12953   1.36757  -5.99334 
 H                    0    -5.43611   0.3731   -6.32441 
 H                    0    -4.07802   1.3016   -5.69408 
 C                    0    -5.95301   1.75368  -4.7861 
 O                    0    -6.17187   0.96789  -3.86908 
 N                    0    -6.41294   3.0313   -4.78745 
 H                    0    -6.15467   3.62897  -5.55746 
 C                    -1   -7.15449   3.61922  -3.69111 
 H                    0    -7.31662   2.81889  -2.96613 
 C                    -1   -6.43789   4.8118   -3.04865 
 H                    0    -6.38131   5.63407  -3.77759 
 H                    0    -7.07388   5.17467  -2.22853 
 C                    0    -5.03019   4.52611  -2.50556 
 H                    0    -4.39149   4.243    -3.35377 
 C                    0    -4.43968   5.78972  -1.87208 
 H                    0    -5.01086   6.07426  -0.97823 
 H                    0    -3.39925   5.63155  -1.56864 
 H                    0    -4.45954   6.63545  -2.57081 
 C                    0    -5.02644   3.36798  -1.50818 
 H                    0    -5.30525   2.4242   -1.98455 
 H                    0    -4.03181   3.23315  -1.07284 
 H                    0    -5.72802   3.55811  -0.68492 
 H                    0    -8.14126   3.93731  -4.05095 
 H                    0    -9.85259   0.64613   0.8968 
 C                    -1   -8.92007   0.67869   1.47269 
 H                    0    -8.68388  -0.3439    1.79462 
 C                    0    -7.76917   1.25041   0.63543 
 H                    0    -8.03645   2.28048   0.35346 
 C                    0    -6.4734    1.30007   1.4509 
 H                    -1   -6.17037   0.28722   1.74455 
 H                    0    -5.65034   1.73215   0.87084 
 H                    0    -6.59529   1.89609   2.36374 
 C                    0    -7.56866   0.44249  -0.64781 
 H                    -1   -8.50741   0.32823  -1.20325 
 H                    0    -6.84411   0.90882  -1.32153 
 H                    0    -7.18716  -0.55912  -0.42344 
 H                    0    -9.096     1.27908   2.37329 
 H                    0     3.13392  -1.52869   7.83181 
 C                    -1    2.04376  -1.59013   7.91441 
 H                    0     1.79339  -1.79792   8.96089 
 C                    0     1.38272  -0.29441   7.43199 
 H                    0     0.29607  -0.36951   7.55757 
 H                    0     1.71366   0.53728   8.06787 
 C                    0     1.70769   0.00823   5.98747 
 C                    0     0.73393  -0.06288   4.99109 
 H                    0    -0.29007  -0.31352   5.26137 
 C                    0     1.05758   0.18312   3.65738 
 H                    0     0.28776   0.11282   2.89201 
 C                    0     2.36424   0.50357   3.30626 
 H                    0     2.63038   0.69554   2.27316 
 C                    0     3.34658   0.57781   4.29175 
 H                    0     4.36296   0.82176   4.00124 
 C                    -1    3.01686   0.33359   5.61865 
 H                    0     3.78678   0.39549   6.38587 
 H                    0     1.71488  -2.4391    7.30581 
 H                    0    -3.21796  -2.17278   5.28486 
 C                    -1   -3.7055   -2.51387   4.3619 
 H                    0    -4.76762  -2.24828   4.42416 
 C                    0    -3.0417   -1.87665   3.1354 
 H                    -1   -3.60174  -2.19073   2.24338 
 C                    0    -3.10234  -0.34903   3.209 
 H                    0    -2.5587    0.02066   4.08906 
 H                    0    -2.64788   0.1068    2.32195 
 H                    0    -4.13663   0.00793   3.27445 
 C                    0    -1.60257  -2.36577   2.98245 
 H                    0    -1.56776  -3.45658   2.90308 
 H                    0    -1.13428  -1.95585   2.08117 
 H                    0    -0.98478  -2.07337   3.84035 
 H                    0    -3.62189  -3.60706   4.33347 
 H                    0    -8.92966  -3.85843   2.21319 
 C                    -1   -9.34659  -4.15704   1.24554 
 H                    0    -10.4372  -4.08004   1.3109 
 C                    0    -8.79871  -3.27462   0.1265 
 H                    0    -9.26559  -3.55128  -0.82839 
 H                    0    -9.07326  -2.22938   0.31339 
 C                    0    -7.28412  -3.36341  -0.0581 
 H                    -1   -6.98224  -4.38801  -0.30503 
 H                    0    -6.9583   -2.73006  -0.88946 
 S                    0    -6.32347  -2.85542   1.41604 
 C                    0    -5.86693  -4.48      2.08326 
 H                    0    -5.23662  -5.02642   1.37535 
 H                    0    -5.29525  -4.30907   2.99758 
 H                    0    -6.75023  -5.07699   2.32644 
 H                    0    -9.09424  -5.21126   1.07552 
 H                    0    -3.09071  -7.81475   3.38146 
 C                    -1   -2.07092  -7.42782   3.27684 
 H                    0    -1.3914   -8.28627   3.25402 
 C                    0    -1.9352   -6.56782   2.01994 
 H                    0    -2.12195  -7.18732   1.13081 
 H                    0    -2.7196   -5.79735   2.02546 
 C                    -1   -0.57775  -5.86926   1.85139 
 H                    0    -0.43793  -5.20009   2.71371 
 C                    0     0.59627  -6.84924   1.84501 
 H                    0     0.46592  -7.60292   1.0595 
 H                    0     1.52903  -6.31428   1.63728 
 H                    0     0.70819  -7.36549   2.80514 
 C                    0    -0.57866  -5.02161   0.57826 
 H                    0    -1.38656  -4.27991   0.59434 
 H                    -1    0.36683  -4.4863    0.45323 
 H                    0    -0.70994  -5.65371  -0.30797 
 H                    0    -1.83995  -6.84439   4.17682 
 H                    0     2.74594  -5.05442   4.08951 
 C                    -1    3.63726  -4.59334   3.647 
 H                    0     3.92951  -5.19944   2.78187 
 C                    0     3.35788  -3.1482    3.21878 
 H                    0     3.07655  -2.56742   4.10881 
 C                    0     4.60921  -2.5053    2.61516 
 H                    0     4.91121  -3.04107   1.7049 
 H                    0     4.43244  -1.45642   2.35139 
 H                    0     5.45124  -2.53497   3.31802 
 C                    0     2.19354  -3.08789   2.22961 
 H                    0     1.28365  -3.52974   2.65387 
 H                    0     1.96606  -2.05071   1.96332 
 H                    -1    2.43714  -3.63162   1.30666 
 H                    0     4.44832  -4.64303   4.38371 
 H                    0     7.57265   0.82759   3.40222 
 C                    -1    7.79596   0.29397   2.47352 
 H                    0     7.14035  -0.58061   2.4333 
 C                    0     7.57331   1.18483   1.26428 
 H                    0     8.22811   2.06361   1.27544 
 H                    0     7.81015   0.6456    0.33982 
 C                    0     6.14396   1.66515   1.15271 
 O                    0     5.24467   1.28102   1.87498 
 O                    0     5.98177   2.54178   0.1723 
 H                    0     5.02765   2.86236   0.16931 
 H                    0     8.83424  -0.05077   2.51338 
 H                    0     9.66577   5.14656  -2.30883 
 C                    -1    9.56792   4.12045  -2.67929 
 H                    0     10.55226   3.64088  -2.61109 
 C                    0     8.52518   3.34296  -1.87765 
 H                    0     8.82792   3.30462  -0.82253 
 H                    -1    7.56231   3.86504  -1.88973 
 C                    0     8.32066   1.90257  -2.35065 
 H                    0     9.28599   1.39029  -2.44309 
 H                    0     7.72808   1.35469  -1.6133 
 S                    0     7.49435   1.68069  -3.96067 
 C                    0     5.79986   2.19026  -3.53116 
 H                    0     5.6628    3.26752  -3.65573 
 H                    0     5.09632   1.64368  -4.16866 
 H                    0     5.58778   1.92555  -2.4913 
 H                    0     9.28958   4.16358  -3.73776 
 H                    0     7.24822  -1.5381   -2.36794 
 C                    -1    6.94145  -1.76438  -1.34213 
 H                    0     7.76534  -1.48213  -0.67533 
 C                    0     5.65564  -1.02175  -0.97999 
 H                    -1    4.81305  -1.34494  -1.60039 
 H                    0     5.38065  -1.17529   0.06963 
 H                    0     5.76792   0.05652  -1.13863 
 H                    0     6.81441  -2.85003  -1.26349 
 H                    0     5.72784  -7.45121  -1.03801 
 C                    -1    4.98772  -7.72714  -0.27937 
 H                    0     5.49055  -8.31217   0.49925 
 C                    0     4.32924  -6.47351   0.31344 
 H                    0     3.6401   -6.78873   1.10915 
 H                    0     5.09734  -5.861     0.80257 
 C                    0     3.59744  -5.62922  -0.68881 
 C                    0     3.91138  -4.35123  -1.08445 
 H                    0     4.72258  -3.71779  -0.74967 
 N                    0     3.02218  -3.89262  -2.02045 
 H                    0     3.04681  -3.00151  -2.55158 
 C                    -1    2.10329  -4.87797  -2.25646 
 C                    0     0.99981  -4.87255  -3.11558 
 H                    0     0.78106  -3.99675  -3.71898 
 C                    0     0.21633  -6.01265  -3.15783 
 H                    0    -0.65314  -6.03845  -3.80901 
 C                    0     0.52681  -7.14033  -2.3701 
 H                    0    -0.10645  -8.02163  -2.43061 
 C                    0     1.61954  -7.13867  -1.51977 
 H                    0     1.84473  -8.01228  -0.91311 
 C                    0     2.42696  -5.99233  -1.44304 
 H                    0     4.24542  -8.36993  -0.76366 
 C                    0     2.53004   2.81804   0.04804 
 O                    0     3.53689   3.52566   0.17748 
 C                    0     2.58316   1.38003  -0.12392 
 C                    0     1.49422   0.63453  -0.43283 
 C                    0     0.12605   1.2718   -0.56631 
 C                    0     0.03625   2.52283   0.3097 
 C                    -1    1.17658   3.48257   0.00732 
 C                    0     1.67135  -0.81052  -0.79315 
 C                    0     0.42793  -1.69526  -0.68387 
 C                    0    -0.80299  -0.96417  -1.21762 
 C                    0    -1.03325   0.28293  -0.33297 
 C                    0    -2.05434  -1.82641  -1.29797 
 C                    0    -3.29169  -1.02149  -1.74148 
 C                    0    -3.57916   0.03241  -0.67947 
 C                    0    -2.38975   0.98656  -0.54156 
 C                    0    -2.0522   -3.03773  -2.24522 
 C                    0    -3.55631  -3.30705  -2.52323 
 C                    0    -4.32792  -2.15137  -1.83345 
 C                    0    -3.1072   -0.36375  -3.12599 
 O                    0    -5.56801  -1.83682  -2.44548 
 H                    -1    3.56124   0.9118   -0.05428 
 H                    0     0.06269   1.56688  -1.62836 
 H                    0     0.06944   2.22565   1.36763 
 H                    0    -0.91576   3.03764   0.1535 
 H                    0     1.05907   3.88347  -1.01075 
 H                    0     1.19265   4.33833   0.6878 
 H                    0     2.51328  -1.23463  -0.23261 
 H                    0     1.98602  -0.81226  -1.84752 
 H                    0     0.25067  -1.99806   0.35724 
 H                    0     0.6103   -2.61664  -1.24765 
 H                    0    -0.55899  -0.61491  -2.22703 
 H                    -1   -0.9993   -0.05631   0.71694 
 H                    0    -2.27381  -2.19562  -0.28013 
 H                    0    -3.77372  -0.47088   0.27838 
 H                    0    -4.48672   0.59701  -0.92296 
 H                    0    -2.32712   1.61703  -1.43938 
 H                    0    -2.57918   1.66798   0.29601 
 H                    0    -1.53623  -3.90169  -1.82054 
 H                    0    -1.52226  -2.78213  -3.17096 
 H                    0    -3.88229  -4.27841  -2.13717 
 H                    0    -3.7819   -3.30101  -3.59489 
 H                    0    -4.57144  -2.45646  -0.80745 
 H                    0    -3.10475  -1.10496  -3.93209 
 H                    0    -3.92777   0.33605  -3.32025 
 H                    0    -2.17138   0.19378  -3.212 
 H                    0    -5.49711  -1.01977  -2.9605 
 O                    -1    0.69635   0.36187  -3.91222 
 H                    0     0.97443  -0.56224  -3.79076 
 H                    0     1.565     0.699    -4.21162 
 
 Stoichiometry    C88H163N2O9S2(1-)
 Framework group  C1[X(C88H163N2O9S2)]
 Deg. of freedom   786
 Full point group                 C1      NOp   1
 Largest Abelian subgroup         C1      NOp   1
 Largest concise Abelian subgroup C1      NOp   1
                         Standard orientation:                         
 ---------------------------------------------------------------------
 Center     Atomic      Atomic             Coordinates (Angstroms)
 Number     Number       Type             X           Y           Z
 ---------------------------------------------------------------------
      1          1           0        2.891237    9.095159    5.001275
      2          6           0        2.080301    9.092977    4.266450
      3          1           0        1.947691   10.121124    3.911450
      4          6           0        2.411827    8.141256    3.117326
      5          1           0        3.364652    8.446189    2.665255
      6          1           0        2.588085    7.137647    3.525180
      7          6           0        1.366873    8.036583    2.022325
      8          6           0        0.171559    8.750948    2.044023
      9          1           0       -0.046018    9.428957    2.863657
     10          6           0       -0.778953    8.610812    1.033651
     11          1           0       -1.712623    9.167070    1.086630
     12          6           0       -0.543282    7.741649   -0.024806
     13          8           0       -1.450607    7.526148   -1.022117
     14          1           0       -2.261079    8.009143   -0.821130
     15          6           0        0.658768    7.036709   -0.081657
     16          1           0        0.836856    6.362402   -0.912371
     17          6           0        1.590935    7.180715    0.934550
     18          1           0        2.506873    6.594682    0.887102
     19          1           0        1.162630    8.791431    4.783503
     20          1           0       -2.809892    7.323199    2.774601
     21          6           0       -3.249240    6.479000    2.232350
     22          1           0       -3.039970    6.621665    1.163992
     23          6           0       -2.661030    5.147277    2.706408
     24          1           0       -2.894641    5.034068    3.774677
     25          6           0       -3.294944    3.974974    1.954304
     26          1           0       -3.085947    4.056477    0.880003
     27          1           0       -2.893972    3.015093    2.299821
     28          1           0       -4.383873    3.950133    2.079201
     29          6           0       -1.140201    5.137236    2.543450
     30          1           0       -0.670973    5.970956    3.077514
     31          1           0       -0.705260    4.201764    2.913132
     32          1           0       -0.870502    5.238376    1.485996
     33          1           0       -4.337042    6.505602    2.369847
     34          1           0        6.310936   -2.125442   -6.006341
     35          6           0        5.292858   -1.745766   -5.865698
     36          1           0        4.595628   -2.461578   -6.315970
     37          6           0        4.981122   -1.537179   -4.383608
     38          1           0        5.059606   -2.485232   -3.839679
     39          1           0        5.716738   -0.841041   -3.963092
     40          6           0        3.585933   -0.930711   -4.183644
     41          8           0        2.720321   -1.643806   -3.577685
     42          8           0        3.388970    0.214413   -4.641567
     43          1           0        5.198315   -0.795869   -6.399989
     44          1           0       -5.216018    2.070577   -6.826485
     45          6           0       -5.129534    1.367572   -5.993341
     46          1           0       -5.436111    0.373101   -6.324412
     47          1           0       -4.078024    1.301598   -5.694084
     48          6           0       -5.953013    1.753682   -4.786099
     49          8           0       -6.171870    0.967885   -3.869080
     50          7           0       -6.412942    3.031304   -4.787452
     51          1           0       -6.154672    3.628971   -5.557455
     52          6           0       -7.154495    3.619216   -3.691107
     53          1           0       -7.316621    2.818889   -2.966131
     54          6           0       -6.437886    4.811803   -3.048653
     55          1           0       -6.381311    5.634070   -3.777590
     56          1           0       -7.073876    5.174666   -2.228531
     57          6           0       -5.030194    4.526115   -2.505558
     58          1           0       -4.391487    4.242998   -3.353769
     59          6           0       -4.439683    5.789720   -1.872081
     60          1           0       -5.010863    6.074264   -0.978227
     61          1           0       -3.399252    5.631548   -1.568639
     62          1           0       -4.459535    6.635445   -2.570814
     63          6           0       -5.026442    3.367977   -1.508176
     64          1           0       -5.305248    2.424198   -1.984548
     65          1           0       -4.031809    3.233152   -1.072839
     66          1           0       -5.728018    3.558114   -0.684915
     67          1           0       -8.141264    3.937313   -4.050951
     68          1           0       -9.852590    0.646130    0.896803
     69          6           0       -8.920070    0.678694    1.472692
     70          1           0       -8.683880   -0.343895    1.794617
     71          6           0       -7.769174    1.250405    0.635431
     72          1           0       -8.036453    2.280481    0.353459
     73          6           0       -6.473397    1.300072    1.450897
     74          1           0       -6.170375    0.287224    1.744545
     75          1           0       -5.650335    1.732150    0.870839
     76          1           0       -6.595288    1.896086    2.363735
     77          6           0       -7.568657    0.442485   -0.647813
     78          1           0       -8.507407    0.328234   -1.203249
     79          1           0       -6.844108    0.908823   -1.321526
     80          1           0       -7.187157   -0.559115   -0.423440
     81          1           0       -9.096003    1.279083    2.373290
     82          1           0        3.133918   -1.528690    7.831810
     83          6           0        2.043758   -1.590127    7.914409
     84          1           0        1.793387   -1.797923    8.960893
     85          6           0        1.382720   -0.294409    7.431992
     86          1           0        0.296067   -0.369510    7.557569
     87          1           0        1.713663    0.537276    8.067868
     88          6           0        1.707685    0.008228    5.987467
     89          6           0        0.733931   -0.062883    4.991089
     90          1           0       -0.290070   -0.313524    5.261372
     91          6           0        1.057576    0.183119    3.657377
     92          1           0        0.287756    0.112820    2.892011
     93          6           0        2.364237    0.503566    3.306261
     94          1           0        2.630384    0.695544    2.273163
     95          6           0        3.346582    0.577810    4.291745
     96          1           0        4.362957    0.821763    4.001237
     97          6           0        3.016857    0.333587    5.618650
     98          1           0        3.786775    0.395492    6.385866
     99          1           0        1.714875   -2.439099    7.305807
    100          1           0       -3.217964   -2.172780    5.284863
    101          6           0       -3.705495   -2.513869    4.361901
    102          1           0       -4.767620   -2.248284    4.424156
    103          6           0       -3.041701   -1.876647    3.135399
    104          1           0       -3.601737   -2.190734    2.243380
    105          6           0       -3.102335   -0.349033    3.208995
    106          1           0       -2.558698    0.020662    4.089057
    107          1           0       -2.647882    0.106797    2.321948
    108          1           0       -4.136631    0.007933    3.274452
    109          6           0       -1.602571   -2.365773    2.982449
    110          1           0       -1.567759   -3.456583    2.903084
    111          1           0       -1.134282   -1.955845    2.081170
    112          1           0       -0.984782   -2.073368    3.840350
    113          1           0       -3.621893   -3.607060    4.333471
    114          1           0       -8.929660   -3.858434    2.213188
    115          6           0       -9.346592   -4.157044    1.245541
    116          1           0      -10.437202   -4.080042    1.310896
    117          6           0       -8.798706   -3.274620    0.126504
    118          1           0       -9.265586   -3.551275   -0.828390
    119          1           0       -9.073259   -2.229383    0.313392
    120          6           0       -7.284123   -3.363405   -0.058099
    121          1           0       -6.982241   -4.388011   -0.305033
    122          1           0       -6.958302   -2.730064   -0.889460
    123         16           0       -6.323466   -2.855422    1.416038
    124          6           0       -5.866926   -4.479996    2.083257
    125          1           0       -5.236621   -5.026420    1.375352
    126          1           0       -5.295250   -4.309072    2.997576
    127          1           0       -6.750233   -5.076989    2.326436
    128          1           0       -9.094237   -5.211257    1.075516
    129          1           0       -3.090705   -7.814747    3.381463
    130          6           0       -2.070917   -7.427820    3.276836
    131          1           0       -1.391403   -8.286265    3.254024
    132          6           0       -1.935200   -6.567819    2.019937
    133          1           0       -2.121952   -7.187318    1.130810
    134          1           0       -2.719603   -5.797351    2.025455
    135          6           0       -0.577752   -5.869261    1.851385
    136          1           0       -0.437931   -5.200090    2.713712
    137          6           0        0.596274   -6.849235    1.845011
    138          1           0        0.465917   -7.602916    1.059499
    139          1           0        1.529029   -6.314282    1.637279
    140          1           0        0.708185   -7.365491    2.805141
    141          6           0       -0.578658   -5.021606    0.578260
    142          1           0       -1.386561   -4.279914    0.594340
    143          1           0        0.366829   -4.486303    0.453231
    144          1           0       -0.709937   -5.653709   -0.307966
    145          1           0       -1.839947   -6.844391    4.176817
    146          1           0        2.745938   -5.054418    4.089514
    147          6           0        3.637255   -4.593344    3.647004
    148          1           0        3.929510   -5.199437    2.781865
    149          6           0        3.357883   -3.148195    3.218776
    150          1           0        3.076548   -2.567422    4.108813
    151          6           0        4.609207   -2.505302    2.615164
    152          1           0        4.911210   -3.041072    1.704902
    153          1           0        4.432442   -1.456419    2.351389
    154          1           0        5.451235   -2.534970    3.318022
    155          6           0        2.193540   -3.087889    2.229613
    156          1           0        1.283650   -3.529736    2.653872
    157          1           0        1.966058   -2.050715    1.963315
    158          1           0        2.437137   -3.631619    1.306658
    159          1           0        4.448319   -4.643026    4.383709
    160          1           0        7.572649    0.827587    3.402220
    161          6           0        7.795959    0.293969    2.473519
    162          1           0        7.140353   -0.580609    2.433297
    163          6           0        7.573314    1.184834    1.264277
    164          1           0        8.228114    2.063614    1.275442
    165          1           0        7.810145    0.645597    0.339820
    166          6           0        6.143960    1.665150    1.152711
    167          8           0        5.244667    1.281024    1.874984
    168          8           0        5.981768    2.541775    0.172301
    169          1           0        5.027648    2.862360    0.169311
    170          1           0        8.834241   -0.050765    2.513378
    171          1           0        9.665767    5.146559   -2.308831
    172          6           0        9.567921    4.120446   -2.679286
    173          1           0       10.552262    3.640883   -2.611093
    174          6           0        8.525176    3.342956   -1.877651
    175          1           0        8.827921    3.304618   -0.822529
    176          1           0        7.562314    3.865041   -1.889726
    177          6           0        8.320658    1.902571   -2.350647
    178          1           0        9.285987    1.390285   -2.443085
    179          1           0        7.728078    1.354690   -1.613301
    180         16           0        7.494345    1.680691   -3.960665
    181          6           0        5.799864    2.190263   -3.531164
    182          1           0        5.662798    3.267521   -3.655731
    183          1           0        5.096323    1.643676   -4.168663
    184          1           0        5.587783    1.925549   -2.491303
    185          1           0        9.289580    4.163582   -3.737763
    186          1           0        7.248220   -1.538098   -2.367938
    187          6           0        6.941445   -1.764384   -1.342134
    188          1           0        7.765342   -1.482132   -0.675332
    189          6           0        5.655643   -1.021754   -0.979992
    190          1           0        4.813054   -1.344943   -1.600391
    191          1           0        5.380645   -1.175287    0.069633
    192          1           0        5.767919    0.056517   -1.138630
    193          1           0        6.814408   -2.850029   -1.263493
    194          1           0        5.727836   -7.451209   -1.038011
    195          6           0        4.987718   -7.727138   -0.279372
    196          1           0        5.490552   -8.312175    0.499247
    197          6           0        4.329241   -6.473515    0.313443
    198          1           0        3.640095   -6.788732    1.109151
    199          1           0        5.097335   -5.860997    0.802568
    200          6           0        3.597439   -5.629222   -0.688806
    201          6           0        3.911380   -4.351226   -1.084452
    202          1           0        4.722575   -3.717785   -0.749671
    203          7           0        3.022179   -3.892616   -2.020451
    204          1           0        3.046810   -3.001515   -2.551575
    205          6           0        2.103293   -4.877974   -2.256463
    206          6           0        0.999806   -4.872548   -3.115580
    207          1           0        0.781059   -3.996753   -3.718978
    208          6           0        0.216332   -6.012645   -3.157827
    209          1           0       -0.653136   -6.038455   -3.809011
    210          6           0        0.526814   -7.140332   -2.370103
    211          1           0       -0.106447   -8.021632   -2.430614
    212          6           0        1.619537   -7.138669   -1.519768
    213          1           0        1.844726   -8.012278   -0.913112
    214          6           0        2.426957   -5.992333   -1.443035
    215          1           0        4.245420   -8.369928   -0.763660
    216          6           0        2.530040    2.818039    0.048041
    217          8           0        3.536886    3.525657    0.177476
    218          6           0        2.583161    1.380034   -0.123923
    219          6           0        1.494215    0.634534   -0.432826
    220          6           0        0.126047    1.271798   -0.566307
    221          6           0        0.036248    2.522834    0.309703
    222          6           0        1.176575    3.482569    0.007322
    223          6           0        1.671351   -0.810519   -0.793152
    224          6           0        0.427932   -1.695262   -0.683871
    225          6           0       -0.802994   -0.964170   -1.217622
    226          6           0       -1.033252    0.282925   -0.332971
    227          6           0       -2.054341   -1.826414   -1.297972
    228          6           0       -3.291688   -1.021489   -1.741479
    229          6           0       -3.579156    0.032407   -0.679467
    230          6           0       -2.389748    0.986562   -0.541558
    231          6           0       -2.052198   -3.037726   -2.245223
    232          6           0       -3.556309   -3.307049   -2.523225
    233          6           0       -4.327920   -2.151369   -1.833445
    234          6           0       -3.107203   -0.363745   -3.125990
    235          8           0       -5.568006   -1.836817   -2.445481
    236          1           0        3.561244    0.911796   -0.054281
    237          1           0        0.062689    1.566880   -1.628356
    238          1           0        0.069441    2.225646    1.367630
    239          1           0       -0.915758    3.037642    0.153495
    240          1           0        1.059071    3.883468   -1.010752
    241          1           0        1.192646    4.338328    0.687795
    242          1           0        2.513276   -1.234633   -0.232610
    243          1           0        1.986022   -0.812256   -1.847522
    244          1           0        0.250671   -1.998059    0.357236
    245          1           0        0.610295   -2.616638   -1.247646
    246          1           0       -0.558992   -0.614913   -2.227034
    247          1           0       -0.999296   -0.056307    0.716943
    248          1           0       -2.273811   -2.195623   -0.280131
    249          1           0       -3.773724   -0.470876    0.278382
    250          1           0       -4.486722    0.597014   -0.922961
    251          1           0       -2.327120    1.617034   -1.439379
    252          1           0       -2.579176    1.667979    0.296008
    253          1           0       -1.536228   -3.901693   -1.820542
    254          1           0       -1.522260   -2.782133   -3.170962
    255          1           0       -3.882288   -4.278412   -2.137169
    256          1           0       -3.781900   -3.301010   -3.594891
    257          1           0       -4.571435   -2.456460   -0.807453
    258          1           0       -3.104748   -1.104963   -3.932093
    259          1           0       -3.927767    0.336050   -3.320246
    260          1           0       -2.171382    0.193782   -3.212001
    261          1           0       -5.497109   -1.019774   -2.960504
    262          8           0        0.696354    0.361865   -3.912221
    263          1           0        0.974432   -0.562238   -3.790764
    264          1           0        1.564998    0.699001   -4.211619
 ---------------------------------------------------------------------
 Rotational constants (GHZ):           0.0140547           0.0119333           0.0093695
 Standard basis: 6-31G(d) (6D, 7F)
 There are  1849 symmetry adapted cartesian basis functions of A   symmetry.
 There are  1849 symmetry adapted basis functions of A   symmetry.
  1849 basis functions,  3528 primitive gaussians,  1849 cartesian basis functions
   405 alpha electrons      405 beta electrons
       nuclear repulsion energy     24377.5954685252 Hartrees.
 NAtoms=  264 NActive=  264 NUniq=  264 SFac= 1.00D+00 NAtFMM=   60 NAOKFM=T Big=T
 Integral buffers will be    131072 words long.
 Raffenetti 2 integral format.
 Two-electron integral symmetry is turned on.
 Nuclear repulsion after empirical dispersion term =    24377.2667812623 Hartrees.
 One-electron integrals computed using PRISM.
 NBasis=  1849 RedAO= T EigKep=  3.60D-04  NBF=  1849
 NBsUse=  1849 1.00D-06 EigRej= -1.00D+00 NBFU=  1849
 ExpMin= 1.17D-01 ExpMax= 2.19D+04 ExpMxC= 3.30D+03 IAcc=3 IRadAn=         5 AccDes= 0.00D+00
 Harris functional with IExCor= 4639 and IRadAn=       5 diagonalized for initial guess.
 HarFok:  IExCor= 4639 AccDes= 0.00D+00 IRadAn=         5 IDoV= 1 UseB2=F ITyADJ=14
 ICtDFT=  3500011 ScaDFX=  1.000000  1.000000  1.000000  1.000000
 FoFCou: FMM=F IPFlag=           0 FMFlag=      100000 FMFlg1=        2001
         NFxFlg=           0 DoJE=T BraDBF=F KetDBF=T FulRan=T
         wScrn=  0.000000 ICntrl=       500 IOpCl=  0 I1Cent=   200000004 NGrid=           0
         NMat0=    1 NMatS0=      1 NMatT0=    0 NMatD0=    1 NMtDS0=    0 NMtDT0=    0
 Petite list used in FoFCou.
 Requested convergence on RMS density matrix=1.00D-08 within 128 cycles.
 Requested convergence on MAX density matrix=1.00D-06.
 Requested convergence on             energy=1.00D-06.
 No special actions if energy rises.
 Integral accuracy reduced to 1.0D-05 until final iterations.
 Initial convergence to 1.0D-05 achieved.  Increase integral accuracy.
 SCF Done:  E(RwB97XD) =  -5033.53129418     A.U. after   15 cycles
            NFock= 15  Conv=0.37D-08     -V/T= 2.0086
 Hyperfine terms turned off by default for NAtoms > 100.

 **********************************************************************

            Population analysis using the SCF Density.

 **********************************************************************

 Orbital symmetries:
       Occupied  (A) (A) (A) (A) (A) (A) (A) (A) (A) (A) (A) (A)
                 (A) (A) (A) (A) (A) (A) (A) (A) (A) (A) (A) (A)
                 (A) (A) (A) (A) (A) (A) (A) (A) (A) (A) (A) (A)
                 (A) (A) (A) (A) (A) (A) (A) (A) (A) (A) (A) (A)
                 (A) (A) (A) (A) (A) (A) (A) (A) (A) (A) (A) (A)
                 (A) (A) (A) (A) (A) (A) (A) (A) (A) (A) (A) (A)
                 (A) (A) (A) (A) (A) (A) (A) (A) (A) (A) (A) (A)
                 (A) (A) (A) (A) (A) (A) (A) (A) (A) (A) (A) (A)
                 (A) (A) (A) (A) (A) (A) (A) (A) (A) (A) (A) (A)
                 (A) (A) (A) (A) (A) (A) (A) (A) (A) (A) (A) (A)
                 (A) (A) (A) (A) (A) (A) (A) (A) (A) (A) (A) (A)
                 (A) (A) (A) (A) (A) (A) (A) (A) (A) (A) (A) (A)
                 (A) (A) (A) (A) (A) (A) (A) (A) (A) (A) (A) (A)
                 (A) (A) (A) (A) (A) (A) (A) (A) (A) (A) (A) (A)
                 (A) (A) (A) (A) (A) (A) (A) (A) (A) (A) (A) (A)
                 (A) (A) (A) (A) (A) (A) (A) (A) (A) (A) (A) (A)
                 (A) (A) (A) (A) (A) (A) (A) (A) (A) (A) (A) (A)
                 (A) (A) (A) (A) (A) (A) (A) (A) (A) (A) (A) (A)
                 (A) (A) (A) (A) (A) (A) (A) (A) (A) (A) (A) (A)
                 (A) (A) (A) (A) (A) (A) (A) (A) (A) (A) (A) (A)
                 (A) (A) (A) (A) (A) (A) (A) (A) (A) (A) (A) (A)
                 (A) (A) (A) (A) (A) (A) (A) (A) (A) (A) (A) (A)
                 (A) (A) (A) (A) (A) (A) (A) (A) (A) (A) (A) (A)
                 (A) (A) (A) (A) (A) (A) (A) (A) (A) (A) (A) (A)
                 (A) (A) (A) (A) (A) (A) (A) (A) (A) (A) (A) (A)
                 (A) (A) (A) (A) (A) (A) (A) (A) (A) (A) (A) (A)
                 (A) (A) (A) (A) (A) (A) (A) (A) (A) (A) (A) (A)
                 (A) (A) (A) (A) (A) (A) (A) (A) (A) (A) (A) (A)
                 (A) (A) (A) (A) (A) (A) (A) (A) (A) (A) (A) (A)
                 (A) (A) (A) (A) (A) (A) (A) (A) (A) (A) (A) (A)
                 (A) (A) (A) (A) (A) (A) (A) (A) (A) (A) (A) (A)
                 (A) (A) (A) (A) (A) (A) (A) (A) (A) (A) (A) (A)
                 (A) (A) (A) (A) (A) (A) (A) (A) (A) (A) (A) (A)
                 (A) (A) (A) (A) (A) (A) (A) (A) (A)
       Virtual   (A) (A) (A) (A) (A) (A) (A) (A) (A) (A) (A) (A)
                 (A) (A) (A) (A) (A) (A) (A) (A) (A) (A) (A) (A)
                 (A) (A) (A) (A) (A) (A) (A) (A) (A) (A) (A) (A)
                 (A) (A) (A) (A) (A) (A) (A) (A) (A) (A) (A) (A)
                 (A) (A) (A) (A) (A) (A) (A) (A) (A) (A) (A) (A)
                 (A) (A) (A) (A) (A) (A) (A) (A) (A) (A) (A) (A)
                 (A) (A) (A) (A) (A) (A) (A) (A) (A) (A) (A) (A)
                 (A) (A) (A) (A) (A) (A) (A) (A) (A) (A) (A) (A)
                 (A) (A) (A) (A) (A) (A) (A) (A) (A) (A) (A) (A)
                 (A) (A) (A) (A) (A) (A) (A) (A) (A) (A) (A) (A)
                 (A) (A) (A) (A) (A) (A) (A) (A) (A) (A) (A) (A)
                 (A) (A) (A) (A) (A) (A) (A) (A) (A) (A) (A) (A)
                 (A) (A) (A) (A) (A) (A) (A) (A) (A) (A) (A) (A)
                 (A) (A) (A) (A) (A) (A) (A) (A) (A) (A) (A) (A)
                 (A) (A) (A) (A) (A) (A) (A) (A) (A) (A) (A) (A)
                 (A) (A) (A) (A) (A) (A) (A) (A) (A) (A) (A) (A)
                 (A) (A) (A) (A) (A) (A) (A) (A) (A) (A) (A) (A)
                 (A) (A) (A) (A) (A) (A) (A) (A) (A) (A) (A) (A)
                 (A) (A) (A) (A) (A) (A) (A) (A) (A) (A) (A) (A)
                 (A) (A) (A) (A) (A) (A) (A) (A) (A) (A) (A) (A)
                 (A) (A) (A) (A) (A) (A) (A) (A) (A) (A) (A) (A)
                 (A) (A) (A) (A) (A) (A) (A) (A) (A) (A) (A) (A)
                 (A) (A) (A) (A) (A) (A) (A) (A) (A) (A) (A) (A)
                 (A) (A) (A) (A) (A) (A) (A) (A) (A) (A) (A) (A)
                 (A) (A) (A) (A) (A) (A) (A) (A) (A) (A) (A) (A)
                 (A) (A) (A) (A) (A) (A) (A) (A) (A) (A) (A) (A)
                 (A) (A) (A) (A) (A) (A) (A) (A) (A) (A) (A) (A)
                 (A) (A) (A) (A) (A) (A) (A) (A) (A) (A) (A) (A)
                 (A) (A) (A) (A) (A) (A) (A) (A) (A) (A) (A) (A)
                 (A) (A) (A) (A) (A) (A) (A) (A) (A) (A) (A) (A)
                 (A) (A) (A) (A) (A) (A) (A) (A) (A) (A) (A) (A)
                 (A) (A) (A) (A) (A) (A) (A) (A) (A) (A) (A) (A)
                 (A) (A) (A) (A) (A) (A) (A) (A) (A) (A) (A) (A)
                 (A) (A) (A) (A) (A) (A) (A) (A) (A) (A) (A) (A)
                 (A) (A) (A) (A) (A) (A) (A) (A) (A) (A) (A) (A)
                 (A) (A) (A) (A) (A) (A) (A) (A) (A) (A) (A) (A)
                 (A) (A) (A) (A) (A) (A) (A) (A) (A) (A) (A) (A)
                 (A) (A) (A) (A) (A) (A) (A) (A) (A) (A) (A) (A)
                 (A) (A) (A) (A) (A) (A) (A) (A) (A) (A) (A) (A)
                 (A) (A) (A) (A) (A) (A) (A) (A) (A) (A) (A) (A)
                 (A) (A) (A) (A) (A) (A) (A) (A) (A) (A) (A) (A)
                 (A) (A) (A) (A) (A) (A) (A) (A) (A) (A) (A) (A)
                 (A) (A) (A) (A) (A) (A) (A) (A) (A) (A) (A) (A)
                 (A) (A) (A) (A) (A) (A) (A) (A) (A) (A) (A) (A)
                 (A) (A) (A) (A) (A) (A) (A) (A) (A) (A) (A) (A)
                 (A) (A) (A) (A) (A) (A) (A) (A) (A) (A) (A) (A)
                 (A) (A) (A) (A) (A) (A) (A) (A) (A) (A) (A) (A)
                 (A) (A) (A) (A) (A) (A) (A) (A) (A) (A) (A) (A)
                 (A) (A) (A) (A) (A) (A) (A) (A) (A) (A) (A) (A)
                 (A) (A) (A) (A) (A) (A) (A) (A) (A) (A) (A) (A)
                 (A) (A) (A) (A) (A) (A) (A) (A) (A) (A) (A) (A)
                 (A) (A) (A) (A) (A) (A) (A) (A) (A) (A) (A) (A)
                 (A) (A) (A) (A) (A) (A) (A) (A) (A) (A) (A) (A)
                 (A) (A) (A) (A) (A) (A) (A) (A) (A) (A) (A) (A)
                 (A) (A) (A) (A) (A) (A) (A) (A) (A) (A) (A) (A)
                 (A) (A) (A) (A) (A) (A) (A) (A) (A) (A) (A) (A)
                 (A) (A) (A) (A) (A) (A) (A) (A) (A) (A) (A) (A)
                 (A) (A) (A) (A) (A) (A) (A) (A) (A) (A) (A) (A)
                 (A) (A) (A) (A) (A) (A) (A) (A) (A) (A) (A) (A)
                 (A) (A) (A) (A) (A) (A) (A) (A) (A) (A) (A) (A)
                 (A) (A) (A) (A) (A) (A) (A) (A) (A) (A) (A) (A)
                 (A) (A) (A) (A) (A) (A) (A) (A) (A) (A) (A) (A)
                 (A) (A) (A) (A) (A) (A) (A) (A) (A) (A) (A) (A)
                 (A) (A) (A) (A) (A) (A) (A) (A) (A) (A) (A) (A)
                 (A) (A) (A) (A) (A) (A) (A) (A) (A) (A) (A) (A)
                 (A) (A) (A) (A) (A) (A) (A) (A) (A) (A) (A) (A)
                 (A) (A) (A) (A) (A) (A) (A) (A) (A) (A) (A) (A)
                 (A) (A) (A) (A) (A) (A) (A) (A) (A) (A) (A) (A)
                 (A) (A) (A) (A) (A) (A) (A) (A) (A) (A) (A) (A)
                 (A) (A) (A) (A) (A) (A) (A) (A) (A) (A) (A) (A)
                 (A) (A) (A) (A) (A) (A) (A) (A) (A) (A) (A) (A)
                 (A) (A) (A) (A) (A) (A) (A) (A) (A) (A) (A) (A)
                 (A) (A) (A) (A) (A) (A) (A) (A) (A) (A) (A) (A)
                 (A) (A) (A) (A) (A) (A) (A) (A) (A) (A) (A) (A)
                 (A) (A) (A) (A) (A) (A) (A) (A) (A) (A) (A) (A)
                 (A) (A) (A) (A) (A) (A) (A) (A) (A) (A) (A) (A)
                 (A) (A) (A) (A) (A) (A) (A) (A) (A) (A) (A) (A)
                 (A) (A) (A) (A) (A) (A) (A) (A) (A) (A) (A) (A)
                 (A) (A) (A) (A) (A) (A) (A) (A) (A) (A) (A) (A)
                 (A) (A) (A) (A) (A) (A) (A) (A) (A) (A) (A) (A)
                 (A) (A) (A) (A) (A) (A) (A) (A) (A) (A) (A) (A)
                 (A) (A) (A) (A) (A) (A) (A) (A) (A) (A) (A) (A)
                 (A) (A) (A) (A) (A) (A) (A) (A) (A) (A) (A) (A)
                 (A) (A) (A) (A) (A) (A) (A) (A) (A) (A) (A) (A)
                 (A) (A) (A) (A) (A) (A) (A) (A) (A) (A) (A) (A)
                 (A) (A) (A) (A) (A) (A) (A) (A) (A) (A) (A) (A)
                 (A) (A) (A) (A) (A) (A) (A) (A) (A) (A) (A) (A)
                 (A) (A) (A) (A) (A) (A) (A) (A) (A) (A) (A) (A)
                 (A) (A) (A) (A) (A) (A) (A) (A) (A) (A) (A) (A)
                 (A) (A) (A) (A) (A) (A) (A) (A) (A) (A) (A) (A)
                 (A) (A) (A) (A) (A) (A) (A) (A) (A) (A) (A) (A)
                 (A) (A) (A) (A) (A) (A) (A) (A) (A) (A) (A) (A)
                 (A) (A) (A) (A) (A) (A) (A) (A) (A) (A) (A) (A)
                 (A) (A) (A) (A) (A) (A) (A) (A) (A) (A) (A) (A)
                 (A) (A) (A) (A) (A) (A) (A) (A) (A) (A) (A) (A)
                 (A) (A) (A) (A) (A) (A) (A) (A) (A) (A) (A) (A)
                 (A) (A) (A) (A) (A) (A) (A) (A) (A) (A) (A) (A)
                 (A) (A) (A) (A) (A) (A) (A) (A) (A) (A) (A) (A)
                 (A) (A) (A) (A) (A) (A) (A) (A) (A) (A) (A) (A)
                 (A) (A) (A) (A) (A) (A) (A) (A) (A) (A) (A) (A)
                 (A) (A) (A) (A) (A) (A) (A) (A) (A) (A) (A) (A)
                 (A) (A) (A) (A) (A) (A) (A) (A) (A) (A) (A) (A)
                 (A) (A) (A) (A) (A) (A) (A) (A) (A) (A) (A) (A)
                 (A) (A) (A) (A) (A) (A) (A) (A) (A) (A) (A) (A)
                 (A) (A) (A) (A) (A) (A) (A) (A) (A) (A) (A) (A)
                 (A) (A) (A) (A) (A) (A) (A) (A) (A) (A) (A) (A)
                 (A) (A) (A) (A) (A) (A) (A) (A) (A) (A) (A) (A)
                 (A) (A) (A) (A) (A) (A) (A) (A) (A) (A) (A) (A)
                 (A) (A) (A) (A) (A) (A) (A) (A) (A) (A) (A) (A)
                 (A) (A) (A) (A) (A) (A) (A) (A) (A) (A) (A) (A)
                 (A) (A) (A) (A) (A) (A) (A) (A) (A) (A) (A) (A)
                 (A) (A) (A) (A) (A) (A) (A) (A) (A) (A) (A) (A)
                 (A) (A) (A) (A) (A) (A) (A) (A) (A) (A) (A) (A)
                 (A) (A) (A) (A) (A) (A) (A) (A) (A) (A) (A) (A)
                 (A) (A) (A) (A) (A) (A) (A) (A) (A) (A) (A) (A)
                 (A) (A) (A) (A) (A) (A) (A) (A) (A) (A) (A) (A)
                 (A) (A) (A) (A) (A) (A) (A) (A) (A) (A) (A) (A)
                 (A) (A) (A) (A) (A) (A) (A) (A) (A) (A) (A) (A)
                 (A) (A) (A) (A) (A) (A) (A) (A) (A) (A) (A) (A)
                 (A) (A) (A) (A) (A) (A) (A) (A) (A) (A) (A) (A)
                 (A) (A) (A) (A)
 The electronic state is 1-A.
 Alpha  occ. eigenvalues --  -88.96755 -88.94217 -19.25227 -19.21701 -19.19140
 Alpha  occ. eigenvalues --  -19.18608 -19.17586 -19.17493 -19.11761 -19.11043
 Alpha  occ. eigenvalues --  -19.10142 -14.43697 -14.37970 -10.35980 -10.34807
 Alpha  occ. eigenvalues --  -10.30994 -10.30682 -10.28524 -10.27508 -10.25618
 Alpha  occ. eigenvalues --  -10.25497 -10.25219 -10.25014 -10.24988 -10.24986
 Alpha  occ. eigenvalues --  -10.24975 -10.24900 -10.24872 -10.24844 -10.24759
 Alpha  occ. eigenvalues --  -10.24400 -10.24159 -10.24060 -10.24051 -10.23820
 Alpha  occ. eigenvalues --  -10.23635 -10.23611 -10.23553 -10.23411 -10.23300
 Alpha  occ. eigenvalues --  -10.23291 -10.23289 -10.23053 -10.22904 -10.22821
 Alpha  occ. eigenvalues --  -10.22715 -10.22698 -10.22411 -10.22397 -10.22319
 Alpha  occ. eigenvalues --  -10.22239 -10.22227 -10.22148 -10.22142 -10.22134
 Alpha  occ. eigenvalues --  -10.22063 -10.21992 -10.21979 -10.21977 -10.21970
 Alpha  occ. eigenvalues --  -10.21925 -10.21908 -10.21851 -10.21701 -10.21598
 Alpha  occ. eigenvalues --  -10.21478 -10.21432 -10.21291 -10.21285 -10.21260
 Alpha  occ. eigenvalues --  -10.21255 -10.21232 -10.21213 -10.21168 -10.21078
 Alpha  occ. eigenvalues --  -10.21063 -10.20785 -10.20676 -10.20661 -10.20657
 Alpha  occ. eigenvalues --  -10.20620 -10.20591 -10.20540 -10.20416 -10.20348
 Alpha  occ. eigenvalues --  -10.20248 -10.20240 -10.20136 -10.20083 -10.20064
 Alpha  occ. eigenvalues --  -10.19870 -10.19855 -10.19839 -10.19700 -10.19654
 Alpha  occ. eigenvalues --  -10.19573 -10.19508 -10.19009 -10.18965 -10.18715
 Alpha  occ. eigenvalues --  -10.18249  -7.98519  -7.96084  -5.93577  -5.93188
 Alpha  occ. eigenvalues --   -5.92513  -5.91130  -5.90736  -5.90080  -1.11699
 Alpha  occ. eigenvalues --   -1.11216  -1.09117  -1.06066  -1.02735  -1.02381
 Alpha  occ. eigenvalues --   -1.01794  -0.98218  -0.97850  -0.95483  -0.92513
 Alpha  occ. eigenvalues --   -0.90267  -0.88772  -0.88153  -0.86634  -0.86244
 Alpha  occ. eigenvalues --   -0.84827  -0.84801  -0.84012  -0.83330  -0.83274
 Alpha  occ. eigenvalues --   -0.83115  -0.83105  -0.82963  -0.81798  -0.81677
 Alpha  occ. eigenvalues --   -0.81514  -0.81353  -0.81142  -0.81019  -0.80799
 Alpha  occ. eigenvalues --   -0.79528  -0.79327  -0.78196  -0.77216  -0.76996
 Alpha  occ. eigenvalues --   -0.76823  -0.76526  -0.76423  -0.76176  -0.75741
 Alpha  occ. eigenvalues --   -0.75653  -0.75556  -0.74705  -0.73759  -0.73374
 Alpha  occ. eigenvalues --   -0.72822  -0.72655  -0.72264  -0.71972  -0.71902
 Alpha  occ. eigenvalues --   -0.71246  -0.71150  -0.71120  -0.70642  -0.70476
 Alpha  occ. eigenvalues --   -0.70456  -0.69619  -0.69448  -0.69151  -0.68877
 Alpha  occ. eigenvalues --   -0.68806  -0.68698  -0.68399  -0.68025  -0.66350
 Alpha  occ. eigenvalues --   -0.65980  -0.65441  -0.64795  -0.64550  -0.64423
 Alpha  occ. eigenvalues --   -0.63704  -0.63629  -0.63279  -0.62917  -0.62333
 Alpha  occ. eigenvalues --   -0.62051  -0.61977  -0.61621  -0.60722  -0.60557
 Alpha  occ. eigenvalues --   -0.59717  -0.59404  -0.59307  -0.59029  -0.58883
 Alpha  occ. eigenvalues --   -0.58768  -0.58355  -0.58116  -0.58074  -0.57482
 Alpha  occ. eigenvalues --   -0.57066  -0.56818  -0.56583  -0.55890  -0.55615
 Alpha  occ. eigenvalues --   -0.54336  -0.54080  -0.52947  -0.52796  -0.52615
 Alpha  occ. eigenvalues --   -0.52350  -0.52042  -0.51088  -0.50972  -0.50312
 Alpha  occ. eigenvalues --   -0.50031  -0.49629  -0.49351  -0.49159  -0.49044
 Alpha  occ. eigenvalues --   -0.48911  -0.48872  -0.48779  -0.48764  -0.48628
 Alpha  occ. eigenvalues --   -0.48245  -0.48192  -0.48065  -0.47907  -0.47890
 Alpha  occ. eigenvalues --   -0.47669  -0.47563  -0.47391  -0.47234  -0.47156
 Alpha  occ. eigenvalues --   -0.47075  -0.46893  -0.46808  -0.46609  -0.46468
 Alpha  occ. eigenvalues --   -0.46413  -0.45850  -0.45739  -0.45704  -0.45630
 Alpha  occ. eigenvalues --   -0.45477  -0.45377  -0.45321  -0.45115  -0.45043
 Alpha  occ. eigenvalues --   -0.44972  -0.44782  -0.44693  -0.44607  -0.44523
 Alpha  occ. eigenvalues --   -0.44485  -0.44381  -0.44318  -0.44294  -0.44209
 Alpha  occ. eigenvalues --   -0.44187  -0.44085  -0.43989  -0.43840  -0.43795
 Alpha  occ. eigenvalues --   -0.43580  -0.43223  -0.43113  -0.42953  -0.42874
 Alpha  occ. eigenvalues --   -0.42751  -0.42686  -0.42565  -0.42481  -0.42337
 Alpha  occ. eigenvalues --   -0.42241  -0.42189  -0.42091  -0.41868  -0.41545
 Alpha  occ. eigenvalues --   -0.41420  -0.41264  -0.41210  -0.41124  -0.41001
 Alpha  occ. eigenvalues --   -0.40927  -0.40899  -0.40881  -0.40862  -0.40596
 Alpha  occ. eigenvalues --   -0.40487  -0.40403  -0.40328  -0.40112  -0.40085
 Alpha  occ. eigenvalues --   -0.39775  -0.39718  -0.39513  -0.39451  -0.39445
 Alpha  occ. eigenvalues --   -0.39407  -0.39375  -0.39267  -0.39067  -0.38975
 Alpha  occ. eigenvalues --   -0.38865  -0.38792  -0.38596  -0.38412  -0.38387
 Alpha  occ. eigenvalues --   -0.38283  -0.38152  -0.38018  -0.37978  -0.37840
 Alpha  occ. eigenvalues --   -0.37729  -0.37584  -0.37497  -0.37438  -0.37057
 Alpha  occ. eigenvalues --   -0.36957  -0.36934  -0.36888  -0.36819  -0.36693
 Alpha  occ. eigenvalues --   -0.36460  -0.36363  -0.36325  -0.36237  -0.36213
 Alpha  occ. eigenvalues --   -0.36162  -0.36033  -0.35942  -0.35920  -0.35867
 Alpha  occ. eigenvalues --   -0.35779  -0.35750  -0.35571  -0.35525  -0.35372
 Alpha  occ. eigenvalues --   -0.35306  -0.35287  -0.35218  -0.35110  -0.35007
 Alpha  occ. eigenvalues --   -0.34712  -0.34547  -0.34408  -0.34276  -0.34201
 Alpha  occ. eigenvalues --   -0.34121  -0.34107  -0.33981  -0.33894  -0.33806
 Alpha  occ. eigenvalues --   -0.33717  -0.33686  -0.33597  -0.33560  -0.33431
 Alpha  occ. eigenvalues --   -0.33407  -0.33325  -0.33290  -0.33218  -0.33109
 Alpha  occ. eigenvalues --   -0.32930  -0.32602  -0.32380  -0.32212  -0.32101
 Alpha  occ. eigenvalues --   -0.31981  -0.31910  -0.31637  -0.31561  -0.31426
 Alpha  occ. eigenvalues --   -0.31238  -0.31096  -0.31055  -0.30993  -0.30815
 Alpha  occ. eigenvalues --   -0.30633  -0.29690  -0.29340  -0.29075  -0.28926
 Alpha  occ. eigenvalues --   -0.28799  -0.27729  -0.27430  -0.27160  -0.26585
 Alpha  occ. eigenvalues --   -0.25921  -0.25377  -0.25041  -0.24792  -0.24705
 Alpha  occ. eigenvalues --   -0.23936  -0.23720  -0.23622  -0.22835  -0.22139
 Alpha  occ. eigenvalues --   -0.21294  -0.20685  -0.20330  -0.20065  -0.17784
 Alpha virt. eigenvalues --    0.09855   0.12063   0.13739   0.14418   0.14670
 Alpha virt. eigenvalues --    0.14781   0.14798   0.16831   0.17019   0.18150
 Alpha virt. eigenvalues --    0.18523   0.18626   0.18990   0.19843   0.20191
 Alpha virt. eigenvalues --    0.20381   0.20466   0.20789   0.21028   0.21766
 Alpha virt. eigenvalues --    0.21872   0.22074   0.22331   0.22573   0.22767
 Alpha virt. eigenvalues --    0.22878   0.22969   0.23225   0.23316   0.23630
 Alpha virt. eigenvalues --    0.23806   0.23898   0.23989   0.24232   0.24369
 Alpha virt. eigenvalues --    0.24540   0.24546   0.24620   0.25000   0.25141
 Alpha virt. eigenvalues --    0.25182   0.25476   0.25640   0.25697   0.25783
 Alpha virt. eigenvalues --    0.26063   0.26207   0.26394   0.26646   0.26792
 Alpha virt. eigenvalues --    0.26846   0.26923   0.27109   0.27204   0.27260
 Alpha virt. eigenvalues --    0.27341   0.27426   0.27493   0.27696   0.27777
 Alpha virt. eigenvalues --    0.27890   0.27972   0.28134   0.28262   0.28397
 Alpha virt. eigenvalues --    0.28483   0.28581   0.28651   0.28762   0.28821
 Alpha virt. eigenvalues --    0.28961   0.29000   0.29262   0.29340   0.29412
 Alpha virt. eigenvalues --    0.29502   0.29608   0.29660   0.29683   0.29889
 Alpha virt. eigenvalues --    0.29943   0.30126   0.30166   0.30196   0.30303
 Alpha virt. eigenvalues --    0.30484   0.30670   0.30738   0.30785   0.30804
 Alpha virt. eigenvalues --    0.30899   0.30920   0.30962   0.31030   0.31141
 Alpha virt. eigenvalues --    0.31304   0.31353   0.31496   0.31559   0.31629
 Alpha virt. eigenvalues --    0.31812   0.31932   0.32001   0.32158   0.32228
 Alpha virt. eigenvalues --    0.32264   0.32296   0.32415   0.32570   0.32733
 Alpha virt. eigenvalues --    0.32800   0.32857   0.32967   0.33041   0.33070
 Alpha virt. eigenvalues --    0.33218   0.33319   0.33410   0.33424   0.33554
 Alpha virt. eigenvalues --    0.33710   0.33788   0.33845   0.33954   0.34002
 Alpha virt. eigenvalues --    0.34080   0.34151   0.34224   0.34331   0.34456
 Alpha virt. eigenvalues --    0.34563   0.34633   0.34665   0.34856   0.34905
 Alpha virt. eigenvalues --    0.34932   0.34998   0.35100   0.35194   0.35226
 Alpha virt. eigenvalues --    0.35384   0.35595   0.35672   0.35812   0.35905
 Alpha virt. eigenvalues --    0.36014   0.36063   0.36238   0.36280   0.36390
 Alpha virt. eigenvalues --    0.36612   0.36709   0.36846   0.36934   0.36972
 Alpha virt. eigenvalues --    0.37018   0.37192   0.37259   0.37341   0.37554
 Alpha virt. eigenvalues --    0.37708   0.37780   0.37838   0.37928   0.38054
 Alpha virt. eigenvalues --    0.38244   0.38298   0.38451   0.38475   0.38551
 Alpha virt. eigenvalues --    0.38684   0.38784   0.38924   0.39068   0.39266
 Alpha virt. eigenvalues --    0.39369   0.39487   0.39643   0.39690   0.39866
 Alpha virt. eigenvalues --    0.39993   0.40083   0.40207   0.40326   0.40415
 Alpha virt. eigenvalues --    0.40493   0.40768   0.40855   0.40902   0.40932
 Alpha virt. eigenvalues --    0.41070   0.41337   0.41387   0.41456   0.41679
 Alpha virt. eigenvalues --    0.41732   0.41889   0.42024   0.42042   0.42305
 Alpha virt. eigenvalues --    0.42338   0.42631   0.42701   0.42837   0.42957
 Alpha virt. eigenvalues --    0.43214   0.43276   0.43378   0.43398   0.43560
 Alpha virt. eigenvalues --    0.43614   0.43737   0.43820   0.44081   0.44330
 Alpha virt. eigenvalues --    0.44472   0.44778   0.44787   0.44967   0.45121
 Alpha virt. eigenvalues --    0.45185   0.45609   0.45796   0.45950   0.46194
 Alpha virt. eigenvalues --    0.46223   0.46473   0.46486   0.46848   0.47065
 Alpha virt. eigenvalues --    0.47249   0.47386   0.47448   0.47802   0.48131
 Alpha virt. eigenvalues --    0.48323   0.48438   0.48587   0.48781   0.48990
 Alpha virt. eigenvalues --    0.49018   0.49475   0.49624   0.50054   0.50344
 Alpha virt. eigenvalues --    0.50399   0.50758   0.50933   0.51369   0.51544
 Alpha virt. eigenvalues --    0.52238   0.52427   0.52775   0.53235   0.53791
 Alpha virt. eigenvalues --    0.54249   0.54824   0.55071   0.55763   0.56343
 Alpha virt. eigenvalues --    0.56757   0.58095   0.58433   0.58647   0.58787
 Alpha virt. eigenvalues --    0.58986   0.59742   0.59839   0.60411   0.61117
 Alpha virt. eigenvalues --    0.61904   0.62006   0.62133   0.62317   0.62579
 Alpha virt. eigenvalues --    0.62699   0.62810   0.63559   0.63730   0.64011
 Alpha virt. eigenvalues --    0.64218   0.64226   0.64380   0.64556   0.64783
 Alpha virt. eigenvalues --    0.64945   0.65295   0.65376   0.65535   0.65857
 Alpha virt. eigenvalues --    0.66066   0.66180   0.66210   0.66364   0.66616
 Alpha virt. eigenvalues --    0.66812   0.66857   0.67078   0.67276   0.67358
 Alpha virt. eigenvalues --    0.67551   0.67831   0.68048   0.68098   0.68254
 Alpha virt. eigenvalues --    0.68269   0.68448   0.68484   0.68679   0.68780
 Alpha virt. eigenvalues --    0.68812   0.69374   0.69424   0.69481   0.69682
 Alpha virt. eigenvalues --    0.69844   0.69958   0.70243   0.70413   0.70576
 Alpha virt. eigenvalues --    0.70763   0.70819   0.70957   0.71086   0.71263
 Alpha virt. eigenvalues --    0.71462   0.71632   0.71688   0.71890   0.72072
 Alpha virt. eigenvalues --    0.72171   0.72258   0.72366   0.72605   0.72663
 Alpha virt. eigenvalues --    0.72926   0.72988   0.73114   0.73230   0.73440
 Alpha virt. eigenvalues --    0.73529   0.73650   0.73753   0.73893   0.74224
 Alpha virt. eigenvalues --    0.74237   0.74451   0.74616   0.74663   0.74837
 Alpha virt. eigenvalues --    0.75028   0.75091   0.75205   0.75229   0.75416
 Alpha virt. eigenvalues --    0.75598   0.75741   0.76126   0.76233   0.76259
 Alpha virt. eigenvalues --    0.76433   0.76650   0.76762   0.76922   0.77153
 Alpha virt. eigenvalues --    0.77238   0.77322   0.77476   0.77639   0.77695
 Alpha virt. eigenvalues --    0.77820   0.77938   0.78086   0.78153   0.78297
 Alpha virt. eigenvalues --    0.78510   0.78644   0.78860   0.79001   0.79038
 Alpha virt. eigenvalues --    0.79247   0.79365   0.79428   0.79782   0.79820
 Alpha virt. eigenvalues --    0.79976   0.80239   0.80443   0.80590   0.80691
 Alpha virt. eigenvalues --    0.80822   0.81177   0.81280   0.81347   0.81629
 Alpha virt. eigenvalues --    0.81845   0.82070   0.82119   0.82245   0.82321
 Alpha virt. eigenvalues --    0.82344   0.82433   0.82962   0.83070   0.83199
 Alpha virt. eigenvalues --    0.83410   0.83465   0.83544   0.83765   0.83865
 Alpha virt. eigenvalues --    0.84058   0.84147   0.84342   0.84468   0.84652
 Alpha virt. eigenvalues --    0.84714   0.84815   0.84978   0.85179   0.85339
 Alpha virt. eigenvalues --    0.85587   0.85666   0.85837   0.85996   0.86188
 Alpha virt. eigenvalues --    0.86220   0.86389   0.86507   0.86841   0.86872
 Alpha virt. eigenvalues --    0.86992   0.87397   0.87486   0.87671   0.87854
 Alpha virt. eigenvalues --    0.88031   0.88104   0.88313   0.88378   0.88466
 Alpha virt. eigenvalues --    0.88511   0.88651   0.88678   0.88864   0.89034
 Alpha virt. eigenvalues --    0.89104   0.89217   0.89631   0.89717   0.90005
 Alpha virt. eigenvalues --    0.90108   0.90308   0.90503   0.90749   0.90969
 Alpha virt. eigenvalues --    0.91046   0.91195   0.91376   0.91531   0.91864
 Alpha virt. eigenvalues --    0.92163   0.92232   0.92417   0.92478   0.92708
 Alpha virt. eigenvalues --    0.92899   0.93016   0.93166   0.93454   0.93561
 Alpha virt. eigenvalues --    0.93807   0.94002   0.94200   0.94372   0.94659
 Alpha virt. eigenvalues --    0.94664   0.94887   0.94971   0.95107   0.95241
 Alpha virt. eigenvalues --    0.95416   0.95528   0.95658   0.96033   0.96243
 Alpha virt. eigenvalues --    0.96427   0.96541   0.97065   0.97072   0.97295
 Alpha virt. eigenvalues --    0.97455   0.97622   0.97906   0.98050   0.98186
 Alpha virt. eigenvalues --    0.98531   0.98660   0.98818   0.98881   0.99034
 Alpha virt. eigenvalues --    0.99183   0.99455   0.99538   0.99715   0.99772
 Alpha virt. eigenvalues --    0.99849   1.00305   1.00462   1.00590   1.00705
 Alpha virt. eigenvalues --    1.00916   1.01027   1.01143   1.01418   1.01440
 Alpha virt. eigenvalues --    1.01525   1.01707   1.01924   1.02019   1.02146
 Alpha virt. eigenvalues --    1.02340   1.02444   1.02490   1.02594   1.02729
 Alpha virt. eigenvalues --    1.02919   1.02995   1.03132   1.03193   1.03253
 Alpha virt. eigenvalues --    1.03328   1.03522   1.03597   1.03760   1.03785
 Alpha virt. eigenvalues --    1.03909   1.04046   1.04228   1.04338   1.04423
 Alpha virt. eigenvalues --    1.04513   1.04625   1.04752   1.04882   1.04986
 Alpha virt. eigenvalues --    1.05074   1.05102   1.05327   1.05428   1.05494
 Alpha virt. eigenvalues --    1.05625   1.05690   1.05822   1.06025   1.06190
 Alpha virt. eigenvalues --    1.06314   1.06370   1.06520   1.06545   1.06662
 Alpha virt. eigenvalues --    1.06798   1.06856   1.06953   1.07053   1.07317
 Alpha virt. eigenvalues --    1.07433   1.07524   1.07530   1.07657   1.07725
 Alpha virt. eigenvalues --    1.07844   1.07927   1.08040   1.08143   1.08292
 Alpha virt. eigenvalues --    1.08381   1.08454   1.08543   1.08774   1.08973
 Alpha virt. eigenvalues --    1.08986   1.09171   1.09246   1.09376   1.09458
 Alpha virt. eigenvalues --    1.09522   1.09815   1.09961   1.10018   1.10216
 Alpha virt. eigenvalues --    1.10226   1.10375   1.10476   1.10550   1.10729
 Alpha virt. eigenvalues --    1.10755   1.10963   1.11110   1.11164   1.11347
 Alpha virt. eigenvalues --    1.11428   1.11595   1.11685   1.11728   1.11865
 Alpha virt. eigenvalues --    1.11982   1.12050   1.12176   1.12271   1.12345
 Alpha virt. eigenvalues --    1.12463   1.12574   1.12801   1.12965   1.13038
 Alpha virt. eigenvalues --    1.13146   1.13243   1.13576   1.13643   1.13754
 Alpha virt. eigenvalues --    1.13909   1.14126   1.14253   1.14294   1.14491
 Alpha virt. eigenvalues --    1.14555   1.14739   1.14810   1.14968   1.15161
 Alpha virt. eigenvalues --    1.15214   1.15263   1.15468   1.15570   1.15727
 Alpha virt. eigenvalues --    1.16039   1.16171   1.16345   1.16438   1.16609
 Alpha virt. eigenvalues --    1.16663   1.16990   1.17060   1.17197   1.17308
 Alpha virt. eigenvalues --    1.17526   1.17702   1.18000   1.18052   1.18246
 Alpha virt. eigenvalues --    1.18522   1.18719   1.18733   1.18879   1.19257
 Alpha virt. eigenvalues --    1.19404   1.19644   1.19809   1.19940   1.19999
 Alpha virt. eigenvalues --    1.20446   1.20574   1.20767   1.21104   1.21506
 Alpha virt. eigenvalues --    1.21614   1.21835   1.22016   1.22249   1.22334
 Alpha virt. eigenvalues --    1.22469   1.23010   1.23083   1.23280   1.23365
 Alpha virt. eigenvalues --    1.23563   1.23888   1.24032   1.24115   1.24419
 Alpha virt. eigenvalues --    1.24577   1.24934   1.25187   1.25277   1.25606
 Alpha virt. eigenvalues --    1.25846   1.25992   1.26197   1.26269   1.27000
 Alpha virt. eigenvalues --    1.27027   1.27188   1.27434   1.27836   1.28100
 Alpha virt. eigenvalues --    1.28355   1.28400   1.28611   1.28734   1.29107
 Alpha virt. eigenvalues --    1.29296   1.29486   1.29687   1.30067   1.30279
 Alpha virt. eigenvalues --    1.30646   1.30728   1.30975   1.31362   1.31520
 Alpha virt. eigenvalues --    1.31728   1.32105   1.32367   1.32379   1.32697
 Alpha virt. eigenvalues --    1.32879   1.33409   1.33538   1.33658   1.33839
 Alpha virt. eigenvalues --    1.34094   1.34335   1.34609   1.34764   1.34933
 Alpha virt. eigenvalues --    1.35315   1.35463   1.35510   1.35985   1.36241
 Alpha virt. eigenvalues --    1.36869   1.36996   1.37753   1.37824   1.38048
 Alpha virt. eigenvalues --    1.38117   1.38458   1.38592   1.38960   1.39063
 Alpha virt. eigenvalues --    1.39356   1.39544   1.39794   1.40423   1.40493
 Alpha virt. eigenvalues --    1.40774   1.41155   1.41388   1.41548   1.41644
 Alpha virt. eigenvalues --    1.41991   1.42290   1.42863   1.43475   1.43703
 Alpha virt. eigenvalues --    1.44543   1.44903   1.45395   1.45635   1.45824
 Alpha virt. eigenvalues --    1.46310   1.46937   1.47111   1.47268   1.47707
 Alpha virt. eigenvalues --    1.48253   1.48845   1.49054   1.49306   1.49674
 Alpha virt. eigenvalues --    1.49735   1.50174   1.50427   1.50835   1.50945
 Alpha virt. eigenvalues --    1.51232   1.51634   1.52007   1.52359   1.52448
 Alpha virt. eigenvalues --    1.52734   1.53409   1.54127   1.54219   1.54437
 Alpha virt. eigenvalues --    1.54990   1.55063   1.55269   1.55422   1.55727
 Alpha virt. eigenvalues --    1.56173   1.56660   1.57157   1.57426   1.57485
 Alpha virt. eigenvalues --    1.57646   1.58326   1.58350   1.58443   1.58761
 Alpha virt. eigenvalues --    1.58975   1.59146   1.59364   1.59496   1.59631
 Alpha virt. eigenvalues --    1.59831   1.60117   1.60154   1.60402   1.60465
 Alpha virt. eigenvalues --    1.60532   1.60850   1.60957   1.61054   1.61148
 Alpha virt. eigenvalues --    1.61291   1.61486   1.61707   1.61893   1.62122
 Alpha virt. eigenvalues --    1.62283   1.62379   1.62613   1.63297   1.63555
 Alpha virt. eigenvalues --    1.63610   1.63871   1.64218   1.64410   1.64643
 Alpha virt. eigenvalues --    1.64814   1.65003   1.65166   1.65360   1.65543
 Alpha virt. eigenvalues --    1.66021   1.66158   1.66437   1.66698   1.67040
 Alpha virt. eigenvalues --    1.67222   1.67353   1.67738   1.67922   1.68277
 Alpha virt. eigenvalues --    1.68368   1.68698   1.68729   1.68988   1.69157
 Alpha virt. eigenvalues --    1.69399   1.69526   1.70300   1.70710   1.71172
 Alpha virt. eigenvalues --    1.71325   1.71690   1.71845   1.72579   1.72942
 Alpha virt. eigenvalues --    1.73198   1.74460   1.75678   1.76220   1.76602
 Alpha virt. eigenvalues --    1.76694   1.76828   1.76995   1.77448   1.77932
 Alpha virt. eigenvalues --    1.78608   1.79117   1.79306   1.79484   1.79776
 Alpha virt. eigenvalues --    1.80395   1.81478   1.81599   1.81943   1.82153
 Alpha virt. eigenvalues --    1.83183   1.83466   1.84604   1.84669   1.84795
 Alpha virt. eigenvalues --    1.84906   1.85116   1.85375   1.85849   1.86034
 Alpha virt. eigenvalues --    1.86354   1.86586   1.86946   1.87440   1.87962
 Alpha virt. eigenvalues --    1.88164   1.88395   1.88462   1.88638   1.88721
 Alpha virt. eigenvalues --    1.89016   1.89102   1.89432   1.89515   1.89777
 Alpha virt. eigenvalues --    1.90047   1.90391   1.90631   1.90874   1.91165
 Alpha virt. eigenvalues --    1.91477   1.92002   1.92057   1.92333   1.92682
 Alpha virt. eigenvalues --    1.93493   1.93560   1.93672   1.94058   1.94221
 Alpha virt. eigenvalues --    1.94869   1.94976   1.95120   1.95404   1.95661
 Alpha virt. eigenvalues --    1.95687   1.95900   1.96145   1.96386   1.96423
 Alpha virt. eigenvalues --    1.96728   1.96787   1.96828   1.96880   1.97145
 Alpha virt. eigenvalues --    1.97307   1.97469   1.97874   1.98062   1.98193
 Alpha virt. eigenvalues --    1.98325   1.98532   1.98811   1.99257   1.99622
 Alpha virt. eigenvalues --    1.99705   2.00028   2.00282   2.01109   2.01281
 Alpha virt. eigenvalues --    2.01611   2.01770   2.01873   2.01993   2.02172
 Alpha virt. eigenvalues --    2.02521   2.02689   2.03112   2.03277   2.03471
 Alpha virt. eigenvalues --    2.03666   2.04458   2.04885   2.05026   2.05192
 Alpha virt. eigenvalues --    2.05561   2.05861   2.06094   2.06217   2.06373
 Alpha virt. eigenvalues --    2.06679   2.06895   2.07061   2.07137   2.07582
 Alpha virt. eigenvalues --    2.07826   2.08252   2.08515   2.09119   2.09206
 Alpha virt. eigenvalues --    2.09350   2.09486   2.09583   2.09667   2.09898
 Alpha virt. eigenvalues --    2.10024   2.10192   2.10446   2.10513   2.10694
 Alpha virt. eigenvalues --    2.10907   2.11002   2.11108   2.11300   2.11396
 Alpha virt. eigenvalues --    2.11571   2.11721   2.11939   2.11949   2.12205
 Alpha virt. eigenvalues --    2.12288   2.12646   2.12765   2.12842   2.13029
 Alpha virt. eigenvalues --    2.13121   2.13344   2.13645   2.13857   2.13970
 Alpha virt. eigenvalues --    2.14021   2.14136   2.14546   2.14888   2.15045
 Alpha virt. eigenvalues --    2.15153   2.15387   2.15518   2.15748   2.15923
 Alpha virt. eigenvalues --    2.16060   2.16300   2.16358   2.16602   2.16863
 Alpha virt. eigenvalues --    2.17068   2.17169   2.17380   2.17521   2.17746
 Alpha virt. eigenvalues --    2.17840   2.18101   2.18337   2.18485   2.18801
 Alpha virt. eigenvalues --    2.18914   2.19051   2.19441   2.19585   2.19855
 Alpha virt. eigenvalues --    2.19981   2.20135   2.20337   2.20932   2.21210
 Alpha virt. eigenvalues --    2.21350   2.21431   2.21769   2.21824   2.21967
 Alpha virt. eigenvalues --    2.22142   2.22520   2.22690   2.23191   2.23504
 Alpha virt. eigenvalues --    2.23610   2.23937   2.24137   2.25101   2.25421
 Alpha virt. eigenvalues --    2.25557   2.25868   2.26369   2.26458   2.26637
 Alpha virt. eigenvalues --    2.26685   2.26801   2.27314   2.27546   2.27757
 Alpha virt. eigenvalues --    2.28111   2.28332   2.28429   2.28882   2.29018
 Alpha virt. eigenvalues --    2.29074   2.29327   2.29559   2.29759   2.29979
 Alpha virt. eigenvalues --    2.30208   2.30257   2.30447   2.30729   2.30863
 Alpha virt. eigenvalues --    2.31107   2.31282   2.31593   2.31954   2.32390
 Alpha virt. eigenvalues --    2.32602   2.32901   2.33048   2.33151   2.33321
 Alpha virt. eigenvalues --    2.33387   2.34431   2.34874   2.35197   2.35241
 Alpha virt. eigenvalues --    2.35347   2.35835   2.36005   2.36315   2.36427
 Alpha virt. eigenvalues --    2.37061   2.37147   2.37484   2.37578   2.37701
 Alpha virt. eigenvalues --    2.37884   2.38595   2.39397   2.39493   2.39842
 Alpha virt. eigenvalues --    2.39884   2.40214   2.40653   2.40742   2.40859
 Alpha virt. eigenvalues --    2.40925   2.41209   2.41370   2.41494   2.41692
 Alpha virt. eigenvalues --    2.41807   2.41991   2.42140   2.42250   2.42446
 Alpha virt. eigenvalues --    2.42719   2.42917   2.42996   2.43291   2.43459
 Alpha virt. eigenvalues --    2.43651   2.43863   2.44018   2.44071   2.44185
 Alpha virt. eigenvalues --    2.44394   2.44560   2.44865   2.44876   2.44987
 Alpha virt. eigenvalues --    2.45088   2.45245   2.45307   2.45318   2.45547
 Alpha virt. eigenvalues --    2.45687   2.45875   2.45995   2.46365   2.46440
 Alpha virt. eigenvalues --    2.46841   2.46980   2.47218   2.47371   2.47446
 Alpha virt. eigenvalues --    2.47926   2.48107   2.48124   2.48238   2.48326
 Alpha virt. eigenvalues --    2.48515   2.48759   2.49214   2.49503   2.49632
 Alpha virt. eigenvalues --    2.49886   2.50198   2.50509   2.50780   2.50819
 Alpha virt. eigenvalues --    2.50915   2.51255   2.51411   2.51805   2.51816
 Alpha virt. eigenvalues --    2.52136   2.52185   2.52342   2.52868   2.52916
 Alpha virt. eigenvalues --    2.53219   2.53529   2.53641   2.53890   2.54175
 Alpha virt. eigenvalues --    2.54536   2.54872   2.54989   2.55846   2.56087
 Alpha virt. eigenvalues --    2.56847   2.57196   2.57414   2.57560   2.58063
 Alpha virt. eigenvalues --    2.58298   2.59001   2.59477   2.59754   2.60283
 Alpha virt. eigenvalues --    2.61165   2.61331   2.62291   2.62814   2.63059
 Alpha virt. eigenvalues --    2.63495   2.64360   2.64539   2.65100   2.65291
 Alpha virt. eigenvalues --    2.65560   2.65916   2.66027   2.66419   2.66930
 Alpha virt. eigenvalues --    2.67170   2.67317   2.67608   2.67805   2.68165
 Alpha virt. eigenvalues --    2.68595   2.68620   2.68696   2.68904   2.69368
 Alpha virt. eigenvalues --    2.69710   2.69892   2.70135   2.70667   2.71060
 Alpha virt. eigenvalues --    2.71227   2.71609   2.72081   2.72364   2.73307
 Alpha virt. eigenvalues --    2.73541   2.74132   2.74191   2.74871   2.75117
 Alpha virt. eigenvalues --    2.75199   2.75572   2.75641   2.75888   2.76237
 Alpha virt. eigenvalues --    2.76715   2.77532   2.77950   2.78249   2.79218
 Alpha virt. eigenvalues --    2.79381   2.79918   2.80119   2.80589   2.80995
 Alpha virt. eigenvalues --    2.81033   2.81603   2.82369   2.82850   2.83283
 Alpha virt. eigenvalues --    2.83405   2.83431   2.83647   2.83923   2.84096
 Alpha virt. eigenvalues --    2.84314   2.85368   2.85599   2.85819   2.85905
 Alpha virt. eigenvalues --    2.86203   2.86393   2.86823   2.87310   2.87700
 Alpha virt. eigenvalues --    2.88114   2.88302   2.88799   2.89216   2.89518
 Alpha virt. eigenvalues --    2.90270   2.90481   2.90819   2.91234   2.91351
 Alpha virt. eigenvalues --    2.91805   2.91988   2.92282   2.92395   2.92942
 Alpha virt. eigenvalues --    2.93104   2.93571   2.94065   2.94236   2.95241
 Alpha virt. eigenvalues --    2.96361   2.96606   2.96856   2.98144   2.98232
 Alpha virt. eigenvalues --    2.99912   3.00874   3.02517   3.02538   3.02778
 Alpha virt. eigenvalues --    3.04183   3.04806   3.05956   3.06313   3.06793
 Alpha virt. eigenvalues --    3.07753   3.09307   3.10531   3.11732   3.12136
 Alpha virt. eigenvalues --    3.12612   3.13028   3.13780   3.18446   3.19285
 Alpha virt. eigenvalues --    3.19588   3.19818   3.20708   3.21648   3.23773
 Alpha virt. eigenvalues --    3.24404   3.24983   3.28169   3.28935   3.29716
 Alpha virt. eigenvalues --    3.30812   3.33729   3.35406   3.35917   3.43970
 Alpha virt. eigenvalues --    3.57805   3.59388   3.64180   3.97648   4.09029
 Alpha virt. eigenvalues --    4.11697   4.12379   4.17416   4.18911   4.19198
 Alpha virt. eigenvalues --    4.23221   4.27477   4.29237   4.29404   4.30220
 Alpha virt. eigenvalues --    4.30743   4.30787   4.31399   4.31628   4.32647
 Alpha virt. eigenvalues --    4.33002   4.33204   4.33792   4.33960   4.34382
 Alpha virt. eigenvalues --    4.35328   4.35695   4.36012   4.36692   4.36806
 Alpha virt. eigenvalues --    4.37065   4.37504   4.37785   4.38164   4.38378
 Alpha virt. eigenvalues --    4.38703   4.39360   4.39879   4.41171   4.42200
 Alpha virt. eigenvalues --    4.42784   4.43498   4.45132   4.45157   4.45709
 Alpha virt. eigenvalues --    4.46405   4.47536   4.47809   4.48299   4.48446
 Alpha virt. eigenvalues --    4.48653   4.49215   4.49630   4.50225   4.51038
 Alpha virt. eigenvalues --    4.51403   4.51722   4.52057   4.52417   4.52642
 Alpha virt. eigenvalues --    4.53540   4.54276   4.54402   4.54875   4.55792
 Alpha virt. eigenvalues --    4.56200   4.56623   4.57684   4.58295   4.58756
 Alpha virt. eigenvalues --    4.59479   4.60368   4.60781   4.61997   4.63201
[...]
   77 Atom       -0.040926      0.008701      0.032225
   78 Atom       -0.292420      0.143325      0.149095
   79 Atom       -0.290560      0.143889      0.146672
   80 Atom       -0.292262      0.142716      0.149546
   81 Atom       -0.291893      0.143265      0.148628
   82 Atom       -0.292142      0.141782      0.150360
   83 Atom       -0.047210      0.015695      0.031514
   84 Atom       -0.292547      0.143390      0.149158
   85 Atom       -0.030549     -0.010045      0.040594
   86 Atom       -0.286317      0.139776      0.146542
   87 Atom       -0.285236      0.141412      0.143824
   88 Atom       -0.263009      0.089459      0.173550
   89 Atom       -0.230902      0.077584      0.153318
   90 Atom       -0.300728      0.140256      0.160472
   91 Atom       -0.274373      0.110591      0.163782
   92 Atom       -0.299668      0.141621      0.158047
   93 Atom       -0.299618      0.135398      0.164220
   94 Atom       -0.296342      0.143170      0.153172
   95 Atom       -0.311660      0.147894      0.163766
   96 Atom       -0.296211      0.142872      0.153339
   97 Atom       -0.233258      0.074214      0.159044
   98 Atom       -0.301142      0.140597      0.160545
   99 Atom       -0.290955      0.141965      0.148990
  100 Atom       -0.288759      0.141681      0.147078
  101 Atom       -0.008581     -0.001245      0.009826
  102 Atom       -0.289491      0.143336      0.146155
  103 Atom       -0.043993     -0.016159      0.060152
  104 Atom       -0.272729      0.134626      0.138103
  105 Atom       -0.024505      0.007546      0.016959
  106 Atom       -0.288343      0.140981      0.147362
  107 Atom       -0.289556      0.141919      0.147637
  108 Atom       -0.290527      0.142508      0.148019
  109 Atom       -0.027188      0.012299      0.014889
  110 Atom       -0.292952      0.143143      0.149809
  111 Atom       -0.290700      0.142906      0.147794
  112 Atom       -0.288418      0.141269      0.147149
  113 Atom       -0.290277      0.144000      0.146277
  114 Atom       -0.289344      0.144062      0.145282
  115 Atom       -0.029038     -0.001159      0.030197
  116 Atom       -0.293889      0.144330      0.149559
  117 Atom       -0.045788     -0.005311      0.051099
  118 Atom       -0.284187      0.138905      0.145282
  119 Atom       -0.283459      0.137885      0.145574
  120 Atom       -0.252266      0.065356      0.186910
  121 Atom       -0.286528      0.135515      0.151013
  122 Atom       -0.263163      0.126739      0.136424
  123 Atom       -2.280716     -0.525764      2.806481
  124 Atom       -0.204878      0.099677      0.105201
  125 Atom       -0.290540      0.141223      0.149317
  126 Atom       -0.293815      0.140506      0.153310
  127 Atom       -0.292785      0.142408      0.150377
  128 Atom       -0.290143      0.142384      0.147759
  129 Atom       -0.293432      0.144732      0.148700
  130 Atom       -0.013875      0.001566      0.012310
  131 Atom       -0.292953      0.144754      0.148199
  132 Atom       -0.038893      0.012159      0.026734
  133 Atom       -0.282216      0.138332      0.143884
  134 Atom       -0.282280      0.137908      0.144372
  135 Atom       -0.028711      0.001043      0.027668
  136 Atom       -0.277885      0.137410      0.140476
  137 Atom       -0.022211      0.000884      0.021327
  138 Atom       -0.290780      0.141459      0.149320
  139 Atom       -0.289249      0.140486      0.148764
  140 Atom       -0.293166      0.144233      0.148933
  141 Atom       -0.050939      0.010859      0.040079
  142 Atom       -0.289717      0.140644      0.149073
  143 Atom       -0.290835      0.140688      0.150147
  144 Atom       -0.284921      0.137592      0.147329
  145 Atom       -0.290168      0.142859      0.147310
  146 Atom       -0.291403      0.143140      0.148263
  147 Atom       -0.009072     -0.003390      0.012462
  148 Atom       -0.289149      0.142341      0.146808
  149 Atom       -0.037759     -0.012492      0.050251
  150 Atom       -0.277152      0.138271      0.138882
  151 Atom       -0.026733     -0.009320      0.036053
  152 Atom       -0.288148      0.141109      0.147038
  153 Atom       -0.284511      0.140086      0.144425
  154 Atom       -0.291767      0.142535      0.149232
  155 Atom       -0.033386      0.005689      0.027697
  156 Atom       -0.290731      0.141699      0.149032
  157 Atom       -0.291464      0.141963      0.149501
  158 Atom       -0.279334      0.136112      0.143222
  159 Atom       -0.292190      0.143798      0.148391
  160 Atom       -0.294121      0.141502      0.152619
  161 Atom       -0.063278      0.017911      0.045367
  162 Atom       -0.290639      0.139593      0.151046
  163 Atom       -0.050295      0.018812      0.031483
  164 Atom       -0.287834      0.140334      0.147500
  165 Atom       -0.285195      0.137439      0.147756
  166 Atom       -0.401329      0.051235      0.350094
  167 Atom       -0.779520     -0.729317      1.508837
  168 Atom       -1.232677      0.423545      0.809132
  169 Atom       -0.265009      0.117678      0.147331
  170 Atom       -0.294056      0.143410      0.150646
  171 Atom       -0.294248      0.144525      0.149723
  172 Atom       -0.031228     -0.003603      0.034831
  173 Atom       -0.291080      0.142101      0.148979
  174 Atom       -0.052468     -0.002867      0.055336
  175 Atom       -0.285816      0.138054      0.147762
  176 Atom       -0.286787      0.138776      0.148011
  177 Atom       -0.192958      0.069676      0.123282
  178 Atom       -0.286667      0.137860      0.148807
  179 Atom       -0.290058      0.138484      0.151573
  180 Atom       -2.266958     -0.474534      2.741492
  181 Atom       -0.260705      0.087351      0.173354
  182 Atom       -0.296307      0.142549      0.153759
  183 Atom       -0.263688      0.125008      0.138680
  184 Atom       -0.290583      0.136202      0.154381
  185 Atom       -0.289162      0.143152      0.146010
  186 Atom       -0.289687      0.142043      0.147644
  187 Atom       -0.038079     -0.001471      0.039550
  188 Atom       -0.292300      0.142595      0.149704
  189 Atom       -0.055420      0.015749      0.039670
  190 Atom       -0.286612      0.140566      0.146046
  191 Atom       -0.287595      0.140773      0.146822
  192 Atom       -0.290463      0.141677      0.148786
  193 Atom       -0.292176      0.141947      0.150229
  194 Atom       -0.292540      0.143499      0.149041
  195 Atom       -0.035070      0.010430      0.024641
  196 Atom       -0.292808      0.143857      0.148952
  197 Atom       -0.039714     -0.001437      0.041151
  198 Atom       -0.282332      0.139363      0.142968
  199 Atom       -0.285488      0.139575      0.145913
  200 Atom       -0.068935      0.006985      0.061950
  201 Atom       -0.116893     -0.087491      0.204384
  202 Atom       -0.309276      0.141921      0.167355
  203 Atom       -0.422321     -0.122754      0.545075
  204 Atom       -0.259106      0.105557      0.153549
  205 Atom       -0.152695     -0.077024      0.229718
  206 Atom       -0.213749      0.078881      0.134867
  207 Atom       -0.301696      0.142297      0.159399
  208 Atom       -0.215172      0.082868      0.132304
  209 Atom       -0.305377      0.142313      0.163064
  210 Atom       -0.188599      0.063426      0.125172
  211 Atom       -0.306108      0.142080      0.164029
  212 Atom       -0.221229      0.075547      0.145682
  213 Atom       -0.304853      0.143513      0.161340
  214 Atom       -0.188886      0.079902      0.108984
  215 Atom       -0.292679      0.142640      0.150039
  216 Atom       -0.539249      0.189752      0.349497
  217 Atom       -0.798456     -0.727104      1.525559
  218 Atom       -0.117316      0.009435      0.107882
  219 Atom       -0.519911      0.217254      0.302657
  220 Atom       -0.058982      0.009112      0.049870
  221 Atom       -0.042172     -0.001492      0.043664
  222 Atom       -0.027035     -0.017383      0.044419
  223 Atom       -0.110346     -0.002295      0.112641
  224 Atom       -0.040424     -0.014095      0.054519
  225 Atom       -0.052923     -0.015438      0.068361
  226 Atom       -0.034273      0.002127      0.032146
  227 Atom       -0.025189      0.000316      0.024873
  228 Atom       -0.046791      0.010141      0.036650
  229 Atom       -0.028380     -0.000828      0.029209
  230 Atom       -0.021844      0.000137      0.021707
  231 Atom       -0.064436      0.003396      0.061040
  232 Atom       -0.026837     -0.001870      0.028707
  233 Atom       -0.322615      0.120549      0.202065
  234 Atom       -0.039908      0.000526      0.039382
  235 Atom       -1.636755     -0.072457      1.709212
  236 Atom       -0.297800      0.133542      0.164259
  237 Atom       -0.259956      0.126227      0.133730
  238 Atom       -0.279617      0.136788      0.142829
  239 Atom       -0.289745      0.141356      0.148389
  240 Atom       -0.280846      0.137750      0.143095
  241 Atom       -0.287349      0.141732      0.145617
  242 Atom       -0.285187      0.135141      0.150045
  243 Atom       -0.250288      0.120720      0.129567
  244 Atom       -0.282382      0.138661      0.143721
  245 Atom       -0.283010      0.139765      0.143245
  246 Atom       -0.266423      0.131244      0.135179
  247 Atom       -0.271996      0.134514      0.137482
  248 Atom       -0.268463      0.132515      0.135948
  249 Atom       -0.279010      0.137165      0.141844
  250 Atom       -0.287053      0.141672      0.145381
  251 Atom       -0.281164      0.138347      0.142817
  252 Atom       -0.285508      0.141202      0.144306
  253 Atom       -0.289338      0.142836      0.146502
  254 Atom       -0.286402      0.141189      0.145213
  255 Atom       -0.292818      0.145685      0.147133
  256 Atom       -0.291635      0.144030      0.147605
  257 Atom       -0.266744      0.125427      0.141317
  258 Atom       -0.292606      0.141661      0.150945
  259 Atom       -0.282634      0.137042      0.145592
  260 Atom       -0.286409      0.139256      0.147153
  261 Atom       -0.423902      0.184621      0.239280
  262 Atom       -1.318738     -0.219784      1.538522
  263 Atom       -0.408551      0.178037      0.230514
  264 Atom       -0.378195      0.164210      0.213985
 -----------------------------------------------------
 Unable to Open any file for archive entry.
 1\1\GINC-EXP-2-07\SP\RwB97XD\6-31G(d)\C88H163N2O9S2(1-)\HKLEM\16-Jul-2
 024\0\\# 6-31G(d) wb97xd prop=efg\\19nt_xstal_distance_cutoff3\\-1,1\H
 ,0,2.891237,9.095159,5.001275\C,-1,2.080301,9.092977,4.26645\H,0,1.947
 691,10.121124,3.91145\C,0,2.411827,8.141256,3.117326\H,0,3.364652,8.44
 6189,2.665255\H,0,2.588085,7.137647,3.52518\C,0,1.366873,8.036583,2.02
 2325\C,0,0.171559,8.750948,2.044023\H,0,-0.046018,9.428957,2.863657\C,
 0,-0.778953,8.610812,1.033651\H,0,-1.712623,9.16707,1.08663\C,0,-0.543
 282,7.741649,-0.024806\O,0,-1.450607,7.526148,-1.022117\H,0,-2.261079,
 8.009143,-0.82113\C,0,0.658768,7.036709,-0.081657\H,0,0.836856,6.36240
 2,-0.912371\C,0,1.590935,7.180715,0.93455\H,0,2.506873,6.594682,0.8871
 02\H,0,1.16263,8.791431,4.783503\H,0,-2.809892,7.323199,2.774601\C,-1,
 -3.24924,6.479,2.23235\H,0,-3.03997,6.621665,1.163992\C,-1,-2.66103,5.
 147277,2.706408\H,0,-2.894641,5.034068,3.774677\C,0,-3.294944,3.974974
 ,1.954304\H,0,-3.085947,4.056477,0.880003\H,0,-2.893972,3.015093,2.299
 821\H,0,-4.383873,3.950133,2.079201\C,0,-1.140201,5.137236,2.54345\H,0
 ,-0.670973,5.970956,3.077514\H,0,-0.70526,4.201764,2.913132\H,0,-0.870
 502,5.238376,1.485996\H,0,-4.337042,6.505602,2.369847\H,0,6.310936,-2.
 125442,-6.006341\C,-1,5.292858,-1.745766,-5.865698\H,0,4.595628,-2.461
 578,-6.31597\C,0,4.981122,-1.537179,-4.383608\H,0,5.059606,-2.485232,-
 3.839679\H,0,5.716738,-0.841041,-3.963092\C,-1,3.585933,-0.930711,-4.1
 83644\O,0,2.720321,-1.643806,-3.577685\O,0,3.38897,0.214413,-4.641567\
 H,0,5.198315,-0.795869,-6.399989\H,0,-5.216018,2.070577,-6.826485\C,-1
 ,-5.129534,1.367572,-5.993341\H,0,-5.436111,0.373101,-6.324412\H,0,-4.
 078024,1.301598,-5.694084\C,0,-5.953013,1.753682,-4.786099\O,0,-6.1718
 7,0.967885,-3.86908\N,0,-6.412942,3.031304,-4.787452\H,0,-6.154672,3.6
 28971,-5.557455\C,-1,-7.154495,3.619216,-3.691107\H,0,-7.316621,2.8188
 89,-2.966131\C,-1,-6.437886,4.811803,-3.048653\H,0,-6.381311,5.63407,-
 3.77759\H,0,-7.073876,5.174666,-2.228531\C,0,-5.030194,4.526115,-2.505
 558\H,0,-4.391487,4.242998,-3.353769\C,0,-4.439683,5.78972,-1.872081\H
 ,0,-5.010863,6.074264,-0.978227\H,0,-3.399252,5.631548,-1.568639\H,0,-
 4.459535,6.635445,-2.570814\C,0,-5.026442,3.367977,-1.508176\H,0,-5.30
 5248,2.424198,-1.984548\H,0,-4.031809,3.233152,-1.072839\H,0,-5.728018
 ,3.558114,-0.684915\H,0,-8.141264,3.937313,-4.050951\H,0,-9.85259,0.64
 613,0.896803\C,-1,-8.92007,0.678694,1.472692\H,0,-8.68388,-0.343895,1.
 794617\C,0,-7.769174,1.250405,0.635431\H,0,-8.036453,2.280481,0.353459
 \C,0,-6.473397,1.300072,1.450897\H,-1,-6.170375,0.287224,1.744545\H,0,
 -5.650335,1.73215,0.870839\H,0,-6.595288,1.896086,2.363735\C,0,-7.5686
 57,0.442485,-0.647813\H,-1,-8.507407,0.328234,-1.203249\H,0,-6.844108,
 0.908823,-1.321526\H,0,-7.187157,-0.559115,-0.42344\H,0,-9.096003,1.27
 9083,2.37329\H,0,3.133918,-1.52869,7.83181\C,-1,2.043758,-1.590127,7.9
 14409\H,0,1.793387,-1.797923,8.960893\C,0,1.38272,-0.294409,7.431992\H
 ,0,0.296067,-0.36951,7.557569\H,0,1.713663,0.537276,8.067868\C,0,1.707
 685,0.008228,5.987467\C,0,0.733931,-0.062883,4.991089\H,0,-0.29007,-0.
 313524,5.261372\C,0,1.057576,0.183119,3.657377\H,0,0.287756,0.11282,2.
 892011\C,0,2.364237,0.503566,3.306261\H,0,2.630384,0.695544,2.273163\C
 ,0,3.346582,0.57781,4.291745\H,0,4.362957,0.821763,4.001237\C,-1,3.016
 857,0.333587,5.61865\H,0,3.786775,0.395492,6.385866\H,0,1.714875,-2.43
 9099,7.305807\H,0,-3.217964,-2.17278,5.284863\C,-1,-3.705495,-2.513869
 ,4.361901\H,0,-4.76762,-2.248284,4.424156\C,0,-3.041701,-1.876647,3.13
 5399\H,-1,-3.601737,-2.190734,2.24338\C,0,-3.102335,-0.349033,3.208995
 \H,0,-2.558698,0.020662,4.089057\H,0,-2.647882,0.106797,2.321948\H,0,-
 4.136631,0.007933,3.274452\C,0,-1.602571,-2.365773,2.982449\H,0,-1.567
 759,-3.456583,2.903084\H,0,-1.134282,-1.955845,2.08117\H,0,-0.984782,-
 2.073368,3.84035\H,0,-3.621893,-3.60706,4.333471\H,0,-8.92966,-3.85843
 4,2.213188\C,-1,-9.346592,-4.157044,1.245541\H,0,-10.437202,-4.080042,
 1.310896\C,0,-8.798706,-3.27462,0.126504\H,0,-9.265586,-3.551275,-0.82
 839\H,0,-9.073259,-2.229383,0.313392\C,0,-7.284123,-3.363405,-0.058099
 \H,-1,-6.982241,-4.388011,-0.305033\H,0,-6.958302,-2.730064,-0.88946\S
 ,0,-6.323466,-2.855422,1.416038\C,0,-5.866926,-4.479996,2.083257\H,0,-
 5.236621,-5.02642,1.375352\H,0,-5.29525,-4.309072,2.997576\H,0,-6.7502
 33,-5.076989,2.326436\H,0,-9.094237,-5.211257,1.075516\H,0,-3.090705,-
 7.814747,3.381463\C,-1,-2.070917,-7.42782,3.276836\H,0,-1.391403,-8.28
 6265,3.254024\C,0,-1.9352,-6.567819,2.019937\H,0,-2.121952,-7.187318,1
 .13081\H,0,-2.719603,-5.797351,2.025455\C,-1,-0.577752,-5.869261,1.851
 385\H,0,-0.437931,-5.20009,2.713712\C,0,0.596274,-6.849235,1.845011\H,
 0,0.465917,-7.602916,1.059499\H,0,1.529029,-6.314282,1.637279\H,0,0.70
 8185,-7.365491,2.805141\C,0,-0.578658,-5.021606,0.57826\H,0,-1.386561,
 -4.279914,0.59434\H,-1,0.366829,-4.486303,0.453231\H,0,-0.709937,-5.65
 3709,-0.307966\H,0,-1.839947,-6.844391,4.176817\H,0,2.745938,-5.054418
 ,4.089514\C,-1,3.637255,-4.593344,3.647004\H,0,3.92951,-5.199437,2.781
 865\C,0,3.357883,-3.148195,3.218776\H,0,3.076548,-2.567422,4.108813\C,
 0,4.609207,-2.505302,2.615164\H,0,4.91121,-3.041072,1.704902\H,0,4.432
 442,-1.456419,2.351389\H,0,5.451235,-2.53497,3.318022\C,0,2.19354,-3.0
 87889,2.229613\H,0,1.28365,-3.529736,2.653872\H,0,1.966058,-2.050715,1
 .963315\H,-1,2.437137,-3.631619,1.306658\H,0,4.448319,-4.643026,4.3837
 09\H,0,7.572649,0.827587,3.40222\C,-1,7.795959,0.293969,2.473519\H,0,7
 .140353,-0.580609,2.433297\C,0,7.573314,1.184834,1.264277\H,0,8.228114
 ,2.063614,1.275442\H,0,7.810145,0.645597,0.33982\C,0,6.14396,1.66515,1
 .152711\O,0,5.244667,1.281024,1.874984\O,0,5.981768,2.541775,0.172301\
 H,0,5.027648,2.86236,0.169311\H,0,8.834241,-0.050765,2.513378\H,0,9.66
 5767,5.146559,-2.308831\C,-1,9.567921,4.120446,-2.679286\H,0,10.552262
 ,3.640883,-2.611093\C,0,8.525176,3.342956,-1.877651\H,0,8.827921,3.304
 618,-0.822529\H,-1,7.562314,3.865041,-1.889726\C,0,8.320658,1.902571,-
 2.350647\H,0,9.285987,1.390285,-2.443085\H,0,7.728078,1.35469,-1.61330
 1\S,0,7.494345,1.680691,-3.960665\C,0,5.799864,2.190263,-3.531164\H,0,
 5.662798,3.267521,-3.655731\H,0,5.096323,1.643676,-4.168663\H,0,5.5877
 83,1.925549,-2.491303\H,0,9.28958,4.163582,-3.737763\H,0,7.24822,-1.53
 8098,-2.367938\C,-1,6.941445,-1.764384,-1.342134\H,0,7.765342,-1.48213
 2,-0.675332\C,0,5.655643,-1.021754,-0.979992\H,-1,4.813054,-1.344943,-
 1.600391\H,0,5.380645,-1.175287,0.069633\H,0,5.767919,0.056517,-1.1386
 3\H,0,6.814408,-2.850029,-1.263493\H,0,5.727836,-7.451209,-1.038011\C,
 -1,4.987718,-7.727138,-0.279372\H,0,5.490552,-8.312175,0.499247\C,0,4.
 329241,-6.473515,0.313443\H,0,3.640095,-6.788732,1.109151\H,0,5.097335
 ,-5.860997,0.802568\C,0,3.597439,-5.629222,-0.688806\C,0,3.91138,-4.35
 1226,-1.084452\H,0,4.722575,-3.717785,-0.749671\N,0,3.022179,-3.892616
 ,-2.020451\H,0,3.04681,-3.001515,-2.551575\C,-1,2.103293,-4.877974,-2.
 256463\C,0,0.999806,-4.872548,-3.11558\H,0,0.781059,-3.996753,-3.71897
 8\C,0,0.216332,-6.012645,-3.157827\H,0,-0.653136,-6.038455,-3.809011\C
 ,0,0.526814,-7.140332,-2.370103\H,0,-0.106447,-8.021632,-2.430614\C,0,
 1.619537,-7.138669,-1.519768\H,0,1.844726,-8.012278,-0.913112\C,0,2.42
 6957,-5.992333,-1.443035\H,0,4.24542,-8.369928,-0.76366\C,0,2.53004,2.
 818039,0.048041\O,0,3.536886,3.525657,0.177476\C,0,2.583161,1.380034,-
 0.123923\C,0,1.494215,0.634534,-0.432826\C,0,0.126047,1.271798,-0.5663
 07\C,0,0.036248,2.522834,0.309703\C,-1,1.176575,3.482569,0.007322\C,0,
 1.671351,-0.810519,-0.793152\C,0,0.427932,-1.695262,-0.683871\C,0,-0.8
 02994,-0.96417,-1.217622\C,0,-1.033252,0.282925,-0.332971\C,0,-2.05434
 1,-1.826414,-1.297972\C,0,-3.291688,-1.021489,-1.741479\C,0,-3.579156,
 0.032407,-0.679467\C,0,-2.389748,0.986562,-0.541558\C,0,-2.052198,-3.0
 37726,-2.245223\C,0,-3.556309,-3.307049,-2.523225\C,0,-4.32792,-2.1513
 69,-1.833445\C,0,-3.107203,-0.363745,-3.12599\O,0,-5.568006,-1.836817,
 -2.445481\H,-1,3.561244,0.911796,-0.054281\H,0,0.062689,1.56688,-1.628
 356\H,0,0.069441,2.225646,1.36763\H,0,-0.915758,3.037642,0.153495\H,0,
 1.059071,3.883468,-1.010752\H,0,1.192646,4.338328,0.687795\H,0,2.51327
 6,-1.234633,-0.23261\H,0,1.986022,-0.812256,-1.847522\H,0,0.250671,-1.
 998059,0.357236\H,0,0.610295,-2.616638,-1.247646\H,0,-0.558992,-0.6149
 13,-2.227034\H,-1,-0.999296,-0.056307,0.716943\H,0,-2.273811,-2.195623
 ,-0.280131\H,0,-3.773724,-0.470876,0.278382\H,0,-4.486722,0.597014,-0.
 922961\H,0,-2.32712,1.617034,-1.439379\H,0,-2.579176,1.667979,0.296008
 \H,0,-1.536228,-3.901693,-1.820542\H,0,-1.52226,-2.782133,-3.170962\H,
 0,-3.882288,-4.278412,-2.137169\H,0,-3.7819,-3.30101,-3.594891\H,0,-4.
 571435,-2.45646,-0.807453\H,0,-3.104748,-1.104963,-3.932093\H,0,-3.927
 767,0.33605,-3.320246\H,0,-2.171382,0.193782,-3.212001\H,0,-5.497109,-
 1.019774,-2.960504\O,-1,0.696354,0.361865,-3.912221\H,0,0.974432,-0.56
 2238,-3.790764\H,0,1.564998,0.699001,-4.211619\\Version=ES64L-G16RevC.
 01\State=1-A\HF=-5033.5312942\RMSD=3.749e-09\Dipole=-4.5908993,3.11725
 25,2.9234043\Quadrupole=-21.2200957,15.7861303,5.4339654,-20.874357,49
 .9769805,-12.3046668\PG=C01 [X(C88H163N2O9S2)]\\@
 The archive entry for this job was punched.


 THE FIRST MORNING OF CREATION WROTE WHAT THE LAST DAWN OF
 RECKONING SHALL READ. -- OMAR KHAYYAM
 Job cpu time:       0 days  3 hours 37 minutes 37.2 seconds.
 Elapsed time:       0 days  0 hours  7 minutes  4.9 seconds.
 File lengths (MBytes):  RWF=   1838 Int=      0 D2E=      0 Chk=    198 Scr=      1
 Normal termination of Gaussian 16 at Tue Jul 16 07:24:35 2024.
