 Entering Gaussian System, Link 0=g16
 Input=cutoff8_new.com
 Output=cutoff8_new.log
 Initial command:
 /usr/local/packages/license/gaussian/g16-c01/g16/l1.exe "/work/arkanil/gauss_scratch/Gau-2775332.inp" -scrdir="/work/arkanil/gauss_scratch/"
 Entering Link 1 = /usr/local/packages/license/gaussian/g16-c01/g16/l1.exe PID=   2775333.
  
 Copyright (c) 1988-2019, Gaussian, Inc.  All Rights Reserved.
  
 This is part of the Gaussian(R) 16 program.  It is based on
 the Gaussian(R) 09 system (copyright 2009, Gaussian, Inc.),
 the Gaussian(R) 03 system (copyright 2003, Gaussian, Inc.),
 the Gaussian(R) 98 system (copyright 1998, Gaussian, Inc.),
 the Gaussian(R) 94 system (copyright 1995, Gaussian, Inc.),
 the Gaussian 92(TM) system (copyright 1992, Gaussian, Inc.),
 the Gaussian 90(TM) system (copyright 1990, Gaussian, Inc.),
 the Gaussian 88(TM) system (copyright 1988, Gaussian, Inc.),
 the Gaussian 86(TM) system (copyright 1986, Carnegie Mellon
 University), and the Gaussian 82(TM) system (copyright 1983,
 Carnegie Mellon University). Gaussian is a federally registered
 trademark of Gaussian, Inc.
  
 This software contains proprietary and confidential information,
 including trade secrets, belonging to Gaussian, Inc.
  
 This software is provided under written license and may be
 used, copied, transmitted, or stored only in accord with that
 written license.
  
 The following legend is applicable only to US Government
 contracts under FAR:
  
                    RESTRICTED RIGHTS LEGEND
  
 Use, reproduction and disclosure by the US Government is
 subject to restrictions as set forth in subparagraphs (a)
 and (c) of the Commercial Computer Software - Restricted
 Rights clause in FAR 52.227-19.
  
 Gaussian, Inc.
 340 Quinnipiac St., Bldg. 40, Wallingford CT 06492
  
  
 ---------------------------------------------------------------
 Warning -- This program may not be used in any manner that
 competes with the business of Gaussian, Inc. or will provide
 assistance to any competitor of Gaussian, Inc.  The licensee
 of this program is prohibited from giving any competitor of
 Gaussian, Inc. access to this program.  By using this program,
 the user acknowledges that Gaussian, Inc. is engaged in the
 business of creating and licensing software in the field of
 computational chemistry and represents and warrants to the
 licensee that it is not a competitor of Gaussian, Inc. and that
 it will not use this program in any manner prohibited above.
 ---------------------------------------------------------------
  

 Cite this work as:
 Gaussian 16, Revision C.01,
 M. J. Frisch, G. W. Trucks, H. B. Schlegel, G. E. Scuseria, 
 M. A. Robb, J. R. Cheeseman, G. Scalmani, V. Barone, 
 G. A. Petersson, H. Nakatsuji, X. Li, M. Caricato, A. V. Marenich, 
 J. Bloino, B. G. Janesko, R. Gomperts, B. Mennucci, H. P. Hratchian, 
 J. V. Ortiz, A. F. Izmaylov, J. L. Sonnenberg, D. Williams-Young, 
 F. Ding, F. Lipparini, F. Egidi, J. Goings, B. Peng, A. Petrone, 
 T. Henderson, D. Ranasinghe, V. G. Zakrzewski, J. Gao, N. Rega, 
 G. Zheng, W. Liang, M. Hada, M. Ehara, K. Toyota, R. Fukuda, 
 J. Hasegawa, M. Ishida, T. Nakajima, Y. Honda, O. Kitao, H. Nakai, 
 T. Vreven, K. Throssell, J. A. Montgomery, Jr., J. E. Peralta, 
 F. Ogliaro, M. J. Bearpark, J. J. Heyd, E. N. Brothers, K. N. Kudin, 
 V. N. Staroverov, T. A. Keith, R. Kobayashi, J. Normand, 
 K. Raghavachari, A. P. Rendell, J. C. Burant, S. S. Iyengar, 
 J. Tomasi, M. Cossi, J. M. Millam, M. Klene, C. Adamo, R. Cammi, 
 J. W. Ochterski, R. L. Martin, K. Morokuma, O. Farkas, 
 J. B. Foresman, and D. J. Fox, Gaussian, Inc., Wallingford CT, 2019.
 
 ******************************************
 Gaussian 16:  ES64L-G16RevC.01  3-Jul-2019
                 3-May-2026 
 ******************************************
 %chk=ksi_reactant_trial.chk
 %nprocshared=64
 Will use up to   64 processors via shared memory.
 %mem=200GB
 -------------------------------------------------
 # wb97xd/6-31g(d) prop=efg SCF=(XQC,MaxCycle=500)
 -------------------------------------------------
 1/38=1,172=1/1;
 2/12=2,17=6,18=5,40=1/2;
 3/5=1,6=6,7=1,11=2,25=1,30=1,74=-58/1,2,3;
 4//1;
 5/5=2,7=500,8=3,13=1,38=5/2,8;
 6/7=2,8=2,9=2,10=2,14=1,28=1/1,2;
 99/5=1,9=1/99;
 -------------------------------
 None_sub_reg_combined_truncated
 -------------------------------
 Symbolic Z-matrix:
 Charge = -2 Multiplicity = 1
 H                     45.41158   32.12245   35.07389 
 C                     45.648    33.164    35.283 
 H                     45.16598   33.78255   34.52917 
 C                     45.16323   33.56315   36.67252 
 H                     45.63434   32.93143   37.42871 
 H                     45.46512   34.59469   36.85847 
 C                     43.65175   33.43645   36.77802 
 H                     43.1485   34.03297   36.01655 
 H                     43.34046   32.39665   36.67655 
 S                     42.99329   33.96452   38.39382 
 C                     43.23211   35.75685   38.24457 
 H                     42.71538   36.10186   37.35433 
 H                     42.81587   36.22521   39.12993 
 H                     44.29342   35.97019   38.1832 
 H                     46.72437   33.29903   35.20929 
 H                     46.90138   33.64538   30.91145 
 C                     46.309    34.451    30.471 
 H                     45.90648   34.11208   29.51723 
 C                     45.15929   34.82499   31.41962 
 H                     44.60296   33.91599   31.66365 
 H                     45.56444   35.2328   32.34812 
 C                     44.23464   35.8247   30.78276 
 C                     43.40914   35.43512   29.73713 
 H                     43.41601   34.40865   29.39921 
 C                     42.5666   36.34268   29.12651 
 H                     41.92337   36.01753   28.32014 
 C                     42.53366   37.66155   29.55964 
 O                     41.69437   38.58127   28.98789 
 H                     41.39228   38.25704   28.13049 
 C                     43.34503   38.06434   30.61174 
 H                     43.3047   39.08575   30.95615 
 C                     44.18782   37.14569   31.2085 
 H                     44.81341   37.46898   32.0256 
 C                     47.21391   35.6449   30.19553 
 O                     47.22503   36.2152   29.11603 
 N                     48.00422   36.01532   31.21697 
 H                     47.97634   35.49686   32.08105 
 C                     48.938    37.126    31.156 
 H                     48.60055   37.78237   30.35212 
 C                     49.02713   37.89336   32.47906 
 H                     49.37994   37.19493   33.24936 
 C                     50.06049   39.00974   32.34046 
 H                     49.79562   39.67804   31.52721 
 H                     50.10884   39.58942   33.25856 
 H                     51.0472   38.60259   32.13144 
 C                     47.66995   38.43467   32.95242 
 H                     47.01222   37.58822   33.16311 
 H                     47.8295   38.96072   33.89573 
 C                     46.97615   39.37499   31.97506 
 H                     46.72637   38.86283   31.05009 
 H                     46.05477   39.74903   32.41487 
 H                     47.60229   40.23279   31.74959 
 H                     49.93461   36.74881   30.89268 
 H                     49.28592   35.26587   27.06893 
 C                     48.839    35.387    26.081 
 H                     49.47685   34.92577   25.32903 
 C                     47.44001   34.76327   26.07015 
 H                     46.78902   35.37181   26.7015 
 H                     47.04689   34.79025   25.05133 
 C                     47.39987   33.3257   26.59679 
 H                     47.80567   33.32626   27.61518 
 C                     45.95068   32.84353   26.65243 
 H                     45.53655   32.77838   25.64826 
 H                     45.88755   31.85925   27.11234 
 H                     45.3383   33.5355   27.22636 
 C                     48.23266   32.37648   25.73946 
 H                     49.28543   32.64264   25.77272 
 H                     48.12993   31.35367   26.09721 
 H                     47.90001   32.41323   24.70403 
 C                     48.71411   36.8727   25.74774 
 O                     48.92431   37.31528   24.63554 
 N                     48.35087   37.65046   26.79184 
 H                     48.04352   37.20961   27.65044 
 C                     48.106    39.077    26.631 
 H                     47.40612   39.23911   25.79992 
 C                     47.51842   39.6692   27.92371 
 H                     48.16085   39.35684   28.75534 
 C                     47.49729   41.19463   27.87471 
 H                     46.9199   41.53266   27.0194 
 H                     47.04699   41.58706   28.78374 
 H                     48.49926   41.60152   27.78177 
 C                     46.10307   39.14145   28.15996 
 H                     46.09313   38.0625   28.28773 
 H                     45.67942   39.59175   29.05456 
 H                     45.46372   39.39699   27.31857 
 C                     49.40321   39.79561   26.22502 
 O                     49.39733   40.74535   25.46355 
 N                     50.50932   39.33747   26.82983 
 H                     50.4581   38.46283   27.32926 
 C                     51.836    39.825    26.486 
 H                     51.78428   40.91788   26.4637 
 C                     52.88406   39.36207   27.48528 
 H                     52.64972   39.68347   28.49871 
 H                     52.99234   38.27738   27.45013 
 C                     54.19505   40.01375   27.02416 
 O                     54.42456   41.19013   27.34355 
 O                     54.90984   39.31021   26.26333 
 H                     52.10253   39.47947   25.4797 
 H                     48.70291   38.79634   22.62946 
 C                     48.739    39.505    21.812 
 H                     47.7806   39.99989   21.71152 
 H                     49.50364   40.24039   22.02225 
 H                     48.97823   38.98688   20.89153 
 H                     44.72109   37.12919   20.71273 
 C                     43.669    37.309    20.919 
 H                     43.59909   37.99139   21.76096 
 C                     42.9658   37.88451   19.69519 
 H                     42.96142   37.11148   18.91446 
 C                     41.51303   38.21161   20.0393 
 H                     41.46954   38.97707   20.80946 
 H                     40.96348   38.55732   19.16642 
 H                     41.01577   37.32317   20.42272 
 C                     43.73245   39.08841   19.12707 
 H                     44.71917   38.74355   18.81065 
 H                     43.21492   39.44335   18.22919 
 C                     43.92126   40.25396   20.09203 
 H                     44.53197   39.9562   20.93882 
 H                     44.43478   41.06957   19.58754 
 H                     42.97     40.62816   20.46331 
 H                     43.21217   36.36493   21.20884 
 H                     43.54069   34.30904   24.67477 
 C                     42.595    34.659    25.081 
 H                     42.60008   34.48007   26.15397 
 C                     42.40512   36.14723   24.79007 
 H                     42.43474   36.29576   23.70437 
 C                     41.03775   36.60701   25.29245 
 H                     40.94448   36.41414   26.35848 
 H                     40.88224   37.66796   25.11264 
 H                     40.24615   36.05852   24.78553 
 C                     43.5582   36.94664   25.40716 
 H                     43.55568   36.82336   26.49234 
 H                     44.49574   36.52696   25.03639 
 C                     43.52249   38.43115   25.06397 
 H                     42.72562   38.94741   25.59426 
 H                     44.46761   38.89342   25.33312 
 H                     43.37049   38.56928   23.99532 
 H                     41.79193   34.0724   24.63908 
 H                     37.69791   32.57394   28.12359 
 C                     36.634    32.654    28.336 
 H                     36.48927   32.53051   29.40602 
 C                     36.10274   34.01824   27.88354 
 H                     36.21427   34.10394   26.79997 
 H                     35.03909   34.0839   28.1221 
 C                     36.8443   35.13855   28.55877 
 C                     37.97925   35.69136   27.98322 
 H                     38.30865   35.34809   27.012 
 C                     38.69953   36.67832   28.63052 
 H                     39.56772   37.11053   28.15498 
 C                     38.31558   37.12565   29.88975 
 O                     39.01635   38.05026   30.5854 
 H                     39.73691   38.42346   30.05353 
 C                     37.15807   36.59757   30.4594 
 H                     36.83969   36.95976   31.42337 
 C                     36.43715   35.62465   29.79653 
 H                     35.53512   35.23743   30.24837 
 H                     36.11263   31.85155   27.81871 
 H                     33.33689   40.77374   31.42714 
 C                     34.281    41.319    31.364 
 H                     34.97538   40.90678   32.09464 
 C                     34.84535   41.21058   29.94333 
 H                     34.109    41.64746   29.26015 
 C                     36.14359   42.00605   29.82628 
 H                     36.88445   41.63464   30.52968 
 H                     36.55288   41.94314   28.81888 
 H                     35.96086   43.05401   30.0459 
 C                     35.07412   39.74757   29.56311 
 H                     34.17093   39.16113   29.71658 
 H                     35.35193   39.6613   28.51158 
 H                     35.86684   39.3157   30.17149 
 C                     33.98756   42.78545   31.70211 
 O                     33.37642   43.51299   30.93553 
 N                     34.46562   43.19632   32.88953 
 H                     34.94609   42.53608   33.49484 
 C                     34.251    44.529    33.43 
 H                     33.65427   45.08053   32.69655 
 C                     33.53319   44.47347   34.78579 
 H                     34.1677   43.92414   35.48558 
 H                     33.43065   45.50206   35.13892 
 C                     32.1715   43.80432   34.72472 
 H                     31.45378   44.39918   34.16116 
 H                     32.25418   42.80782   34.28861 
 C                     31.61169   43.61018   36.20093 
 O                     32.28681   42.83966   36.89616 
 O                     30.59281   44.23542   36.46562 
 C                     35.6303   45.16821   33.61607 
 O                     36.36497   44.83008   34.53449 
 N                     35.97242   46.06523   32.68831 
 H                     35.33989   46.28002   31.93223 
 C                     37.339    46.524    32.531 
 H                     37.81089   46.47661   33.51308 
 C                     38.05247   45.56049   31.56905 
 H                     38.12071   44.57478   32.03881 
 H                     37.46404   45.45945   30.65469 
 C                     39.48112   45.99422   31.16726 
 O                     40.06994   46.83395   31.85726 
 O                     39.95289   45.4328   30.14704 
 C                     37.37031   47.94559   31.97096 
 O                     37.144    48.15313   30.78384 
 N                     37.67244   48.93086   32.82221 
 C                     37.64857   50.31493   32.37325 
 H                     36.82854   50.45324   31.66579 
 H                     38.59257   50.54913   31.87018 
 C                     37.49798   51.12052   33.65657 
 H                     36.44581   51.18136   33.9358 
 H                     37.90718   52.12428   33.56701 
 C                     38.2548   50.26429   34.66658 
 H                     37.99092   50.4857   35.6983 
 H                     39.32966   50.40298   34.55077 
 C                     37.862    48.838    34.26 
 H                     38.6495   48.127    34.52004 
 C                     36.54239   48.44294   34.95176 
 O                     35.45321   48.6393   34.44536 
 N                     36.7375   47.93518   36.17535 
 H                     37.67834   47.67779   36.44889 
 C                     35.671    47.586    37.079 
 H                     34.7286   47.73491   36.54578 
 C                     35.77497   46.14676   37.59265 
 H                     35.64652   45.46112   36.75507 
 H                     36.77127   45.99596   38.01697 
 C                     34.72632   45.9282   38.64641 
 C                     33.39669   45.72618   38.30083 
 H                     33.11069   45.67592   37.26373 
 C                     32.42435   45.57905   39.27211 
 H                     31.40143   45.40851   38.97101 
 C                     32.77027   45.63818   40.61211 
 H                     32.01323   45.52172   41.37602 
 C                     34.09011   45.85232   40.96992 
 H                     34.37208   45.89476   42.01143 
 C                     35.05781   46.00167   39.99238 
 H                     36.08537   46.17443   40.27763 
 H                     35.69197   48.27159   37.93779 
 H                     36.94423   43.84727   22.30146 
 C                     37.404    44.342    23.165 
 H                     37.19402   45.40998   23.08614 
 C                     36.77508   43.7867   24.45117 
 H                     35.69575   43.72799   24.28913 
 H                     37.12834   42.77343   24.66125 
 C                     37.03096   44.67382   25.64013 
 C                     36.43019   45.92566   25.70238 
 H                     35.7931   46.24927   24.8908 
 C                     36.61813   46.74255   26.80202 
 H                     36.13515   47.707    26.84623 
 C                     37.40844   46.31845   27.85746 
 H                     37.5304   46.94737   28.72704 
 C                     38.01945   45.07586   27.80035 
 H                     38.64948   44.75492   28.61779 
 C                     37.83526   44.25988   26.69303 
 H                     38.30436   43.28279   26.65972 
 C                     38.89502   44.1624   23.01148 
 O                     39.62752   45.05721   22.61166 
 N                     39.36876   42.91172   23.18238 
 H                     38.79369   42.23348   23.66427 
 C                     40.793    42.627    23.19 
 H                     41.28143   43.17999   24.00474 
 C                     40.9929   41.11702   23.41809 
 H                     40.5488   40.56561   22.58538 
 H                     42.06425   40.91452   23.44544 
 C                     40.34764   40.71822   24.71761 
 C                     39.08442   40.14009   24.75212 
 H                     38.58042   39.88601   23.82804 
 C                     38.45793   39.85612   25.95582 
 H                     37.47352   39.40833   25.96381 
 C                     39.09812   40.14786   27.1547 
 O                     38.56337   39.88819   28.36503 
 H                     37.63641   39.62154   28.31043 
 C                     40.37221   40.71761   27.12649 
 H                     40.85363   40.92916   28.06509 
 C                     40.98022   41.00424   25.92479 
 H                     41.95911   41.45898   25.91842 
 C                     41.48687   43.06101   21.90412 
 O                     42.65472   43.40173   21.90404 
 N                     40.77322   42.97565   20.76371 
 H                     39.78169   42.79881   20.80183 
 C                     41.359    43.404    19.51 
 H                     42.37948   43.00327   19.47583 
 C                     40.56777   42.89413   18.3087 
 H                     39.51469   43.16303   18.4194 
 H                     40.95468   43.40666   17.42628 
 C                     40.72754   41.3879   18.13381 
 H                     41.79361   41.15689   18.13755 
 H                     40.26606   40.85944   18.96863 
 C                     40.12445   40.88643   16.82516 
 H                     39.0373   40.994    16.83781 
 H                     40.52568   41.48297   15.99132 
 N                     40.4309   39.48234   16.67346 
 H                     41.38364   39.23008   16.90194 
 C                     39.80732   38.67988   15.75609 
 N                     38.70961   39.14906   15.05922 
 H                     38.81531   40.06551   14.64734 
 H                     38.29838   38.47359   14.43418 
 N                     40.01567   37.31276   15.82556 
 H                     40.81267   37.03483   16.37695 
 H                     39.93918   36.80977   14.95278 
 C                     41.52629   44.93392   19.37486 
 O                     42.3095   45.36993   18.55645 
 N                     40.73138   45.68866   20.14595 
 H                     40.26677   45.28625   20.95435 
 C                     40.965    47.122    20.245 
 H                     41.17094   47.4916   19.23551 
 C                     39.79232   47.85887   20.89974 
 H                     39.86201   47.73818   21.97915 
 H                     39.89114   48.92156   20.67468 
 C                     38.42688   47.35948   20.43259 
 H                     38.27024   47.58369   19.37695 
 H                     38.36332   46.27857   20.56767 
 C                     37.26394   47.96292   21.21457 
 O                     36.29353   48.43421   20.6574 
 N                     37.34397   47.84454   22.55556 
 H                     36.62174   48.29591   23.09454 
 H                     38.19891   47.60726   23.04796 
 C                     42.23902   47.29131   21.09703 
 O                     43.2586   47.81223   20.66451 
 N                     42.15266   46.73671   22.31056 
 H                     41.2614   46.37225   22.62609 
 C                     43.146    46.945    23.342 
 H                     43.1837   48.00469   23.62103 
 H                     42.84934   46.36801   24.2206 
 C                     44.57228   46.5461   22.95857 
 O                     45.52371   47.24605   23.27038 
 N                     44.69252   45.39373   22.28752 
 H                     43.88327   44.79646   22.1617 
 C                     45.975    44.783    22.003 
 H                     46.74926   45.33958   22.5411 
 C                     45.97941   43.31539   22.45862 
 H                     45.24867   42.77127   21.85449 
 H                     46.97055   42.90468   22.26786 
 C                     45.64147   43.12345   23.94046 
 H                     44.65776   43.5662   24.13808 
 C                     45.56891   41.62814   24.24425 
 H                     46.55308   41.1788   24.13468 
 H                     45.22527   41.46607   25.26404 
 H                     44.8779   41.12906   23.56659 
 C                     46.67988   43.78731   24.83677 
 H                     46.68049   44.86392   24.69832 
 H                     46.46256   43.58644   25.88291 
 H                     47.67013   43.40228   24.60983 
 C                     46.33922   44.80762   20.51975 
 O                     47.44152   44.43058   20.13386 
 N                     45.37984   45.22827   19.69272 
 H                     44.52014   45.58791   20.07873 
 C                     45.489    45.198    18.254 
 H                     45.40489   44.17105   17.88311 
 H                     44.67055   45.79034   17.83823 
 C                     46.79973   45.76402   17.70362 
 O                     47.27828   45.34668   16.66662 
 N                     47.34675   46.76246   18.42114 
 H                     46.89223   47.11597   19.26098 
 C                     48.51     47.465    17.947 
 H                     48.5073   47.42953   16.84939 
 H                     48.46047   48.51127   18.25668 
 C                     49.85994   46.90874   18.36266 
 O                     50.88459   47.53919   18.11737 
 N                     49.86821   45.71566   18.96146 
 H                     48.99099   45.26297   19.20112 
 C                     51.097    44.968    19.127 
 H                     50.85438   43.91071   19.23693 
 H                     51.70821   45.10561   18.22607 
 C                     51.95244   45.38926   20.32082 
 O                     52.32864   44.57363   21.15106 
 N                     52.26446   46.68668   20.34178 
 H                     51.92639   47.26883   19.57338 
 C                     53.13     47.28     21.348 
 H                     53.92219   46.55069   21.56465 
 C                     53.72222   48.58767   20.82586 
 H                     53.85018   48.4936   19.74522 
 H                     53.00732   49.39152   21.01198 
 C                     55.07481   48.97109   21.43492 
 H                     55.78936   48.15904   21.27637 
 H                     55.43833   49.83777   20.87878 
 C                     55.02929   49.3283   22.92615 
 H                     55.73145   50.1413   23.13009 
 H                     54.03039   49.68366   23.17913 
 C                     55.38414   48.14658   23.83906 
 H                     54.79091   47.27218   23.56745 
 H                     56.44306   47.89472   23.70308 
 N                     55.16962   48.38091   25.25833 
 H                     54.17352   48.42897   25.45489 
 H                     57.06222   48.64981   29.63325 
 H                     55.57295   49.27392   25.52555 
 C                     52.32483   47.49111   22.65924 
 O                     52.09138   48.60339   23.11636 
 N                     51.93381   46.35669   23.22634 
 H                     52.11726   45.46634   22.75974 
 C                     51.425    46.229    24.579 
 H                     51.65558   47.15338   25.11787 
 C                     49.91136   45.95884   24.6568 
 H                     49.69957   45.01779   24.14297 
 C                     49.50554   45.8559   26.12471 
 H                     49.77959   46.76124   26.6638 
 H                     48.43117   45.72097   26.20497 
 H                     49.9896   45.01027   26.60688 
 C                     49.14621   47.07917   23.95724 
 H                     49.39576   47.10514   22.89935 
 H                     48.075    46.92247   24.05149 
 H                     49.39036   48.04264   24.39791 
 C                     52.22826   45.06441   25.15035 
 O                     52.39881   44.04349   24.48533 
 N                     52.80079   45.26055   26.33374 
 H                     52.6369   46.13187   26.83392 
 C                     53.483    44.204    27.048 
 H                     53.39798   43.28092   26.47287 
 C                     54.96368   44.5186   27.32611 
 H                     55.03036   45.12257   28.23462 
 H                     55.45184   43.56251   27.52043 
 C                     55.67807   45.28029   26.20774 
 H                     55.24087   46.27246   26.08201 
 H                     56.72052   45.41874   26.50946 
 C                     55.65404   44.5785   24.84773 
 H                     54.63824   44.49036   24.47655 
 H                     56.22274   45.18368   24.13321 
 N                     56.25184   43.26498   24.90978 
 H                     57.18494   43.2471   25.29379 
 C                     55.63869   42.06846   24.80904 
 N                     54.38996   41.96757   24.38501 
 H                     53.74548   42.7491   24.30456 
 H                     53.95998   41.05751   24.33325 
 N                     56.34861   40.96601   25.01354 
 H                     57.27853   41.09423   25.38134 
 H                     55.78887   40.13901   25.50059 
 C                     52.77392   44.04003   28.399 
 O                     52.18063   44.99292   28.89717 
 N                     52.87118   42.8479   28.97312 
 H                     53.3836   42.0845   28.49886 
 C                     52.18     42.582    30.224 
 H                     52.14515   43.50436   30.81078 
 C                     50.75657   42.08621   29.93736 
 H                     50.79581   41.12068   29.43719 
 H                     50.19805   41.99112   30.86498 
 H                     50.25059   42.79525   29.28654 
 C                     52.91201   41.48296   30.99073 
 O                     53.30528   40.46577   30.45054 
 N                     53.03256   41.69382   32.31411 
 H                     52.71676   42.57053   32.71866 
 C                     53.698    40.717    33.148 
 H                     54.09227   39.95468   32.46929 
 C                     54.83227   41.33479   33.95196 
 H                     55.49724   40.5611   34.33604 
 H                     55.39183   42.04202   33.34198 
 S                     54.14681   42.24006   35.39713 
 H                     55.24947   42.93123   35.68056 
 H                     52.97925   40.24559   33.83002 
 H                     45.38961   38.78455   40.52632 
 C                     46.46     38.723    40.34 
 H                     46.94593   38.31309   41.22134 
 C                     46.73317   37.84182   39.12588 
 H                     47.80445   37.8186   38.91217 
 H                     46.41885   36.8181   39.34331 
 C                     45.98553   38.33428   37.89503 
 H                     44.91202   38.36354   38.09013 
 H                     46.33377   39.32107   37.58552 
 S                     46.27501   37.18317   36.49954 
 C                     44.91099   37.64462   35.39446 
 H                     45.05674   38.65111   35.01294 
 H                     44.91598   36.93212   34.57631 
 H                     43.97161   37.56217   35.93167 
 H                     46.83951   39.72958   40.17479 
 H                     49.45317   42.78026   37.71532 
 C                     50.254    42.792    36.975 
 H                     51.21002   42.60699   37.46935 
 C                     49.99793   41.71331   35.91251 
 H                     50.79037   41.73799   35.16034 
 H                     50.01834   40.73284   36.39757 
 C                     48.66209   41.93624   35.26137 
 C                     48.56539   42.41616   33.96356 
 H                     49.46708   42.61599   33.39966 
 C                     47.32574   42.65674   33.39495 
 H                     47.25982   43.03188   32.38415 
 C                     46.17203   42.43138   34.12339 
 H                     45.20602   42.63353   33.68977 
 C                     46.26065   41.95919   35.42181 
 H                     45.35971   41.8066   35.9974 
 C                     47.49713   41.70821   35.98356 
 H                     47.57005   41.35121   37.00124 
 C                     50.27038   44.17718   36.3596 
 O                     49.4022   45.00919   36.52933 
 N                     51.35636   44.41673   35.60582 
 H                     52.04698   43.6975   35.45323 
 C                     51.572    45.672    34.935 
 H                     50.76758   46.35055   35.22761 
 C                     52.92769   46.25174   35.36179 
 H                     52.85176   46.53197   36.41163 
 H                     53.68987   45.47413   35.25602 
 C                     53.32102   47.47001   34.53554 
 H                     53.52044   47.16914   33.50608 
 H                     52.49134   48.17645   34.52605 
 C                     54.56171   48.15962   35.1 
 H                     55.29     47.40531   35.42703 
 H                     55.032    48.7545   34.31022 
 N                     54.18769   48.99861   36.21565 
 H                     53.28708   48.75133   36.74728 
 C                     54.86323   50.0402   36.64877 
 N                     56.06858   50.37086   36.09883 
 H                     56.3037   49.99187   35.19511 
 H                     56.42603   51.29194   36.28684 
 N                     54.3969   50.73123   37.67095 
 H                     53.40732   50.53396   38.10808 
 H                     54.90236   51.53817   37.99045 
 C                     51.5431   45.45759   33.42074 
 O                     52.06658   44.47477   32.89699 
 N                     50.91687   46.42525   32.75506 
 H                     50.5406   47.21551   33.27471 
 C                     50.929    46.54     31.316 
 H                     51.43925   45.65606   30.92061 
 C                     49.51094   46.57565   30.70813 
 H                     49.63189   46.704    29.62783 
 C                     48.80391   45.25292   30.98353 
 H                     48.70026   45.10074   32.05556 
 H                     47.81212   45.26203   30.53721 
 H                     49.36618   44.42532   30.56363 
 C                     48.69047   47.73127   31.25961 
 H                     49.19816   48.6694   31.06306 
 H                     47.72004   47.76962   30.77115 
 H                     48.53659   47.6116   32.32935 
 C                     51.75375   47.76803   30.93539 
 O                     51.83769   48.75432   31.65933 
 N                     52.4361   47.65677   29.78738 
 H                     52.33245   46.81286   29.22771 
 C                     53.197    48.763    29.249 
 H                     52.91216   49.64579   29.83372 
 C                     54.71234   48.58956   29.41601 
 H                     55.05715   47.74647   28.81176 
 H                     55.16772   49.51182   29.04611 
 C                     55.02304   48.39495   30.90895 
 H                     54.24753   48.87136   31.51187 
 H                     55.00198   47.33072   31.16285 
 C                     56.34593   48.93914   31.39127 
 O                     57.35072   48.95286   30.50576 
 O                     56.52492   49.31939   32.51961 
 C                     52.76562   49.01382   27.80108 
 O                     52.60132   48.09311   27.00837 
 N                     52.54862   50.29514   27.51251 
 H                     52.83419   51.03662   28.15086 
 C                     51.956    50.753    26.273 
 H                     52.48651   50.28537   25.429 
 C                     50.48085   50.34444   26.14883 
 H                     50.12304   50.64087   25.16391 
 H                     50.43189   49.25552   26.20825 
 C                     49.56545   50.93574   27.20989 
 H                     49.83311   51.96304   27.45008 
 H                     48.53226   50.9027   26.86407 
 S                     49.63113   49.96336   28.7629 
 C                     50.20079   51.22668   29.92784 
 H                     49.41683   51.96357   30.08046 
 H                     50.41787   50.71861   30.86022 
 H                     51.09908   51.6965   29.54209 
 C                     52.19642   52.26613   26.17061 
 O                     52.91386   52.84304   26.97217 
 N                     51.60119   52.88104   25.13814 
 H                     51.10373   52.34278   24.43658 
 C                     51.968    54.233    24.774 
 H                     52.8149   54.50076   25.41813 
 C                     52.40052   54.30182   23.29689 
 H                     51.51213   54.1132   22.68711 
 C                     52.93227   55.69824   22.98219 
 H                     53.80316   55.92146   23.59644 
 H                     53.22366   55.76204   21.93632 
 H                     52.17181   56.45159   23.17093 
 C                     53.45624   53.24311   22.98841 
 H                     53.03301   52.24623   23.05921 
 H                     53.83475   53.37989   21.97827 
 H                     54.28991   53.32225   23.68397 
 C                     50.83334   55.25068   24.99488 
 O                     49.85601   55.31121   24.28005 
 N                     51.10129   56.14334   25.97442 
 H                     51.78405   55.89047   26.67241 
 C                     50.226    57.254    26.282 
 H                     49.64351   57.45379   25.38083 
 C                     49.27288   56.95622   27.4488 
 H                     48.76144   56.01487   27.23557 
 H                     49.84824   56.83871   28.36861 
 C                     48.27124   58.04553   27.62582 
 C                     48.18149   58.92947   28.65995 
 H                     48.79284   59.01182   29.53922 
 N                     47.13419   59.78991   28.45908 
 H                     46.8343   60.50279   29.10119 
 C                     46.51892   59.46922   27.28352 
 C                     45.42189   60.04207   26.65265 
 H                     44.90024   60.88028   27.09192 
 C                     45.02266   59.49691   25.45159 
 H                     44.17202   59.91632   24.93407 
 C                     45.69191   58.40558   24.88997 
 H                     45.34013   58.00548   23.9504 
 C                     46.77984   57.83261   25.50881 
 H                     47.28381   56.98482   25.07027 
 C                     47.21123   58.36967   26.72214 
 H                     50.84028   58.12974   26.51229 
 H                     54.08276   54.38125   28.96848 
 C                     53.714    54.47     29.992 
 H                     54.44236   55.01131   30.59945 
 C                     52.38327   55.20929   29.99457 
 H                     51.92568   55.22182   30.98231 
 H                     52.51149   56.23457   29.64109 
 S                     51.20734   54.36144   28.86268 
 H                     50.10659   54.67538   29.55242 
 C                     53.55472   53.04635   30.53654 
 O                     53.76174   52.04966   29.86666 
 N                     53.19657   52.99142   31.82911 
 H                     52.90552   53.8245   32.32456 
 C                     52.844    51.773    32.523 
 H                     52.81499   50.95564   31.79952 
 C                     53.84922   51.46491   33.63308 
 H                     53.92606   52.31693   34.30621 
 H                     53.50074   50.60678   34.19831 
 H                     54.82838   51.25032   33.20977 
 C                     51.46251   51.97082   33.16605 
 O                     51.07677   53.09646   33.44693 
 N                     50.7963   50.84252   33.39886 
 H                     51.13867   49.95607   33.03716 
 C                     49.556    50.794    34.147 
 H                     49.51962   51.69264   34.77006 
 C                     48.33156   50.75082   33.22068 
 H                     48.38981   51.60205   32.53905 
 H                     48.38801   49.83908   32.63047 
 C                     46.98613   50.78503   33.95966 
 H                     47.04993   50.14922   34.84729 
 C                     46.6338   52.20318   34.39005 
 H                     46.47436   52.82741   33.51305 
 H                     45.72304   52.21645   34.9801 
 H                     47.42848   52.63223   34.98687 
 C                     45.89082   50.2361   33.04953 
 H                     46.11778   49.21898   32.74052 
 H                     44.93341   50.23378   33.56137 
 H                     45.79541   50.86221   32.16457 
 C                     49.58898   49.54987   35.03949 
 O                     49.91136   48.45697   34.58056 
 N                     49.24375   49.75985   36.30764 
 H                     49.04618   50.70975   36.61489 
 C                     49.212    48.71     37.316 
 H                     49.75227   47.85268   36.89564 
 C                     49.96073   49.17631   38.56007 
 H                     49.57592   50.12857   38.92553 
 H                     49.86821   48.42541   39.34715 
 C                     51.45392   49.33427   38.20421 
 O                     51.97179   48.45196   37.49062 
 O                     52.05351   50.337    38.64869 
 C                     47.74421   48.29894   37.54099 
 O                     46.87629   49.13536   37.75489 
 N                     47.50766   46.98942   37.42515 
 H                     48.25357   46.32931   37.22176 
 C                     46.185    46.409    37.335 
 H                     45.45117   47.15391   37.65454 
 C                     45.90623   45.94739   35.88095 
 H                     46.61956   45.14553   35.65701 
 C                     44.48295   45.41305   35.74714 
 H                     43.7691   46.14096   36.12579 
 H                     44.2603   45.22306   34.70031 
 H                     44.3466   44.47894   36.28437 
 C                     46.13136   47.09014   34.89438 
 H                     47.15967   47.44049   34.93131 
 H                     45.92552   46.74575   33.88354 
 H                     45.4685   47.92285   35.11458 
 C                     46.10918   45.15045   38.20823 
 O                     47.03895   44.37466   38.32406 
 N                     44.90829   44.92575   38.78504 
 H                     44.16649   45.61565   38.71914 
 C                     44.604    43.653    39.416 
 H                     45.47649   43.01305   39.24814 
 C                     44.34023   43.79635   40.93076 
 H                     43.47432   44.45567   41.0522 
 C                     44.00645   42.42886   41.52406 
 H                     44.84562   41.74522   41.40544 
 H                     43.78306   42.51824   42.58336 
 H                     43.13609   41.99409   41.03745 
 C                     45.54879   44.43818   41.61701 
 H                     46.37637   43.7255   41.62837 
 H                     45.86587   45.2998   41.02776 
 C                     45.24797   44.9035   43.0366 
 H                     45.00764   44.06607   43.68731 
 H                     46.11189   45.41721   43.4519 
 H                     44.40678   45.59285   43.0383 
 C                     43.35358   43.088    38.75153 
 O                     42.31547   43.72568   38.71744 
 N                     43.46904   41.86795   38.19961 
 H                     44.2894   41.31004   38.38529 
 C                     42.31     41.173    37.691 
 H                     41.53354   41.91484   37.48908 
 C                     42.61328   40.3576   36.43884 
 H                     43.4893   39.73     36.61372 
 H                     41.76585   39.69673   36.23808 
 C                     42.84588   41.14961   35.16201 
 O                     42.83322   42.34536   35.06496 
 O                     43.0717   40.30642   34.16925 
 H                     43.16341   40.76745   33.27426 
 C                     41.81866   40.13336   38.71786 
 O                     42.5984   39.36288   39.26215 
 N                     40.49516   40.12137   38.889 
 H                     39.9161   40.77167   38.35284 
 C                     39.798    39.089    39.635 
 H                     40.55316   38.49262   40.15695 
 C                     38.8093   39.71541   40.63699 
 H                     38.08296   40.29854   40.06271 
 C                     38.06185   38.62794   41.40321 
 H                     38.75551   38.01433   41.9764 
 H                     37.35783   39.08712   42.09194 
 H                     37.50277   37.98572   40.72594 
 C                     39.54821   40.64536   41.59382 
 H                     40.05918   41.43388   41.04809 
 H                     38.844    41.10965   42.27868 
 H                     40.28445   40.08983   42.17227 
 C                     39.04262   38.25544   38.60125 
 O                     38.38205   38.77409   37.71902 
 N                     39.15869   36.92066   38.71283 
 H                     39.77003   36.52181   39.40728 
 C                     38.538    36.018    37.77 
 H                     37.80701   36.60028   37.20555 
 C                     39.56208   35.38558   36.82289 
 H                     40.36608   34.93045   37.40633 
 H                     39.07398   34.59231   36.25532 
 C                     40.13774   36.40803   35.85523 
 H                     39.35889   36.80814   35.20742 
 H                     40.61789   37.23118   36.38785 
 S                     41.38815   35.62055   34.77507 
 C                     41.5263   36.8743   33.47605 
 H                     41.89557   37.80715   33.89342 
 H                     42.23696   36.49415   32.74918 
 H                     40.55851   37.0133   33.00195 
 H                     38.01842   35.23042   38.32362 
 H                     36.50047   31.5167   31.91401 
 C                     36.734    32.237    32.696 
 H                     37.17453   31.69948   33.53367 
 C                     37.69988   33.30538   32.18151 
 H                     37.2211   33.83588   31.35227 
 C                     38.00472   34.31777   33.2812 
 H                     38.60195   33.85574   34.06454 
 H                     38.55704   35.16121   32.87752 
 H                     37.08297   34.6932   33.72079 
 C                     38.98179   32.65646   31.64886 
 H                     39.51379   32.17881   32.47516 
 H                     38.70557   31.87378   30.93696 
 C                     39.91167   33.64519   30.95373 
 H                     40.32801   34.35638   31.66113 
 H                     40.74002   33.11735   30.48528 
 H                     39.37462   34.19691   30.18477 
 H                     35.80494   32.69217   33.03189 
 H                     35.87444   38.42805   34.39404 
 C                     36.781    38.93     34.736 
 H                     37.15354   38.43983   35.63494 
 C                     37.84016   38.88123   33.62997 
 H                     38.08548   37.83607   33.41484 
 H                     37.42711   39.314    32.71679 
 C                     39.11786   39.628    34.00232 
 H                     39.30555   39.56714   35.07422 
 H                     39.97573   39.23424   33.45963 
 S                     39.06086   41.40839   33.60639 
 C                     39.59983   41.32709   31.87236 
 H                     38.94374   40.66985   31.3092 
 H                     39.54588   42.33796   31.48025 
 H                     40.62328   40.96498   31.8297 
 C                     36.44199   40.38737   35.04386 
 O                     35.71874   41.03466   34.30252 
 N                     37.00412   40.8634   36.15912 
 H                     37.59086   40.25937   36.72257 
 C                     36.992    42.252    36.571 
 H                     36.41203   42.82071   35.84174 
 C                     36.42759   42.40156   37.98486 
 H                     37.08491   41.86498   38.6728 
 H                     36.44318   43.45819   38.25612 
 C                     35.01026   41.86247   38.12815 
 H                     34.35052   42.27109   37.36494 
 H                     35.01344   40.77448   38.02581 
 C                     34.46201   42.21591   39.49777 
 O                     35.15318   42.17886   40.51298 
 N                     33.16748   42.53012   39.49818 
 H                     32.74348   42.86648   40.34786 
 H                     32.67629   42.66809   38.60811 
 C                     38.43842   42.74612   36.62511 
 O                     39.30288   42.08582   37.2009 
 N                     38.65558   43.93173   36.06963 
 H                     37.91634   44.39115   35.54358 
 C                     39.969    44.538    36.041 
 H                     40.65369   43.84074   36.53182 
 C                     40.43624   44.77917   34.60773 
 H                     39.86172   45.57401   34.14072 
 H                     41.48715   45.05313   34.607 
 H                     40.31901   43.8676   34.02858 
 C                     39.93091   45.85651   36.81617 
 O                     39.27764   46.82124   36.44053 
 N                     40.65051   45.85571   37.93691 
 H                     41.25053   45.07036   38.16572 
 C                     40.698    46.974    38.851 
 H                     39.76868   47.54257   38.7422 
 C                     40.86424   46.45422   40.28985 
 H                     41.70831   45.76093   40.28255 
 H                     41.12252   47.30005   40.93032 
 C                     39.63858   45.76823   40.82947 
 C                     39.22608   44.52911   40.34982 
 H                     39.79613   44.03091   39.58102 
 C                     38.09411   43.91591   40.85108 
 H                     37.76716   42.96416   40.46376 
 C                     37.34826   44.51171   41.86395 
 O                     36.24022   43.93714   42.38147 
 H                     35.90545   43.23859   41.78133 
 C                     37.77486   45.73883   42.37 
 H                     37.20745   46.20268   43.16229 
 C                     38.89435   46.35595   41.84603 
 H                     39.19676   47.31673   42.23972 
 C                     41.90215   47.85846   38.49861 
 O                     43.04756   47.44886   38.63771 
 N                     41.58329   49.07673   38.06117 
 H                     40.62791   49.34322   37.84501 
 C                     42.545    50.103    37.743 
 H                     43.21154   50.24595   38.60341 
 C                     43.41931   49.71414   36.52567 
 H                     44.17311   50.48774   36.37518 
 H                     43.93304   48.78805   36.78715 
 C                     42.63199   49.52107   35.27166 
 C                     41.99964   48.37659   34.86328 
 H                     41.91484   47.43837   35.37677 
 N                     41.42519   48.55287   33.64206 
 H                     40.90968   47.86424   33.10452 
 C                     41.67455   49.82211   33.22599 
 C                     41.32983   50.45488   32.03755 
 H                     40.78923   49.91626   31.27365 
 C                     41.709    51.76931   31.87918 
 H                     41.45444   52.29665   30.97023 
 C                     42.42365   52.44069   32.87697 
 H                     42.69718   53.47431   32.71839 
 C                     42.79035   51.81512   34.04672 
 H                     43.35437   52.34789   34.79647 
 C                     42.42231   50.48187   34.23606 
 C                     41.78953   51.39815   37.45379 
 O                     40.58518   51.40482   37.26782 
 N                     42.58125   52.47401   37.42344 
 H                     43.57719   52.39064   37.58158 
 C                     42.131    53.8      37.076 
 H                     41.49627   53.7148   36.18242 
 C                     41.25674   54.4238   38.20345 
 H                     40.45631   55.00948   37.74343 
 H                     40.80293   53.59399   38.75416 
 O                     41.97036   55.20897   39.11893 
 H                     41.8461   56.13704   38.84978 
 C                     43.35972   54.63405   36.70362 
 O                     44.4509   54.09877   36.53622 
 N                     43.12725   55.92926   36.51388 
 H                     42.27481   56.39294   36.87908 
 C                     44.199    56.847    36.2 
 H                     44.65177   56.54091   35.24791 
 C                     43.68423   58.27806   36.10227 
 H                     44.4919   58.89665   35.69906 
 H                     42.85725   58.3102   35.389 
 C                     43.23181   58.86109   37.44319 
 H                     43.77998   58.39877   38.2673 
 H                     43.40575   59.93753   37.46914 
 C                     41.696    58.65294   37.74139 
 O                     41.28846   57.47311   37.68074 
 O                     41.06833   59.66757   38.01377 
 H                     44.98174   56.7795   36.96908 
 H                     47.06717   54.50778   38.63055 
 C                     47.597    53.581    38.419 
 H                     48.27652   53.37445   39.25019 
 C                     46.60426   52.42449   38.28978 
 H                     45.78741   52.74249   37.63802 
 H                     47.0851   51.55786   37.8336 
 C                     46.03127   52.01098   39.63148 
 O                     46.07454   52.69681   40.63191 
 N                     45.41734   50.80162   39.5905 
 H                     45.11004   50.41525   40.4698 
 H                     45.68348   50.1428   38.8697 
 C                     48.4158   53.67493   37.146 
 O                     49.0548   52.72686   36.7103 
 N                     48.39169   54.87319   36.53543 
 H                     47.77746   55.57873   36.9119 
 C                     48.976    55.173    35.241 
 H                     49.3719   54.24523   34.82736 
 C                     47.91115   55.79865   34.33991 
 H                     47.06644   55.11263   34.26356 
 H                     47.55203   56.71276   34.82331 
 C                     48.40924   56.15294   32.93589 
 H                     49.34725   56.71473   33.0303 
 C                     48.66989   54.90121   32.10415 
 H                     47.76113   54.31001   32.02256 
 H                     48.9783   55.18238   31.09557 
 H                     49.44698   54.28796   32.55107 
 C                     47.37871   57.03757   32.23276 
 H                     47.22923   57.968    32.77692 
 H                     47.69944   57.27698   31.22029 
 H                     46.42383   56.52087   32.17151 
 H                     49.81142   55.87227   35.37426 
 O                     40.78516   47.01511   28.25857 
 H                     40.22962   47.78161   28.41243 
 H                     40.53873   46.38743   29.0035 
 O                     40.57794   45.74363   25.93895 
 H                     39.82582   45.18422   26.15863 
 H                     40.74297   46.24501   26.78049 
 O                     39.75263   47.60359   24.18864 
 H                     40.04524   46.87067   24.77935 
 H                     39.81592   48.39615   24.72482 
 O                     44.31719   48.24009   18.02448 
 H                     43.77538   48.07427   18.80738 
 H                     45.13542   48.6183   18.35417 
 O                     49.41911   43.98682   22.18108 
 H                     50.29251   43.71837   21.88305 
 H                     48.84479   44.04767   21.40577 
 O                     46.13567   48.10522   20.63469 
 H                     46.35175   47.96449   21.56503 
 H                     45.16931   48.14784   20.61387 
 O                     51.5482   41.37005   23.67004 
 H                     51.60379   42.33056   23.70975 
 H                     50.75181   41.14284   24.17379 
 O                     50.81168   51.04689   22.98066 
 H                     51.2584   50.18532   23.02916 
 H                     49.97406   50.89395   22.53973 
 C                     43.02034   42.25292   31.13412 
 O                     43.16756   41.18496   31.74005 
 C                     43.14611   43.54903   31.72334 
 C                     43.17006   44.68781   30.99189 
 C                     43.20138   44.68054   29.4935 
 C                     43.4495   43.27885   28.92862 
 C                     42.63121   42.2433   29.68152 
 C                     43.10389   46.01829   31.63919 
 C                     44.08723   47.03183   31.0552 
 C                     43.98912   47.08597   29.5332 
 C                     44.24069   45.68481   28.95393 
 C                     45.03487   48.02601   28.94401 
 C                     44.98262   48.1027   27.4125 
 C                     45.25093   46.70938   26.85494 
 C                     44.2444   45.70533   27.41957 
 C                     45.04939   49.49394   29.36728 
 C                     45.9016   50.17541   28.27883 
 C                     46.10944   49.12907   27.1637 
 C                     43.66736   48.65973   26.86503 
 O                     46.09925   49.74908   25.89828 
 H                     43.1697   43.59374   32.80425 
 H                     42.20384   45.0156   29.1812 
 H                     44.51224   43.03236   29.01422 
 H                     43.17712   43.24899   27.87334 
 H                     41.57256   42.51511   29.63188 
 H                     42.76827   41.23933   29.27318 
 H                     43.2479   45.93187   32.71694 
 H                     42.07815   46.3878   31.48445 
 H                     45.10609   46.7518   31.3412 
 H                     43.87951   48.01426   31.47932 
 H                     42.9847   47.41243   29.2597 
 H                     45.23284   45.35364   29.29024 
 H                     46.0197   47.60996   29.19745 
 H                     46.25989   46.39934   27.14163 
 H                     45.1997   46.71095   25.76386 
 H                     43.24077   45.94296   27.0685 
 H                     44.50916   44.71861   27.03762 
 H                     45.48835   49.62287   30.35237 
 H                     44.03716   49.89486   29.39908 
 H                     46.8606   50.49617   28.67918 
 H                     45.40652   51.04632   27.85194 
 H                     47.08058   48.62606   27.31019 
 H                     43.51819   49.68244   27.19343 
 H                     43.70461   48.66253   25.77782 
 H                     42.81827   48.06604   27.18412 
 H                     46.08944   49.05911   25.22407 
 
 Stoichiometry    C304H508N56O73S7(2-)
 Framework group  C1[X(C304H508N56O73S7)]
 Deg. of freedom  2838
 Full point group                 C1      NOp   1
 Largest Abelian subgroup         C1      NOp   1
 Largest concise Abelian subgroup C1      NOp   1
                         Standard orientation:                         
 ---------------------------------------------------------------------
 Center     Atomic      Atomic             Coordinates (Angstroms)
 Number     Number       Type             X           Y           Z
 ---------------------------------------------------------------------
      1          1           0        7.845758    5.547323    9.690720
      2          6           0        7.349215    4.647263    9.333237
      3          1           0        6.972252    4.839215    8.331104
      4          6           0        8.314154    3.466826    9.309854
      5          1           0        8.705733    3.284007   10.312891
      6          1           0        7.763574    2.579278    8.995346
      7          6           0        9.469036    3.727703    8.355954
      8          1           0        9.111857    3.943647    7.348614
      9          1           0       10.078716    4.562421    8.702237
     10         16           0       10.628241    2.326925    8.224388
     11          6           0        9.593697    1.167506    7.287778
     12          1           0        9.281033    1.649224    6.366500
     13          1           0       10.188665    0.286650    7.071954
     14          1           0        8.735762    0.890216    7.890034
     15          1           0        6.508017    4.429820    9.986952
     16          1           0        3.740371    7.217488    8.200390
     17          6           0        3.539297    7.076990    7.135605
     18          1           0        3.410418    8.052880    6.669140
     19          6           0        4.716076    6.336653    6.480871
     20          1           0        5.637413    6.876800    6.714806
     21          1           0        4.798352    5.331159    6.898940
     22          6           0        4.544352    6.257712    4.989482
     23          6           0        4.674857    7.403254    4.216653
     24          1           0        4.922921    8.344420    4.686296
     25          6           0        4.502260    7.355172    2.847602
     26          1           0        4.618262    8.256596    2.261350
     27          6           0        4.199486    6.150645    2.226687
     28          8           0        4.041898    6.066092    0.868312
     29          1           0        3.893546    6.946900    0.502685
     30          6           0        4.076661    4.993794    2.984384
     31          1           0        3.857560    4.057004    2.496584
     32          6           0        4.245893    5.059264    4.354569
     33          1           0        4.149055    4.154403    4.933682
     34          6           0        2.235676    6.306827    6.969579
     35          8           0        1.352046    6.681891    6.215121
     36          7           0        2.123677    5.197376    7.719061
     37          1           0        2.871109    4.942679    8.345710
     38          6           0        0.961125    4.326974    7.707386
     39          1           0        0.439261    4.504784    6.765601
     40          6           0        1.332237    2.847267    7.848840
     41          1           0        1.842451    2.719557    8.812688
     42          6           0        0.053733    2.011708    7.873433
     43          1           0       -0.528635    2.176045    6.972327
     44          1           0        0.299886    0.954838    7.934485
     45          1           0       -0.567298    2.276085    8.726353
     46          6           0        2.302497    2.364360    6.760522
     47          1           0        3.246777    2.902123    6.872909
     48          1           0        2.510360    1.307944    6.941617
     49          6           0        1.800540    2.529930    5.331750
     50          1           0        1.659231    3.578691    5.085968
     51          1           0        2.525131    2.113441    4.636199
     52          1           0        0.864418    2.000118    5.184499
     53          1           0        0.288676    4.607809    8.528225
     54          1           0       -0.836586    8.446104    7.413675
     55          6           0       -1.155993    9.138878    6.633632
     56          1           0       -1.828883    9.883552    7.055223
     57          6           0        0.071463    9.803887    6.003210
     58          1           0        0.618942    9.046315    5.438340
     59          1           0       -0.261653   10.574147    5.303916
     60          6           0        1.033422   10.419717    7.023474
     61          1           0        1.345540    9.628837    7.715483
     62          6           0        2.272042   10.948926    6.301328
     63          1           0        2.002164   11.775263    5.646781
     64          1           0        3.012828   11.305878    7.014168
     65          1           0        2.723181   10.168718    5.692248
     66          6           0        0.378899   11.540942    7.825996
     67          1           0       -0.441345   11.161687    8.429007
     68          1           0        1.104440   12.003361    8.492655
     69          1           0       -0.009664   12.306346    7.157202
     70          6           0       -1.913404    8.379925    5.545378
     71          8           0       -2.896905    8.832771    4.993379
     72          7           0       -1.398023    7.165880    5.249603
     73          1           0       -0.495743    6.908064    5.630955
     74          6           0       -1.947065    6.344670    4.179556
     75          1           0       -2.019593    6.939663    3.258945
     76          6           0       -1.052131    5.117903    3.932201
     77          1           0       -0.874104    4.634772    4.900075
     78          6           0       -1.733194    4.112695    3.007282
     79          1           0       -1.980864    4.584360    2.061038
     80          1           0       -1.067883    3.272571    2.821087
     81          1           0       -2.653347    3.735207    3.441995
     82          6           0        0.288011    5.544385    3.332465
     83          1           0        0.840873    6.193325    4.006096
     84          1           0        0.901329    4.670532    3.125604
     85          1           0        0.127061    6.072811    2.396048
     86          6           0       -3.388044    5.927705    4.516747
     87          8           0       -4.241348    5.820026    3.655258
     88          7           0       -3.596418    5.629022    5.807691
     89          1           0       -2.888832    5.880924    6.480681
     90          6           0       -4.920504    5.321118    6.325349
     91          1           0       -5.375893    4.597873    5.641898
     92          6           0       -4.857948    4.755005    7.734920
     93          1           0       -4.249327    3.853688    7.784574
     94          1           0       -4.478342    5.504143    8.430769
     95          6           0       -6.311125    4.420725    8.098998
     96          8           0       -6.797883    3.351220    7.701786
     97          8           0       -6.936032    5.324772    8.712969
     98          1           0       -5.536554    6.228566    6.315399
     99          1           0       -4.556937    9.281506    3.174087
    100          6           0       -5.366133    9.371609    2.460764
    101          1           0       -4.982564    9.262455    1.453542
    102          1           0       -6.090951    8.593098    2.656334
    103          1           0       -5.838132   10.340640    2.566388
    104          1           0       -2.205220   12.440264    0.566455
    105          6           0       -1.441452   12.344141   -0.201133
    106          1           0       -1.203173   11.290611   -0.314031
    107          6           0       -1.920455   12.935929   -1.521647
    108          1           0       -2.032520   14.020209   -1.384061
    109          6           0       -0.865866   12.707154   -2.603982
    110          1           0       -0.723745   11.643466   -2.775242
    111          1           0       -1.146217   13.181472   -3.542001
    112          1           0        0.086803   13.124461   -2.284796
    113          6           0       -3.303333   12.389654   -1.907784
    114          1           0       -4.013948   12.687739   -1.133934
    115          1           0       -3.624230   12.870140   -2.838464
    116          6           0       -3.382694   10.875560   -2.070673
    117          1           0       -3.180461   10.376909   -1.127743
    118          1           0       -4.384951   10.591427   -2.383999
    119          1           0       -2.677422   10.512594   -2.814729
    120          1           0       -0.546539   12.859331    0.141919
    121          1           0        2.138652   11.748891    2.953316
    122          6           0        2.870982   11.376744    2.241259
    123          1           0        3.568526   10.735924    2.776127
    124          6           0        2.181678   10.596698    1.122375
    125          1           0        1.466206   11.261633    0.624743
    126          6           0        3.211435   10.150626    0.085983
    127          1           0        3.978605    9.540485    0.556616
    128          1           0        2.749889    9.578254   -0.714945
    129          1           0        3.700836   11.016516   -0.355788
    130          6           0        1.398181    9.421289    1.717354
    131          1           0        2.083698    8.734979    2.219218
    132          1           0        0.722521    9.817272    2.478445
    133          6           0        0.574275    8.655502    0.688969
    134          1           0        1.203653    8.056918    0.034517
    135          1           0       -0.120887    7.992224    1.195150
    136          1           0       -0.002001    9.345380    0.075641
    137          1           0        3.422661   12.224406    1.839472
    138          1           0        8.912699   11.448502    1.202557
    139          6           0        9.731769   11.418194    0.487275
    140          1           0       10.506262   10.766243    0.882571
    141          6           0        9.237426   10.894011   -0.865122
    142          1           0        8.494402   11.586916   -1.267244
    143          1           0       10.077803   10.854933   -1.561404
    144          6           0        8.630005    9.525612   -0.725618
    145          6           0        7.274577    9.369297   -0.473950
    146          1           0        6.634715   10.239909   -0.426755
    147          6           0        6.723882    8.115477   -0.282777
    148          1           0        5.662483    8.014580   -0.109736
    149          6           0        7.522870    6.978031   -0.314744
    150          8           0        7.040906    5.735718   -0.081749
    151          1           0        6.074028    5.739556   -0.001166
    152          6           0        8.879564    7.125339   -0.599163
    153          1           0        9.499368    6.245122   -0.652480
    154          6           0        9.415515    8.380732   -0.805180
    155          1           0       10.466733    8.473266   -1.037868
    156          1           0       10.140593   12.420632    0.380902
    157          1           0       10.239607    4.210821   -5.356702
    158          6           0        9.315979    3.727045   -5.031871
    159          1           0        9.443371    3.375421   -4.009105
    160          6           0        8.151145    4.717618   -5.134273
    161          1           0        8.069343    5.025570   -6.182266
    162          6           0        6.843549    4.042610   -4.726287
    163          1           0        6.905356    3.674762   -3.705274
    164          1           0        6.005204    4.733967   -4.800600
    165          1           0        6.638221    3.199801   -5.380007
    166          6           0        8.413153    5.950876   -4.269561
    167          1           0        9.379108    6.391894   -4.505460
    168          1           0        7.649719    6.711241   -4.440859
    169          1           0        8.410633    5.683352   -3.214349
    170          6           0        9.072444    2.532019   -5.961111
    171          8           0        8.729111    2.679748   -7.123333
    172          7           0        9.253584    1.328437   -5.390232
    173          1           0        9.563640    1.270790   -4.423940
    174          6           0        9.131867    0.068132   -6.105097
    175          1           0        8.874837    0.310353   -7.141189
    176          6           0       10.436153   -0.738888   -6.041428
    177          1           0       10.646733   -0.964930   -4.993257
    178          1           0       10.261706   -1.676536   -6.573964
    179          6           0       11.628705   -0.013272   -6.638912
    180          1           0       11.534436    0.098545   -7.718353
    181          1           0       11.754595    0.964661   -6.172164
    182          6           0       12.954972   -0.837077   -6.334586
    183          8           0       13.231754   -0.915267   -5.130381
    184          8           0       13.535038   -1.284904   -7.315446
    185          6           0        8.012867   -0.728723   -5.427935
    186          8           0        8.189180   -1.271098   -4.345206
    187          7           0        6.847059   -0.739543   -6.078487
    188          1           0        6.748763   -0.244987   -6.952340
    189          6           0        5.616407   -1.166887   -5.441594
    190          1           0        5.883016   -1.910056   -4.689253
    191          6           0        4.989369    0.058111   -4.756801
    192          1           0        5.646252    0.387382   -3.946224
    193          1           0        4.907033    0.873928   -5.478049
    194          6           0        3.585128   -0.188619   -4.158619
    195          8           0        3.213907   -1.350397   -3.957564
    196          8           0        2.914442    0.842574   -3.902810
    197          6           0        4.648114   -1.746602   -6.472076
    198          8           0        4.023762   -1.007771   -7.225634
    199          7           0        4.503764   -3.075252   -6.494749
    200          6           0        3.654251   -3.699123   -7.498193
    201          1           0        3.746414   -3.155879   -8.440781
    202          1           0        2.611395   -3.657504   -7.166859
    203          6           0        4.150246   -5.137228   -7.564547
    204          1           0        5.008443   -5.203800   -8.233715
    205          1           0        3.378194   -5.827703   -7.896479
    206          6           0        4.591092   -5.393915   -6.127253
    207          1           0        5.274353   -6.234950   -6.032861
    208          1           0        3.724891   -5.583688   -5.493490
    209          6           0        5.248696   -4.064577   -5.734419
    210          1           0        5.169652   -3.892785   -4.658528
    211          6           0        6.729429   -4.068312   -6.162652
    212          8           0        7.097788   -3.663266   -7.249649
    213          7           0        7.527686   -4.622529   -5.241405
    214          1           0        7.152756   -4.795912   -4.316406
    215          6           0        8.937477   -4.849928   -5.432975
    216          1           0        9.210193   -4.417566   -6.399057
    217          6           0        9.793640   -4.247480   -4.314902
    218          1           0        9.695584   -3.162148   -4.338757
    219          1           0        9.421516   -4.610060   -3.352886
    220          6           0       11.221175   -4.673838   -4.510369
    221          6           0       12.022269   -4.070901   -5.471031
    222          1           0       11.638746   -3.252479   -6.056683
    223          6           0       13.318277   -4.500090   -5.687007
    224          1           0       13.920736   -4.000856   -6.431253
    225          6           0       13.832576   -5.549683   -4.943625
    226          1           0       14.846909   -5.888003   -5.107596
    227          6           0       13.040004   -6.167986   -3.992108
    228          1           0       13.432271   -6.983534   -3.402985
    229          6           0       11.742578   -5.735098   -3.783203
    230          1           0       11.126761   -6.225359   -3.043267
    231          1           0        9.121697   -5.932581   -5.476719
    232          1           0        1.120733    7.997741   -8.227760
    233          6           0        1.089772    6.969939   -7.847616
    234          1           0        0.721159    6.330011   -8.651048
    235          6           0        2.511166    6.539616   -7.456978
    236          1           0        3.184177    6.872843   -8.251121
    237          1           0        2.833595    7.025267   -6.531871
    238          6           0        2.637523    5.045768   -7.320752
    239          6           0        2.538840    4.244228   -8.451981
    240          1           0        2.363860    4.704529   -9.414677
    241          6           0        2.690744    2.873094   -8.358387
    242          1           0        2.626359    2.261539   -9.245655
    243          6           0        2.945961    2.283001   -7.131577
    244          1           0        3.091860    1.214793   -7.066473
    245          6           0        3.036548    3.072878   -5.996451
    246          1           0        3.218604    2.607747   -5.037986
    247          6           0        2.877218    4.448229   -6.090981
    248          1           0        2.962985    5.062968   -5.201827
    249          6           0        0.055030    6.956087   -6.748488
    250          8           0       -1.071536    6.507303   -6.911411
    251          7           0        0.375788    7.612128   -5.615100
    252          1           0        1.347133    7.828494   -5.434519
    253          6           0       -0.473579    7.566694   -4.437779
    254          1           0       -0.578041    6.528986   -4.090772
    255          6           0        0.181882    8.404620   -3.324100
    256          1           0        0.244764    9.446707   -3.647805
    257          1           0       -0.449591    8.347103   -2.436704
    258          6           0        1.553800    7.860443   -3.031075
    259          6           0        2.694385    8.439647   -3.573978
    260          1           0        2.615343    9.353141   -4.149991
    261          6           0        3.947575    7.881913   -3.372810
    262          1           0        4.824238    8.344840   -3.805013
    263          6           0        4.076096    6.724960   -2.613080
    264          8           0        5.259490    6.130762   -2.358531
    265          1           0        5.981149    6.504774   -2.880695
    266          6           0        2.935366    6.145215   -2.055078
    267          1           0        3.056949    5.254230   -1.464448
    268          6           0        1.694876    6.702755   -2.270080
    269          1           0        0.819896    6.234837   -1.845204
    270          6           0       -1.886370    8.069074   -4.711529
    271          8           0       -2.837627    7.643539   -4.083840
    272          7           0       -2.020756    9.055418   -5.620473
    273          1           0       -1.240207    9.312754   -6.203891
    274          6           0       -3.338152    9.556634   -5.954631
    275          1           0       -3.883702    9.686820   -5.011993
    276          6           0       -3.268928   10.889426   -6.694904
    277          1           0       -2.598923   10.800420   -7.553217
    278          1           0       -4.271030   11.102027   -7.071265
    279          6           0       -2.821446   12.017731   -5.772120
    280          1           0       -3.450531   11.997367   -4.881211
    281          1           0       -1.788780   11.862144   -5.458188
    282          6           0       -2.947438   13.390035   -6.426845
    283          1           0       -2.240380   13.486687   -7.254096
    284          1           0       -3.967930   13.508290   -6.822782
    285          7           0       -2.631921   14.407814   -5.450645
    286          1           0       -3.043419   14.260982   -4.538145
    287          6           0       -2.385096   15.711387   -5.788501
    288          7           0       -2.240754   16.066540   -7.116568
    289          1           0       -2.953230   15.714846   -7.740584
    290          1           0       -2.025656   17.040519   -7.261976
    291          7           0       -1.889989   16.562890   -4.815340
    292          1           0       -1.995854   16.229847   -3.869637
    293          1           0       -2.124052   17.539731   -4.923050
    294          6           0       -4.200600    8.578494   -6.783072
    295          8           0       -5.404311    8.732624   -6.808794
    296          7           0       -3.537106    7.645346   -7.479562
    297          1           0       -2.572751    7.422821   -7.251925
    298          6           0       -4.266951    6.555939   -8.111514
    299          1           0       -5.155988    6.986431   -8.583078
    300          6           0       -3.403675    5.779966   -9.111237
    301          1           0       -2.772238    5.084074   -8.562071
    302          1           0       -4.066948    5.196618   -9.751172
    303          6           0       -2.518495    6.678602   -9.972023
    304          1           0       -3.121675    7.301120  -10.633700
    305          1           0       -1.923701    7.332529   -9.332294
    306          6           0       -1.529697    5.901893  -10.836344
    307          8           0       -1.392633    6.135347  -12.019968
    308          7           0       -0.754549    5.016851  -10.177152
    309          1           0       -0.143018    4.444181  -10.737431
    310          1           0       -0.952232    4.688368   -9.237631
    311          6           0       -4.721583    5.624703   -6.969654
    312          8           0       -5.900801    5.407589   -6.724133
    313          7           0       -3.715344    5.156066   -6.224295
    314          1           0       -2.760602    5.328119   -6.516858
    315          6           0       -3.890092    4.116952   -5.232483
    316          1           0       -4.217486    3.187566   -5.713394
    317          1           0       -2.924004    3.936282   -4.756138
    318          6           0       -4.917901    4.427157   -4.142623
    319          8           0       -5.696576    3.569934   -3.753746
    320          7           0       -4.886004    5.672446   -3.651761
    321          1           0       -4.141949    6.303833   -3.925944
    322          6           0       -5.664986    6.080977   -2.500677
    323          1           0       -6.127919    5.190252   -2.063498
    324          6           0       -4.761711    6.760479   -1.459595
    325          1           0       -4.372446    7.682412   -1.899501
    326          1           0       -5.373625    7.013587   -0.594190
    327          6           0       -3.585539    5.894586   -0.997268
    328          1           0       -2.988757    5.613459   -1.873389
[...]
 ,0,49.565445092,50.9357385005,27.2098869087\H,0,49.8331141548,51.96304
 42313,27.4500818226\H,0,48.5322629755,50.9026952338,26.8640738944\S,0,
 49.6311278189,49.9633624352,28.7628966674\C,0,50.2007887678,51.2266788
 527,29.9278394502\H,0,49.4168290986,51.9635729962,30.0804634423\H,0,50
 .417868975,50.7186086053,30.8602172497\H,0,51.0990787106,51.6965028482
 ,29.5420919911\C,0,52.1964185111,52.2661301641,26.1706117795\O,0,52.91
 38630828,52.8430392246,26.9721745459\N,0,51.6011868793,52.8810396234,2
 5.138142645\H,0,51.1037287518,52.3427842201,24.4365804623\C,0,51.96799
 99507,54.2329998196,24.7740000265\H,0,52.8149024563,54.5007648558,25.4
 181330255\C,0,52.4005174534,54.3018246224,23.2968888731\H,0,51.5121280
 104,54.1131953613,22.6871103909\C,0,52.9322717218,55.6982376936,22.982
 1901305\H,0,53.8031575884,55.9214633537,23.596444451\H,0,53.2236631693
 ,55.7620423848,21.9363241384\H,0,52.1718064251,56.4515884432,23.170925
 3758\C,0,53.4562402887,53.243112623,22.9884128451\H,0,53.033007849,52.
 2462283713,23.0592115595\H,0,53.8347460175,53.3798911885,21.9782728425
 \H,0,54.2899072902,53.322254735,23.6839739787\C,0,50.8333405921,55.250
 6808712,24.9948840073\O,0,49.8560070239,55.3112125402,24.2800461018\N,
 0,51.1012890683,56.1433394957,25.9744162998\H,0,51.7840506981,55.89046
 72962,26.672407393\C,0,50.2260000518,57.2539999736,26.2819999794\H,0,4
 9.6435115777,57.4537885524,25.3808290034\C,0,49.2728815474,56.95621590
 46,27.448804748\H,0,48.7614394288,56.0148745928,27.2355697049\H,0,49.8
 482405625,56.8387050607,28.3686116497\C,0,48.2712430898,58.0455267183,
 27.6258232946\C,0,48.1814914123,58.9294656293,28.6599490526\H,0,48.792
 8416551,59.0118157131,29.5392210698\N,0,47.1341890082,59.789913825,28.
 4590839484\H,0,46.8342961613,60.5027853641,29.1011924727\C,0,46.518920
 6964,59.4692214666,27.283516301\C,0,45.4218926876,60.0420725771,26.652
 6525283\H,0,44.9002426847,60.8802837779,27.0919224356\C,0,45.022660941
 8,59.4969095976,25.4515882264\H,0,44.1720219984,59.9163197194,24.93407
 34528\C,0,45.691911914,58.4055848418,24.8899699531\H,0,45.340128637,58
 .0054792912,23.950395387\C,0,46.7798376415,57.8326130435,25.5088084701
 \H,0,47.2838122281,56.9848219387,25.0702696335\C,0,47.2112282728,58.36
 96736908,26.722140397\H,0,50.8402834877,58.1297446637,26.512290367\H,0
 ,54.0827582175,54.3812502696,28.9684753344\C,0,53.7139999998,54.469999
 9984,29.9920000008\H,0,54.4423630124,55.0113057698,30.5994503325\C,0,5
 2.3832748535,55.2092910871,29.9945672993\H,0,51.9256813399,55.22182022
 78,30.9823055219\H,0,52.5114883931,56.234567537,29.6410859223\S,0,51.2
 073428079,54.3614437674,28.8626849985\H,0,50.1065905804,54.6753799927,
 29.5524177054\C,0,53.5547165728,53.0463507471,30.5365417641\O,0,53.761
 7426095,52.0496627406,29.8666598397\N,0,53.1965717688,52.9914215484,31
 .8291100503\H,0,52.9055177708,53.8245005581,32.3245574481\C,0,52.84400
 00119,51.7729999931,32.5230000029\H,0,52.8149935974,50.9556394871,31.7
 995165486\C,0,53.8492233212,51.4649080305,33.6330804235\H,0,53.9260551
 224,52.3169268405,34.3062096762\H,0,53.5007371609,50.6067773258,34.198
 3053585\H,0,54.8283755653,51.2503168493,33.2097669095\C,0,51.462509692
 5,51.9708242303,33.1660539505\O,0,51.0767667563,53.0964632585,33.44692
 77777\N,0,50.796301709,50.8425205031,33.3988641056\H,0,51.1386685524,4
 9.9560675362,33.0371550906\C,0,49.5560000016,50.7939999951,34.14699999
 31\H,0,49.5196231776,51.6926363551,34.7700633685\C,0,48.3315634927,50.
 7508215668,33.2206763747\H,0,48.389810777,51.6020495022,32.5390473268\
 H,0,48.3880089558,49.839079193,32.6304700785\C,0,46.9861270234,50.7850
 344143,33.9596610709\H,0,47.0499284833,50.1492198185,34.8472908009\C,0
 ,46.6337997558,52.2031828424,34.3900458857\H,0,46.4743563315,52.827411
 3868,33.5130488622\H,0,45.7230407331,52.2164543446,34.9801017081\H,0,4
 7.4284776781,52.632231732,34.9868745472\C,0,45.8908244226,50.236100742
 7,33.0495336678\H,0,46.117784179,49.2189818054,32.7405248691\H,0,44.93
 3411355,50.2337772526,33.5613745762\H,0,45.7954091987,50.8622105057,32
 .1645707015\C,0,49.588975977,49.549869237,35.0394915032\O,0,49.9113638
 816,48.4569744643,34.5805569714\N,0,49.2437534096,49.759846658,36.3076
 372148\H,0,49.0461780559,50.7097493373,36.614885782\C,0,49.212000045,4
 8.7099999939,37.3159999906\H,0,49.7522656854,47.8526790919,36.89564051
 37\C,0,49.9607308737,49.1763086818,38.5600652337\H,0,49.5759168022,50.
 1285686936,38.9255312839\H,0,49.8682059065,48.4254117722,39.3471516523
 \C,0,51.45391836,49.3342676203,38.2042082176\O,0,51.9717925988,48.4519
 599775,37.4906175051\O,0,52.0535148867,50.3370001904,38.6486901944\C,0
 ,47.7442120516,48.2989404453,37.5409940385\O,0,46.8762909664,49.135362
 4676,37.754893409\N,0,47.5076578196,46.9894162669,37.4251497786\H,0,48
 .2535712793,46.3293057252,37.2217569939\C,0,46.184999994,46.4089999925
 ,37.3350000012\H,0,45.4511669867,47.1539121339,37.6545424671\C,0,45.90
 6228114,45.9473914915,35.880951905\H,0,46.6195579552,45.1455257797,35.
 6570054172\C,0,44.482945869,45.4130459054,35.7471431376\H,0,43.7690967
 893,46.1409626572,36.1257852669\H,0,44.2603038608,45.2230622274,34.700
 3091595\H,0,44.3465985586,44.4789350633,36.2843654363\C,0,46.131355505
 7,47.0901363117,34.8943849894\H,0,47.1596746303,47.4404891454,34.93130
 5823\H,0,45.9255185395,46.7457542981,33.8835355223\H,0,45.4685023096,4
 7.9228544457,35.1145784606\C,0,46.1091806044,45.1504450061,38.20823396
 53\O,0,47.0389549112,44.374661316,38.3240560179\N,0,44.9082887891,44.9
 257526834,38.7850395367\H,0,44.1664909526,45.6156508939,38.7191446732\
 C,0,44.6040000267,43.6530000047,39.4159999923\H,0,45.4764879285,43.013
 0484206,39.2481405803\C,0,44.3402299045,43.7963467908,40.9307567671\H,
 0,43.4743216893,44.4556653649,41.0522030332\C,0,44.0064493756,42.42886
 12506,41.5240645885\H,0,44.845622543,41.7452175378,41.4054424242\H,0,4
 3.7830583238,42.5182431571,42.5833648882\H,0,43.1360880792,41.99408618
 07,41.0374458789\C,0,45.5487868417,44.4381814338,41.6170117629\H,0,46.
 3763702762,43.7254965347,41.6283706561\H,0,45.8658675697,45.2998034585
 ,41.0277577198\C,0,45.2479727275,44.9035036728,43.03659666\H,0,45.0076
 410605,44.0660726477,43.6873051471\H,0,46.1118943517,45.4172080171,43.
 451900487\H,0,44.4067769503,45.5928496311,43.0383010508\C,0,43.3535838
 747,43.0879994007,38.7515347549\O,0,42.3154690661,43.7256775173,38.717
 4441264\N,0,43.4690400248,41.8679501203,38.1996098201\H,0,44.289404565
 1,41.3100431764,38.3852894075\C,0,42.3100000202,41.1729999784,37.69099
 99702\H,0,41.5335375101,41.9148438931,37.489082809\C,0,42.6132814511,4
 0.3576038449,36.4388380941\H,0,43.4892980938,39.7299979193,36.61372146
 99\H,0,41.7658479374,39.6967272297,36.2380795677\C,0,42.8458753012,41.
 1496103469,35.1620084573\O,0,42.8332181279,42.3453644325,35.0649635755
 \O,0,43.0716985029,40.3064190777,34.1692549586\H,0,43.1634137961,40.76
 74458146,33.2742576972\C,0,41.8186567762,40.1333637161,38.7178578712\O
 ,0,42.5984011763,39.3628822084,39.2621531694\N,0,40.4951629604,40.1213
 70599,38.8890038707\H,0,39.9160966489,40.7716692708,38.3528370872\C,0,
 39.7979997782,39.0890000224,39.6350006151\H,0,40.5531561062,38.4926246
 891,40.1569487088\C,0,38.8092986608,39.7154068644,40.6369918923\H,0,38
 .0829577424,40.2985394893,40.0627134177\C,0,38.0618519519,38.627935246
 6,41.4032132538\H,0,38.7555069149,38.0143287598,41.9764018614\H,0,37.3
 578311149,39.0871218527,42.0919444239\H,0,37.5027697528,37.9857237862,
 40.7259360216\C,0,39.5482090339,40.6453566099,41.5938151736\H,0,40.059
 181036,41.4338805876,41.0480913412\H,0,38.8439984942,41.1096464953,42.
 2786827808\H,0,40.28445062,40.0898325853,42.1722659038\C,0,39.04261654
 1,38.2554443099,38.6012476847\O,0,38.3820458143,38.774087844,37.719015
 1169\N,0,39.1586937462,36.92066251,38.7128269881\H,0,39.7700298435,36.
 5218081718,39.4072767671\C,0,38.5379999997,36.0179999905,37.7699999894
 \H,0,37.8070100833,36.6002835472,37.2055467565\C,0,39.5620838014,35.38
 55795009,36.822885971\H,0,40.3660790229,34.9304534687,37.4063295877\H,
 0,39.0739839323,34.592312765,36.2553248249\C,0,40.1377387609,36.408025
 7642,35.8552328073\H,0,39.3588920713,36.8081409267,35.2074215025\H,0,4
 0.6178910939,37.2311776959,36.3878459316\S,0,41.3881541098,35.62054904
 87,34.775072045\C,0,41.526296705,36.8742952637,33.4760526729\H,0,41.89
 55650567,37.8071453542,33.893417959\H,0,42.2369644723,36.4941526772,32
 .7491821413\H,0,40.5585065853,37.013299743,33.0019533029\H,0,38.018418
 141,35.2304248743,38.3236207709\H,0,36.5004744494,31.5167007196,31.914
 0064634\C,0,36.7340000273,32.2370000376,32.6960000016\H,0,37.174528967
 4,31.6994805735,33.5336682756\C,0,37.6998834667,33.3053820916,32.18151
 04914\H,0,37.2211035001,33.8358843007,31.3522697783\C,0,38.0047151934,
 34.3177675352,33.2812014966\H,0,38.6019542137,33.8557416253,34.0645351
 43\H,0,38.5570415394,35.1612138617,32.877516623\H,0,37.0829690575,34.6
 93202766,33.7207883309\C,0,38.9817889173,32.6564638534,31.6488603009\H
 ,0,39.5137902236,32.1788142628,32.4751557634\H,0,38.7055718639,31.8737
 820073,30.9369557521\C,0,39.9116672158,33.6451912861,30.9537266907\H,0
 ,40.328013478,34.3563771364,31.6611253678\H,0,40.7400206055,33.1173519
 406,30.4852821034\H,0,39.3746206729,34.1969133047,30.1847698519\H,0,35
 .8049365835,32.6921727007,33.0318868691\H,0,35.8744427675,38.428046919
 8,34.3940446004\C,0,36.7810000113,38.9300000178,34.7359999993\H,0,37.1
 535406212,38.4398266401,35.6349382618\C,0,37.8401613471,38.8812254193,
 33.6299696048\H,0,38.085479049,37.8360748772,33.4148374937\H,0,37.4271
 102443,39.3139963849,32.7167861123\C,0,39.1178550434,39.628004617,34.0
 023193661\H,0,39.30555465,39.5671417671,35.0742157293\H,0,39.975725571
 ,39.2342382543,33.4596346423\S,0,39.0608607392,41.4083886646,33.606394
 7352\C,0,39.5998285207,41.3270946036,31.8723558881\H,0,38.9437409544,4
 0.6698478695,31.3091969195\H,0,39.5458763854,42.3379607199,31.48024584
 84\H,0,40.6232763297,40.9649807183,31.8297024481\C,0,36.441992227,40.3
 873728587,35.0438646494\O,0,35.7187431809,41.0346576132,34.3025219138\
 N,0,37.0041188185,40.8634001209,36.1591212556\H,0,37.5908642575,40.259
 3677563,36.722568635\C,0,36.9919999866,42.2519999958,36.5709999618\H,0
 ,36.4120326667,42.8207126146,35.8417444922\C,0,36.4275900442,42.401564
 1284,37.9848644832\H,0,37.0849148693,41.8649811908,38.6727995464\H,0,3
 6.4431801123,43.4581859957,38.2561231149\C,0,35.0102556893,41.86246819
 32,38.1281545708\H,0,34.3505172837,42.2710861498,37.3649399972\H,0,35.
 0134407465,40.7744792804,38.0258138063\C,0,34.4620096389,42.2159144392
 ,39.4977674449\O,0,35.1531765908,42.1788556815,40.5129792674\N,0,33.16
 74755247,42.5301150971,39.4981824332\H,0,32.7434817564,42.8664836989,4
 0.3478581657\H,0,32.6762874514,42.6680869568,38.6081061008\C,0,38.4384
 183748,42.7461184676,36.6251070874\O,0,39.3028771123,42.0858179514,37.
 200903885\N,0,38.6555775409,43.9317329279,36.0696308409\H,0,37.9163355
 188,44.3911523629,35.5435807574\C,0,39.9689999842,44.5380000457,36.041
 0000074\H,0,40.6536922495,43.840742356,36.531815228\C,0,40.4362440563,
 44.7791652729,34.6077349176\H,0,39.8617168039,45.5740145014,34.1407241
 667\H,0,41.4871549075,45.0531340524,34.6070004366\H,0,40.3190107055,43
 .8675994536,34.0285798233\C,0,39.9309116056,45.85650954,36.8161670735\
 O,0,39.2776385757,46.8212425425,36.440526179\N,0,40.650514682,45.85571
 08582,37.9369082979\H,0,41.2505274985,45.0703578069,38.1657187239\C,0,
 40.6980000054,46.9739999873,38.8510000035\H,0,39.7686783883,47.5425710
 267,38.7422018563\C,0,40.8642409655,46.4542199471,40.289845997\H,0,41.
 7083100085,45.7609339377,40.2825463992\H,0,41.1225159659,47.3000491237
 ,40.930316188\C,0,39.6385782429,45.7682349861,40.8294716412\C,0,39.226
 0819845,44.5291142941,40.3498158109\H,0,39.7961345866,44.0309120301,39
 .5810154659\C,0,38.0941113807,43.9159130919,40.8510795485\H,0,37.76715
 54632,42.9641619321,40.4637614151\C,0,37.3482551454,44.5117145142,41.8
 639501953\O,0,36.2402158614,43.9371394265,42.3814728113\H,0,35.9054534
 344,43.2385903256,41.7813348801\C,0,37.774859775,45.7388279022,42.3699
 986446\H,0,37.2074470017,46.2026766815,43.1622941264\C,0,38.8943470187
 ,46.3559519294,41.8460291053\H,0,39.1967605798,47.316728905,42.2397161
 707\C,0,41.9021490635,47.8584649351,38.498606217\O,0,43.0475619846,47.
 4488555764,38.637713107\N,0,41.5832890631,49.0767256286,38.061173171\H
 ,0,40.6279095899,49.3432163297,37.8450080716\C,0,42.5450000112,50.1030
 000254,37.7429999652\H,0,43.2115443931,50.2459465909,38.6034132769\C,0
 ,43.4193102775,49.7141384485,36.525665445\H,0,44.1731058686,50.4877366
 255,36.3751774473\H,0,43.9330419062,48.7880471105,36.787154651\C,0,42.
 6319879946,49.5210743062,35.2716589429\C,0,41.9996447814,48.3765936532
 ,34.8632783687\H,0,41.9148424117,47.4383676879,35.3767691926\N,0,41.42
 51905087,48.5528703,33.642061281\H,0,40.909684749,47.8642448674,33.104
 5196992\C,0,41.6745469993,49.8221124067,33.2259881512\C,0,41.329830674
 7,50.4548813142,32.0375460051\H,0,40.7892330378,49.9162553501,31.27364
 62242\C,0,41.7090015276,51.7693055542,31.879180598\H,0,41.4544373177,5
 2.2966468541,30.9702320224\C,0,42.42365447,52.44068752,32.8769678184\H
 ,0,42.6971823423,53.4743134626,32.7183869336\C,0,42.7903542514,51.8151
 185711,34.0467162246\H,0,43.3543735787,52.3478877284,34.7964656525\C,0
 ,42.4223071655,50.4818667382,34.2360601916\C,0,41.7895289744,51.398145
 8402,37.453788339\O,0,40.5851823129,51.4048223286,37.2678197248\N,0,42
 .5812482055,52.4740085998,37.4234409444\H,0,43.5771920107,52.390638602
 6,37.5815787101\C,0,42.1310000142,53.8000000079,37.0759999879\H,0,41.4
 962688395,53.7148020909,36.1824171234\C,0,41.2567363375,54.4237984335,
 38.2034479496\H,0,40.4563120161,55.0094845064,37.7434300964\H,0,40.802
 9308818,53.5939910774,38.7541642404\O,0,41.9703575281,55.208965091,39.
 118925182\H,0,41.8460954962,56.1370389905,38.8497770072\C,0,43.3597243
 124,54.6340476087,36.7036193065\O,0,44.450895368,54.0987652246,36.5362
 192268\N,0,43.1272536954,55.9292637185,36.5138795384\H,0,42.2748085336
 ,56.3929384161,36.8790788984\C,0,44.199000016,56.8469999949,36.1999999
 845\H,0,44.6517673357,56.5409139232,35.2479074436\C,0,43.6842264349,58
 .2780562389,36.1022687935\H,0,44.4919035938,58.8966535258,35.699061426
 \H,0,42.8572481016,58.3102026002,35.3889971873\C,0,43.2318101377,58.86
 10922193,37.4431885684\H,0,43.7799792133,58.3987690048,38.2672980789\H
 ,0,43.4057547256,59.9375316037,37.4691350669\C,0,41.6959956172,58.6529
 426946,37.7413930768\O,0,41.2884575419,57.4731101552,37.6807424672\O,0
 ,41.0683268033,59.6675683567,38.0137691904\H,0,44.9817380191,56.779504
 1205,36.9690843904\H,0,47.0671705515,54.507781481,38.6305464002\C,0,47
 .5970000058,53.5810000041,38.4189999869\H,0,48.2765154486,53.374453208
 3,39.2501933573\C,0,46.6042587267,52.4244900277,38.2897827374\H,0,45.7
 874084397,52.7424908949,37.6380206138\H,0,47.0851006057,51.5578606086,
 37.833595195\C,0,46.0312719519,52.0109825507,39.6314846089\O,0,46.0745
 419736,52.6968111566,40.6319062236\N,0,45.4173421634,50.8016243885,39.
 5905005221\H,0,45.1100358908,50.4152537896,40.4698043103\H,0,45.683483
 0942,50.1427993379,38.8696985013\C,0,48.4157986628,53.6749348896,37.14
 59963773\O,0,49.0548020701,52.7268575928,36.7103003422\N,0,48.39168807
 65,54.8731883747,36.5354302785\H,0,47.7774564307,55.5787262902,36.9118
 955598\C,0,48.9759999905,55.1729999964,35.2410000088\H,0,49.3718957968
 ,54.2452347038,34.8273580582\C,0,47.9111501122,55.7986483472,34.339907
 8766\H,0,47.0664415763,55.1126348518,34.2635594372\H,0,47.552034688,56
 .7127553247,34.8233071506\C,0,48.4092441389,56.1529377699,32.935890707
 7\H,0,49.3472494191,56.7147269763,33.0303020349\C,0,48.6698926434,54.9
 01207561,32.1041545649\H,0,47.7611328033,54.310011647,32.022563641\H,0
 ,48.9782979752,55.1823841182,31.0955709307\H,0,49.4469762637,54.287956
 1519,32.551066528\C,0,47.3787064331,57.0375664262,32.2327612215\H,0,47
 .2292315714,57.9679961574,32.7769233832\H,0,47.6994363456,57.276981976
 8,31.2202883612\H,0,46.4238303626,56.5208720713,32.1715129547\H,0,49.8
 114161008,55.8722689521,35.3742579307\O,0,40.7851591318,47.0151051975,
 28.2585693759\H,0,40.229623822,47.7816104978,28.412428621\H,0,40.53872
 95786,46.387432679,29.0035014114\O,0,40.5779427624,45.7436272656,25.93
 89491293\H,0,39.8258237625,45.1842180039,26.1586266953\H,0,40.74297426
 37,46.2450102393,26.7804859754\O,0,39.7526318923,47.6035923934,24.1886
 39612\H,0,40.0452363418,46.870668823,24.7793466155\H,0,39.8159226834,4
 8.3961477514,24.7248236945\O,0,44.317194687,48.2400873181,18.024484888
 4\H,0,43.7753822561,48.0742654121,18.8073760092\H,0,45.135423251,48.61
 8301942,18.3541658236\O,0,49.4191055971,43.9868230947,22.181079002\H,0
 ,50.2925062437,43.7183707108,21.8830454581\H,0,48.8447859356,44.047667
 2489,21.4057660387\O,0,46.1356694634,48.1052206183,20.6346868561\H,0,4
 6.351745784,47.964485684,21.5650301889\H,0,45.1693089028,48.1478442925
 ,20.6138737755\O,0,51.5482044364,41.3700478957,23.67003811\H,0,51.6037
 860152,42.3305563255,23.7097499807\H,0,50.7518098691,41.1428386155,24.
 1737937731\O,0,50.8116750163,51.0468909901,22.9806550698\H,0,51.258403
 2449,50.1853201884,23.0291644499\H,0,49.9740557716,50.8939454094,22.53
 97341156\C,0,43.0203425244,42.2529173306,31.1341220423\O,0,43.16755778
 93,41.1849632144,31.7400534979\C,0,43.1461073888,43.5490325419,31.7233
 37762\C,0,43.1700594667,44.6878073696,30.9918935463\C,0,43.2013801685,
 44.6805399012,29.4934977393\C,0,43.4495016369,43.2788547837,28.9286197
 777\C,0,42.6312081828,42.2433027045,29.6815172684\C,0,43.1038851555,46
 .0182937574,31.6391854637\C,0,44.0872270319,47.0318343454,31.055196091
 5\C,0,43.9891182477,47.0859747886,29.5332004838\C,0,44.2406935495,45.6
 848128176,28.953930553\C,0,45.0348686012,48.0260093088,28.9440088014\C
 ,0,44.9826212814,48.1026996097,27.4124990344\C,0,45.2509305745,46.7093
 821767,26.8549361412\C,0,44.2444046947,45.7053343407,27.4195741416\C,0
 ,45.0493920848,49.4939396746,29.3672787034\C,0,45.9015992295,50.175411
 7703,28.2788316745\C,0,46.1094429594,49.1290665327,27.1636963224\C,0,4
 3.6673572019,48.659734996,26.8650295129\O,0,46.0992473213,49.749076576
 5,25.8982808319\H,0,43.1697034258,43.5937351055,32.804249067\H,0,42.20
 38388028,45.0156003214,29.1812045204\H,0,44.5122406584,43.0323590948,2
 9.0142233713\H,0,43.177115443,43.2489913185,27.873335082\H,0,41.572564
 2594,42.5151070696,29.6318833436\H,0,42.7682744431,41.2393256469,29.27
 31754719\H,0,43.2478975063,45.9318724661,32.7169379235\H,0,42.07815442
 3,46.3877970094,31.4844524746\H,0,45.1060859837,46.7517990643,31.34119
 50623\H,0,43.8795091219,48.0142621069,31.4793167813\H,0,42.9847010878,
 47.4124337227,29.2596965133\H,0,45.2328397351,45.353644075,29.29024403
 51\H,0,46.0197043345,47.609960002,29.197445002\H,0,46.2598899027,46.39
 93425508,27.1416333292\H,0,45.199701776,46.7109476483,25.7638558905\H,
 0,43.2407720397,45.9429636055,27.0684996942\H,0,44.5091610164,44.71860
 73819,27.0376172795\H,0,45.4883531712,49.6228699678,30.3523734686\H,0,
 44.0371559291,49.8948603204,29.3990771759\H,0,46.8606031297,50.4961697
 14,28.6791846806\H,0,45.4065232703,51.046320661,27.8519381081\H,0,47.0
 805754208,48.6260565709,27.3101850016\H,0,43.5181926602,49.6824369553,
 27.193429772\H,0,43.7046087991,48.6625291192,25.7778186366\H,0,42.8182
 708233,48.0660365968,27.1841175973\H,0,46.08944332,49.0591145454,25.22
 40677663\\Version=ES64L-G16RevC.01\State=1-A\HF=-23231.0419264\RMSD=6.
 391e-10\Dipole=16.0773446,-29.2119575,-39.5208512\Quadrupole=-239.5652
 87,-59.5412186,299.1065056,280.6961268,645.3711546,97.1345166\PG=C01 [
 X(C304H508N56O73S7)]\\@
 The archive entry for this job was punched.


 ONE OF THE BENEFITS OF A COLLEGE EDUCATION
 IS TO SHOW THE BOY ITS LITTLE AVAIL 
                                    EMERSON IN 'CULTURE'
 Job cpu time:       3 days 23 hours  2 minutes  9.3 seconds.
 Elapsed time:       0 days  1 hours 31 minutes  8.9 seconds.
 File lengths (MBytes):  RWF=  31275 Int=      0 D2E=      0 Chk=   3348 Scr=      1
 Normal termination of Gaussian 16 at Sun May  3 12:53:16 2026.
