 Entering Gaussian System, Link 0=g16
 Input=19nt.com
 Output=19nt.log
 Initial command:
 /usr/local/packages/license/gaussian/g16-c01/g16/l1.exe "/work/arkanil/gauss_scratch/Gau-4093766.inp" -scrdir="/work/arkanil/gauss_scratch/"
 Entering Link 1 = /usr/local/packages/license/gaussian/g16-c01/g16/l1.exe PID=   4093770.
  
 Copyright (c) 1988-2019, Gaussian, Inc.  All Rights Reserved.
  
 This is part of the Gaussian(R) 16 program.  It is based on
 the Gaussian(R) 09 system (copyright 2009, Gaussian, Inc.),
 the Gaussian(R) 03 system (copyright 2003, Gaussian, Inc.),
 the Gaussian(R) 98 system (copyright 1998, Gaussian, Inc.),
 the Gaussian(R) 94 system (copyright 1995, Gaussian, Inc.),
 the Gaussian 92(TM) system (copyright 1992, Gaussian, Inc.),
 the Gaussian 90(TM) system (copyright 1990, Gaussian, Inc.),
 the Gaussian 88(TM) system (copyright 1988, Gaussian, Inc.),
 the Gaussian 86(TM) system (copyright 1986, Carnegie Mellon
 University), and the Gaussian 82(TM) system (copyright 1983,
 Carnegie Mellon University). Gaussian is a federally registered
 trademark of Gaussian, Inc.
  
 This software contains proprietary and confidential information,
 including trade secrets, belonging to Gaussian, Inc.
  
 This software is provided under written license and may be
 used, copied, transmitted, or stored only in accord with that
 written license.
  
 The following legend is applicable only to US Government
 contracts under FAR:
  
                    RESTRICTED RIGHTS LEGEND
  
 Use, reproduction and disclosure by the US Government is
 subject to restrictions as set forth in subparagraphs (a)
 and (c) of the Commercial Computer Software - Restricted
 Rights clause in FAR 52.227-19.
  
 Gaussian, Inc.
 340 Quinnipiac St., Bldg. 40, Wallingford CT 06492
  
  
 ---------------------------------------------------------------
 Warning -- This program may not be used in any manner that
 competes with the business of Gaussian, Inc. or will provide
 assistance to any competitor of Gaussian, Inc.  The licensee
 of this program is prohibited from giving any competitor of
 Gaussian, Inc. access to this program.  By using this program,
 the user acknowledges that Gaussian, Inc. is engaged in the
 business of creating and licensing software in the field of
 computational chemistry and represents and warrants to the
 licensee that it is not a competitor of Gaussian, Inc. and that
 it will not use this program in any manner prohibited above.
 ---------------------------------------------------------------
  

 Cite this work as:
 Gaussian 16, Revision C.01,
 M. J. Frisch, G. W. Trucks, H. B. Schlegel, G. E. Scuseria, 
 M. A. Robb, J. R. Cheeseman, G. Scalmani, V. Barone, 
 G. A. Petersson, H. Nakatsuji, X. Li, M. Caricato, A. V. Marenich, 
 J. Bloino, B. G. Janesko, R. Gomperts, B. Mennucci, H. P. Hratchian, 
 J. V. Ortiz, A. F. Izmaylov, J. L. Sonnenberg, D. Williams-Young, 
 F. Ding, F. Lipparini, F. Egidi, J. Goings, B. Peng, A. Petrone, 
 T. Henderson, D. Ranasinghe, V. G. Zakrzewski, J. Gao, N. Rega, 
 G. Zheng, W. Liang, M. Hada, M. Ehara, K. Toyota, R. Fukuda, 
 J. Hasegawa, M. Ishida, T. Nakajima, Y. Honda, O. Kitao, H. Nakai, 
 T. Vreven, K. Throssell, J. A. Montgomery, Jr., J. E. Peralta, 
 F. Ogliaro, M. J. Bearpark, J. J. Heyd, E. N. Brothers, K. N. Kudin, 
 V. N. Staroverov, T. A. Keith, R. Kobayashi, J. Normand, 
 K. Raghavachari, A. P. Rendell, J. C. Burant, S. S. Iyengar, 
 J. Tomasi, M. Cossi, J. M. Millam, M. Klene, C. Adamo, R. Cammi, 
 J. W. Ochterski, R. L. Martin, K. Morokuma, O. Farkas, 
 J. B. Foresman, and D. J. Fox, Gaussian, Inc., Wallingford CT, 2019.
 
 ******************************************
 Gaussian 16:  ES64L-G16RevC.01  3-Jul-2019
                 1-May-2026 
 ******************************************
 %chk=ksi_reactant_trial.chk
 %nprocshared=64
 Will use up to   64 processors via shared memory.
 %mem=200GB
 --------------------------
 # wb97xd/6-31g(d) prop=efg
 --------------------------
 1/38=1,172=1/1;
 2/12=2,17=6,18=5,40=1/2;
 3/5=1,6=6,7=1,11=2,25=1,30=1,74=-58/1,2,3;
 4//1;
 5/5=2,38=5/2;
 6/7=2,8=2,9=2,10=2,14=1,28=1/1,2;
 99/5=1,9=1/99;
 -------------------------------
 None_sub_reg_combined_truncated
 -------------------------------
 Symbolic Z-matrix:
 Charge =  0 Multiplicity = 1
 C                    0     3.40519  -0.30269  -1.08401 
 O                    0     4.48294  -0.42013  -1.68061 
 C                    0     2.8189    0.98983  -0.81571 
 C                    0     1.6384    1.14441  -0.17119 
 C                    0     0.83495  -0.04653   0.31886 
 C                    0     1.18648  -1.3117   -0.47262 
 C                    0     2.68719  -1.52952  -0.59411 
 C                    0     1.16217   2.52453   0.15719 
 C                    0    -0.35465   2.68178   0.15157 
 C                    0    -1.00329   1.57949   0.985 
 C                    0    -0.68844   0.21575   0.3327 
 C                    0    -2.50731   1.74941   1.12303 
 C                    0    -3.17807   0.62072   1.92937 
 C                    0    -2.94368  -0.70436   1.20024 
 C                    0    -1.44585  -0.96233   0.97783 
 C                    0    -3.05757   3.03557   1.7573 
 C                    0    -4.50034   2.65063   2.18156 
 C                    0    -4.6287    1.14244   1.89377 
 C                    0    -2.67525   0.52785   3.3792 
 O                    0    -5.54641   0.53938   2.79529 
 H                    0     3.39545   1.85655  -1.13179 
 H                    0     1.13668  -0.18413   1.37077 
 H                    0     0.75029  -1.22783  -1.47754 
 H                    0     0.73392  -2.1907   -0.0049 
 H                    0     3.1291   -1.77099   0.38246 
 H                    0     2.93263  -2.36573  -1.25511 
 H                    0     1.63492   3.24638  -0.51681 
 H                    0     1.54316   2.77258   1.15898 
 H                    0    -0.74058   2.64272  -0.87721 
 H                    0    -0.61006   3.66939   0.54688 
 H                    0    -0.54065   1.60058   1.98105 
 H                    0    -1.01916   0.28684  -0.71616 
 H                    0    -2.93284   1.69028   0.10713 
 H                    0    -3.45536  -0.67387   0.22749 
 H                    0    -3.37175  -1.54705   1.75954 
 H                    0    -0.96524  -1.20288   1.93568 
 H                    0    -1.34084  -1.85986   0.35669 
 H                    0    -3.03093   3.88376   1.06912 
 H                    0    -2.45096   3.3239    2.62407 
 H                    0    -5.25927   3.21807   1.63476 
 H                    0    -4.67438   2.82656   3.24833 
 H                    0    -4.99763   1.0077    0.86799 
 H                    0    -2.88219   1.43821   3.94953 
 H                    0    -3.16777  -0.305     3.88823 
 H                    0    -1.59822   0.34316   3.43448 
 H                    0    -5.55389  -0.41414   2.61883 
 
                          Input orientation:                          
 ---------------------------------------------------------------------
 Center     Atomic      Atomic             Coordinates (Angstroms)
 Number     Number       Type             X           Y           Z
 ---------------------------------------------------------------------
      1          6           0        3.405193   -0.302689   -1.084009
      2          8           0        4.482944   -0.420134   -1.680607
      3          6           0        2.818898    0.989831   -0.815711
      4          6           0        1.638404    1.144415   -0.171189
      5          6           0        0.834946   -0.046528    0.318857
      6          6           0        1.186475   -1.311699   -0.472620
      7          6           0        2.687186   -1.529522   -0.594106
      8          6           0        1.162172    2.524529    0.157194
      9          6           0       -0.354647    2.681777    0.151574
     10          6           0       -1.003292    1.579493    0.985000
     11          6           0       -0.688439    0.215747    0.332696
     12          6           0       -2.507307    1.749408    1.123030
     13          6           0       -3.178074    0.620717    1.929370
     14          6           0       -2.943679   -0.704355    1.200241
     15          6           0       -1.445847   -0.962330    0.977826
     16          6           0       -3.057567    3.035570    1.757301
     17          6           0       -4.500340    2.650632    2.181561
     18          6           0       -4.628700    1.142438    1.893768
     19          6           0       -2.675247    0.527854    3.379202
     20          8           0       -5.546409    0.539383    2.795290
     21          1           0        3.395445    1.856549   -1.131785
     22          1           0        1.136680   -0.184131    1.370767
     23          1           0        0.750293   -1.227826   -1.477536
     24          1           0        0.733924   -2.190696   -0.004897
     25          1           0        3.129098   -1.770988    0.382459
     26          1           0        2.932627   -2.365728   -1.255112
     27          1           0        1.634916    3.246375   -0.516810
     28          1           0        1.543162    2.772583    1.158982
     29          1           0       -0.740583    2.642715   -0.877212
     30          1           0       -0.610058    3.669394    0.546883
     31          1           0       -0.540647    1.600577    1.981052
     32          1           0       -1.019164    0.286836   -0.716156
     33          1           0       -2.932837    1.690282    0.107133
     34          1           0       -3.455359   -0.673872    0.227489
     35          1           0       -3.371750   -1.547049    1.759535
     36          1           0       -0.965241   -1.202882    1.935675
     37          1           0       -1.340841   -1.859863    0.356688
     38          1           0       -3.030929    3.883761    1.069117
     39          1           0       -2.450957    3.323901    2.624068
     40          1           0       -5.259271    3.218072    1.634764
     41          1           0       -4.674377    2.826564    3.248329
     42          1           0       -4.997634    1.007698    0.867992
     43          1           0       -2.882187    1.438208    3.949526
     44          1           0       -3.167771   -0.305002    3.888233
     45          1           0       -1.598215    0.343163    3.434481
     46          1           0       -5.553887   -0.414141    2.618834
 ---------------------------------------------------------------------
                    Distance matrix (angstroms):
                    1          2          3          4          5
     1  C    0.000000
     2  O    1.237445   0.000000
     3  C    1.444415   2.346294   0.000000
     4  C    2.459450   3.580163   1.353836   0.000000
     5  C    2.939357   4.176760   2.509452   1.517905   0.000000
     6  C    2.512888   3.622268   2.842456   2.515471   1.533188
     7  C    1.503549   2.374020   2.532508   2.903230   2.542354
     8  C    3.816397   4.803757   2.458980   1.496445   2.596834
     9  C    4.956824   6.031669   3.724206   2.537698   2.981067
    10  C    5.220934   6.418937   4.266075   2.916269   2.542992
    11  C    4.362757   5.585780   3.770870   2.555489   1.545859
    12  C    6.636247   7.837787   5.718753   4.384967   3.878497
    13  C    7.298804   8.532673   6.605709   5.280631   4.375305
    14  C    6.759239   7.970872   6.335742   5.127792   3.935426
    15  C    5.312144   6.520108   5.021529   3.907840   2.544592
    16  C    7.809243   8.978887   6.733371   5.417350   5.169150
    17  C    9.048950  10.249163   8.081655   6.744501   6.261758
    18  C    8.689015   9.911601   7.926619   6.598533   5.809080
    19  C    7.588268   8.817032   6.927940   5.620766   4.692236
    20  O    9.792304  11.024620   9.122532   7.796640   6.870058
    21  H    2.159788   2.582082   1.087892   2.125341   3.504600
    22  H    3.344568   4.534762   2.998121   2.096280   1.102947
    23  H    2.838879   3.824433   3.104052   2.850055   2.151664
    24  H    3.444522   4.471917   3.888481   3.459581   2.170824
    25  H    2.093480   2.813174   3.025551   3.320884   2.870704
    26  H    2.123376   2.523859   3.386116   3.894998   3.500905
    27  H    4.006426   4.786332   2.565764   2.130188   3.490201
    28  H    4.237389   5.186427   2.950444   2.104604   3.025685
    29  H    5.089757   6.108332   3.925011   2.898784   3.338398
    30  H    5.878732   6.901059   4.560094   3.456404   3.993508
    31  H    5.346651   6.536627   4.413778   3.096528   2.714425
    32  H    4.478592   5.630556   3.903182   2.845189   2.149443
    33  H    6.749917   7.914776   5.867259   4.612123   4.154218
    34  H    6.994639   8.168345   6.574380   5.423240   4.336891
    35  H    7.453934   8.648742   7.168806   6.006107   4.692910
    36  H    5.387906   6.585811   5.166994   4.089945   2.681777
    37  H    5.198580   6.335603   5.176746   4.263829   2.832607
    38  H    7.974082   9.085306   6.793223   5.553832   5.563726
    39  H    7.822818   8.979254   6.712029   5.411700   5.241274
    40  H    9.739631  10.915080   8.730790   7.425594   7.037663
    41  H    9.687148  10.894585   8.720045   7.373868   6.869433
    42  H    8.725533   9.920455   7.995833   6.718303   5.952473
    43  H    8.240045   9.454998   7.443850   6.123916   5.404006
    44  H    8.241787   9.463544   7.722946   6.455930   5.369264
    45  H    6.772589   7.982934   6.163862   4.911065   3.972310
    46  H    9.694771  10.918938   9.158098   7.870348   6.800163
                    6          7          8          9         10
     6  C    0.000000
     7  C    1.521295   0.000000
     8  C    3.887660   4.396072   0.000000
     9  C    4.325798   5.248221   1.524958   0.000000
    10  C    3.908801   5.077320   2.503516   1.526555   0.000000
    11  C    2.548907   3.911492   2.964125   2.495100   1.544162
    12  C    5.055739   6.378299   3.872819   2.539091   1.519863
    13  C    5.343508   6.737413   5.059925   3.921768   2.557492
    14  C    4.497277   5.967179   5.326505   4.389610   3.004562
    15  C    3.025718   4.458098   4.430958   3.892676   2.580072
    16  C    6.471722   7.705282   4.541773   3.163749   2.633753
    17  C    7.421901   8.765760   6.014816   4.616123   3.848174
    18  C    6.740834   8.176251   6.201618   4.865422   3.763039
    19  C    5.756161   6.983957   5.393870   4.521300   3.103801
    20  O    7.709570   9.141141   7.476992   6.207534   4.999889
    21  H    3.918143   3.500887   2.663676   4.048605   4.889420
    22  H    2.161473   2.841632   2.968206   3.453102   2.799762
    23  H    1.098702   2.150122   4.113655   4.377201   4.125553
    24  H    1.093711   2.144656   4.737406   4.995044   4.267568
    25  H    2.171610   1.098759   4.729800   5.658348   5.354010
    26  H    2.184563   1.093806   5.389224   6.185648   6.006191
    27  H    4.580294   4.891057   1.094911   2.173446   3.463246
    28  H    4.412563   4.784372   1.100120   2.150534   2.817474
    29  H    4.417537   5.407154   2.168972   1.099488   2.160391
    30  H    5.392421   6.261182   2.145547   1.094025   2.171236
    31  H    4.181484   5.181492   2.660778   2.133209   1.098456
    32  H    2.734861   4.129296   3.244724   2.632543   2.136620
    33  H    5.129984   6.514870   4.179423   2.762626   2.122750
    34  H    4.737468   6.256038   5.617500   4.569525   3.415276
    35  H    5.080878   6.500049   6.300928   5.437961   3.998095
    36  H    3.231348   4.454964   4.645694   4.318150   2.940551
    37  H    2.715799   4.151883   5.052501   4.652004   3.512533
    38  H    6.867041   8.047781   4.501246   3.073945   3.070511
    39  H    6.656514   7.766136   4.447377   3.304552   2.797363
    40  H    8.155215   9.521223   6.625643   5.151971   4.606570
    41  H    8.082096   9.377228   6.611478   5.317041   4.489400
    42  H    6.739440   8.223848   6.383512   4.987296   4.036757
    43  H    6.608432   7.776241   5.649665   4.728569   3.512638
    44  H    6.244192   7.474713   6.377719   5.549517   4.082285
    45  H    5.075284   6.172611   4.808191   4.218182   2.807562
    46  H    7.469617   8.915287   7.733104   6.534843   5.229905
                   11         12         13         14         15
    11  C    0.000000
    12  C    2.506995   0.000000
    13  C    2.985239   1.540797   0.000000
    14  C    2.585600   2.493458   1.530486   0.000000
    15  C    1.541987   2.915700   2.532209   1.536073   0.000000
    16  C    3.948882   1.536001   2.423973   3.782899   4.380460
    17  C    4.886467   2.429994   2.435681   3.826502   4.881844
    18  C    4.338359   2.337254   1.542004   2.594402   3.924226
    19  C    3.650482   2.571130   1.537359   2.517591   3.081993
    20  O    5.456096   3.673793   2.522983   3.296251   4.730003
    21  H    4.638431   6.319664   7.355889   7.223646   5.986205
    22  H    2.137417   4.132625   4.424581   4.116921   2.725700
    23  H    2.725948   5.122385   5.518712   4.592379   3.304894
    24  H    2.815680   5.225152   5.191258   4.145640   2.688127
    25  H    4.303857   6.686606   6.920521   6.219734   4.683856
    26  H    4.721998   7.223765   7.510023   6.581785   5.111416
    27  H    3.912077   4.699787   6.003561   6.286499   5.425701
    28  H    3.492879   4.177856   5.245388   5.676490   4.787125
    29  H    2.712337   2.814299   4.231636   4.513571   4.115205
    30  H    3.461170   2.760044   4.219053   5.000234   4.726216
    31  H    2.157933   2.150838   2.814039   3.420079   2.897299
    32  H    1.102054   2.781419   3.430915   2.891158   2.147568
    33  H    2.694894   1.103004   2.127124   2.632354   3.163162
    34  H    2.908322   2.751923   2.156211   1.099542   2.164336
    35  H    3.513329   3.466847   2.183017   1.098266   2.159182
    36  H    2.158395   3.428466   2.867435   2.168781   1.098327
    37  H    2.175859   3.869724   3.464395   2.148458   1.096542
    38  H    4.414057   2.198306   3.377742   4.590818   5.099551
    39  H    4.244700   2.176079   2.884182   4.300803   4.700227
    40  H    5.621552   3.161036   3.341321   4.575610   5.696449
    41  H    5.586142   3.220769   2.973943   4.433663   5.471225
    42  H    4.413943   2.610921   2.141746   2.694484   4.063036
    43  H    4.403226   2.868181   2.199289   3.486105   4.081257
    44  H    4.365789   3.507586   2.166612   2.726720   3.444934
    45  H    3.234965   2.854256   2.199625   2.810586   2.786159
    46  H    5.412557   4.024925   2.681563   2.984932   4.457512
                   16         17         18         19         20
    16  C    0.000000
    17  C    1.552343   0.000000
    18  C    2.463946   1.540763   0.000000
    19  C    3.010875   3.044913   2.529863   0.000000
    20  O    3.674603   2.434809   1.420777   2.929959   0.000000
    21  H    7.167864   8.599549   8.605279   7.679045   9.854623
    22  H    5.301659   6.361546   5.939101   4.367095   6.871420
    23  H    6.568144   7.483353   6.776238   6.197148   7.812076
    24  H    6.692877   7.457652   6.593364   5.519519   7.398443
    25  H    7.954119   8.999768   8.423511   6.924996   9.296450
    26  H    8.609941   9.603311   8.910462   7.829300   9.835623
    27  H    5.218756   6.728854   7.033514   6.414575   8.358782
    28  H    4.646919   6.130616   6.425664   5.269076   7.610959
    29  H    3.530355   4.846847   5.004659   5.131532   6.403690
    30  H    2.803060   4.341007   4.934480   4.707049   6.262576
    31  H    2.905883   4.101462   4.114570   2.768045   5.181387
    32  H    4.222394   5.109098   4.535693   4.424100   5.734979
    33  H    2.132701   2.771748   2.523519   3.481957   3.921927
    34  H    4.032186   3.995336   2.729871   3.462082   3.526766
    35  H    4.593377   4.367190   2.971747   2.722804   3.186711
    36  H    4.730129   5.235165   4.350082   2.829017   4.976095
    37  H    5.373465   5.801479   4.710249   4.076447   5.421251
    38  H    1.092582   2.217500   3.278380   4.089635   4.526829
    39  H    1.096538   2.202061   3.167757   2.904895   4.167095
    40  H    2.212651   1.094053   2.184710   4.117951   2.933367
    41  H    2.209281   1.095096   2.161759   3.049216   2.489354
    42  H    2.943976   2.161480   1.098400   3.453970   2.057900
    43  H    2.718120   2.685906   2.713656   1.094001   3.039445
    44  H    3.963892   3.663911   2.864836   1.093317   2.750533
    45  H    3.491661   3.913637   3.492345   1.094150   4.004410
    46  H    4.344463   3.270169   1.950546   3.122832   0.969743
                   21         22         23         24         25
    21  H    0.000000
    22  H    3.940706   0.000000
    23  H    4.077958   3.058010   0.000000
    24  H    4.973305   2.465962   1.759560   0.000000
    25  H    3.939911   2.732142   3.068113   2.462328   0.000000
    26  H    4.249357   3.857464   2.471209   2.535344   1.753270
    27  H    2.325784   3.947095   4.660904   5.534942   5.311798
    28  H    3.085074   2.992029   4.856248   5.161746   4.874651
    29  H    4.217771   4.070453   4.190965   5.128057   6.003497
    30  H    4.706207   4.310398   5.470977   6.037500   6.603490
    31  H    5.024748   2.524095   4.650615   4.465678   5.233544
    32  H    4.703777   3.037223   2.450485   3.117270   4.759167
    33  H    6.450559   4.655230   4.959030   5.340382   6.985932
    34  H    7.428605   4.757494   4.571814   4.461485   6.677032
    35  H    8.107968   4.725953   5.250883   4.514871   6.648873
    36  H    6.146951   2.403133   3.820169   2.762021   4.415749
    37  H    6.201586   3.158250   2.852488   2.131864   4.470897
    38  H    7.088853   5.831612   6.849190   7.226801   8.390090
    39  H    7.102110   5.171865   6.912986   6.889536   7.881606
    40  H    9.187581   7.249336   8.097363   8.237818   9.839905
    41  H    9.233004   6.808664   8.258264   8.062636   9.499732
    42  H    8.669685   6.269214   6.598313   6.621361   8.602361
    43  H    8.087236   5.043141   7.053769   6.471682   7.691453
    44  H    8.541000   4.988040   6.707780   5.825421   7.354599
    45  H    6.933813   3.466498   5.666693   4.867097   6.010987
    46  H    9.965627   6.809865   7.562077   7.041071   9.068442
                   26         27         28         29         30
    26  H    0.000000
    27  H    5.807310   0.000000
    28  H    5.844716   1.743897   0.000000
    29  H    6.222522   2.477356   3.062424   0.000000
    30  H    7.226375   2.519979   2.411492   1.760441   0.000000
    31  H    6.186111   3.698789   2.528173   3.048885   2.518266
    32  H    4.789908   3.980295   4.032443   2.377754   3.633777
    33  H    7.260206   4.865706   4.723593   2.584964   3.083110
    34  H    6.772507   6.467860   6.142552   4.426073   5.202087
    35  H    7.035872   7.295572   6.570863   5.606211   6.025674
    36  H    5.169788   5.707135   4.764416   4.769845   5.078777
    37  H    4.595251   5.974261   5.515497   4.707019   5.580582
    38  H    8.945510   4.969058   4.707983   3.251781   2.485819
    39  H    8.740875   5.154171   4.289920   3.955800   2.796958
    40  H   10.326539   7.222180   6.833588   5.201884   4.796077
    41  H   10.252189   7.359327   6.559427   5.703387   4.952460
    42  H    8.875619   7.135830   6.780966   4.882776   5.141844
    43  H    8.681604   6.604684   5.399204   5.416152   4.660337
    44  H    8.241083   7.421758   6.254057   6.106533   5.788121
    45  H    7.061084   5.873200   4.576923   4.961267   4.514254
    46  H    9.530848   8.655087   7.915458   6.688393   6.738671
                   31         32         33         34         35
    31  H    0.000000
    32  H    3.038063   0.000000
    33  H    3.040097   2.511894   0.000000
    34  H    4.091900   2.783608   2.424199   0.000000
    35  H    4.239312   3.876447   3.661064   1.765388   0.000000
    36  H    2.835793   3.042100   3.947835   3.065687   2.437368
    37  H    3.905575   2.421319   3.898751   2.427850   2.488056
    38  H    3.499437   4.491355   2.397162   4.654084   5.485119
    39  H    2.651905   4.736126   3.039059   4.768082   5.032040
    40  H    5.000162   5.665464   3.174916   4.514615   5.126859
    41  H    4.494080   5.960532   3.767122   4.781687   4.800191
    42  H    4.631969   4.342510   2.303956   2.369923   3.156751
    43  H    3.063342   5.154134   3.850986   4.317750   3.734634
    44  H    3.764353   5.115387   4.281713   3.690504   2.472983
    45  H    2.193626   4.191212   3.829777   3.842934   3.086061
    46  H    5.440444   5.672499   4.196086   3.192148   2.604534
                   36         37         38         39         40
    36  H    0.000000
    37  H    1.750971   0.000000
    38  H    5.558051   6.029359   0.000000
    39  H    4.813834   5.765829   1.751480   0.000000
    40  H    6.170419   6.540107   2.393451   2.979354   0.000000
    41  H    5.631801   6.437130   2.927038   2.362338   1.760390
    42  H    4.720890   4.675091   3.490003   3.864474   2.354176
    43  H    3.834793   5.114832   3.781482   2.344917   3.765178
    44  H    3.077306   4.269318   5.050928   3.909076   4.675954
    45  H    2.244400   3.793728   4.492600   3.204487   4.990733
    46  H    4.705793   4.995715   5.219090   4.858103   3.774674
                   41         42         43         44         45
    41  H    0.000000
    42  H    3.013100   0.000000
    43  H    2.373005   3.762487   0.000000
    44  H    3.533560   3.767418   1.767511   0.000000
    45  H    3.957866   4.310977   1.764364   1.757702   0.000000
    46  H    3.416427   2.323035   3.512822   2.704965   4.109274
                   46
    46  H    0.000000
 Stoichiometry    C18H26O2
 Framework group  C1[X(C18H26O2)]
 Deg. of freedom   132
 Full point group                 C1      NOp   1
 Largest Abelian subgroup         C1      NOp   1
 Largest concise Abelian subgroup C1      NOp   1
                         Standard orientation:                         
 ---------------------------------------------------------------------
 Center     Atomic      Atomic             Coordinates (Angstroms)
 Number     Number       Type             X           Y           Z
 ---------------------------------------------------------------------
      1          6           0        4.710026   -0.143126    0.006430
      2          8           0        5.937744   -0.032783   -0.102211
      3          6           0        3.839554    1.009347    0.026857
      4          6           0        2.493605    0.914737    0.137946
      5          6           0        1.794433   -0.428127    0.247075
      6          6           0        2.656810   -1.548249   -0.346472
      7          6           0        4.094313   -1.507315    0.149763
      8          6           0        1.682167    2.166252    0.258883
      9          6           0        0.291805    2.073777   -0.360664
     10          6           0       -0.420920    0.814599    0.126024
     11          6           0        0.371201   -0.420056   -0.356270
     12          6           0       -1.859199    0.724646   -0.356932
     13          6           0       -2.576210   -0.561834    0.095748
     14          6           0       -1.832970   -1.765173   -0.489022
     15          6           0       -0.350578   -1.755734   -0.086596
     16          6           0       -2.841604    1.846127    0.012473
     17          6           0       -4.237021    1.196774   -0.189813
     18          6           0       -3.961871   -0.282707   -0.520537
     19          6           0       -2.683502   -0.692382    1.623791
     20          8           0       -5.034997   -1.100728   -0.075734
     21          1           0        4.324906    1.981899   -0.018821
     22          1           0        1.672724   -0.602176    1.329381
     23          1           0        2.648789   -1.452892   -1.440998
     24          1           0        2.224905   -2.525326   -0.111992
     25          1           0        4.147613   -1.754286    1.219078
     26          1           0        4.730892   -2.233977   -0.363210
     27          1           0        2.243012    3.009399   -0.157513
     28          1           0        1.581033    2.388447    1.331574
     29          1           0        0.360959    2.058481   -1.457868
     30          1           0       -0.275830    2.969887   -0.092954
     31          1           0       -0.404798    0.827479    1.224285
     32          1           0        0.477806   -0.316380   -1.448246
     33          1           0       -1.827094    0.682087   -1.458647
     34          1           0       -1.911885   -1.737312   -1.585374
     35          1           0       -2.285917   -2.710230   -0.160550
     36          1           0       -0.255215   -1.993926    0.981342
     37          1           0        0.155111   -2.568936   -0.620811
     38          1           0       -2.699358    2.741864   -0.596753
     39          1           0       -2.693573    2.156032    1.053838
     40          1           0       -4.805904    1.676496   -0.991805
     41          1           0       -4.849820    1.252060    0.716087
     42          1           0       -3.861108   -0.389535   -1.609077
     43          1           0       -3.262989    0.121041    2.070308
     44          1           0       -3.176219   -1.634080    1.880260
     45          1           0       -1.703280   -0.702808    2.109816
     46          1           0       -4.796981   -2.024536   -0.249883
 ---------------------------------------------------------------------
 Rotational constants (GHZ):           0.9238367           0.1741618           0.1540522
 Standard basis: 6-31G(d) (6D, 7F)
 There are   352 symmetry adapted cartesian basis functions of A   symmetry.
 There are   352 symmetry adapted basis functions of A   symmetry.
   352 basis functions,   664 primitive gaussians,   352 cartesian basis functions
    75 alpha electrons       75 beta electrons
       nuclear repulsion energy      1662.0126099401 Hartrees.
 NAtoms=   46 NActive=   46 NUniq=   46 SFac= 1.00D+00 NAtFMM=   60 NAOKFM=F Big=F
 Integral buffers will be    131072 words long.
 Raffenetti 2 integral format.
 Two-electron integral symmetry is turned on.
 Nuclear repulsion after empirical dispersion term =     1661.9639769266 Hartrees.
 One-electron integrals computed using PRISM.
 NBasis=   352 RedAO= T EigKep=  1.26D-03  NBF=   352
 NBsUse=   352 1.00D-06 EigRej= -1.00D+00 NBFU=   352
 ExpMin= 1.61D-01 ExpMax= 5.48D+03 ExpMxC= 8.25D+02 IAcc=3 IRadAn=         5 AccDes= 0.00D+00
 Harris functional with IExCor= 4639 and IRadAn=       5 diagonalized for initial guess.
 HarFok:  IExCor= 4639 AccDes= 0.00D+00 IRadAn=         5 IDoV= 1 UseB2=F ITyADJ=14
 ICtDFT=  3500011 ScaDFX=  1.000000  1.000000  1.000000  1.000000
 FoFCou: FMM=F IPFlag=           0 FMFlag=      100000 FMFlg1=           0
         NFxFlg=           0 DoJE=T BraDBF=F KetDBF=T FulRan=T
         wScrn=  0.000000 ICntrl=       500 IOpCl=  0 I1Cent=   200000004 NGrid=           0
         NMat0=    1 NMatS0=      1 NMatT0=    0 NMatD0=    1 NMtDS0=    0 NMtDT0=    0
 Petite list used in FoFCou.
 Requested convergence on RMS density matrix=1.00D-08 within 128 cycles.
 Requested convergence on MAX density matrix=1.00D-06.
 Requested convergence on             energy=1.00D-06.
 No special actions if energy rises.
 Integral accuracy reduced to 1.0D-05 until final iterations.
 Initial convergence to 1.0D-05 achieved.  Increase integral accuracy.
 SCF Done:  E(RwB97XD) =  -851.794666343     A.U. after   15 cycles
            NFock= 15  Conv=0.68D-08     -V/T= 2.0093

 **********************************************************************

            Population analysis using the SCF Density.

 **********************************************************************

 Orbital symmetries:
       Occupied  (A) (A) (A) (A) (A) (A) (A) (A) (A) (A) (A) (A)
                 (A) (A) (A) (A) (A) (A) (A) (A) (A) (A) (A) (A)
                 (A) (A) (A) (A) (A) (A) (A) (A) (A) (A) (A) (A)
                 (A) (A) (A) (A) (A) (A) (A) (A) (A) (A) (A) (A)
                 (A) (A) (A) (A) (A) (A) (A) (A) (A) (A) (A) (A)
                 (A) (A) (A) (A) (A) (A) (A) (A) (A) (A) (A) (A)
                 (A) (A) (A)
       Virtual   (A) (A) (A) (A) (A) (A) (A) (A) (A) (A) (A) (A)
                 (A) (A) (A) (A) (A) (A) (A) (A) (A) (A) (A) (A)
                 (A) (A) (A) (A) (A) (A) (A) (A) (A) (A) (A) (A)
                 (A) (A) (A) (A) (A) (A) (A) (A) (A) (A) (A) (A)
                 (A) (A) (A) (A) (A) (A) (A) (A) (A) (A) (A) (A)
                 (A) (A) (A) (A) (A) (A) (A) (A) (A) (A) (A) (A)
                 (A) (A) (A) (A) (A) (A) (A) (A) (A) (A) (A) (A)
                 (A) (A) (A) (A) (A) (A) (A) (A) (A) (A) (A) (A)
                 (A) (A) (A) (A) (A) (A) (A) (A) (A) (A) (A) (A)
                 (A) (A) (A) (A) (A) (A) (A) (A) (A) (A) (A) (A)
                 (A) (A) (A) (A) (A) (A) (A) (A) (A) (A) (A) (A)
                 (A) (A) (A) (A) (A) (A) (A) (A) (A) (A) (A) (A)
                 (A) (A) (A) (A) (A) (A) (A) (A) (A) (A) (A) (A)
                 (A) (A) (A) (A) (A) (A) (A) (A) (A) (A) (A) (A)
                 (A) (A) (A) (A) (A) (A) (A) (A) (A) (A) (A) (A)
                 (A) (A) (A) (A) (A) (A) (A) (A) (A) (A) (A) (A)
                 (A) (A) (A) (A) (A) (A) (A) (A) (A) (A) (A) (A)
                 (A) (A) (A) (A) (A) (A) (A) (A) (A) (A) (A) (A)
                 (A) (A) (A) (A) (A) (A) (A) (A) (A) (A) (A) (A)
                 (A) (A) (A) (A) (A) (A) (A) (A) (A) (A) (A) (A)
                 (A) (A) (A) (A) (A) (A) (A) (A) (A) (A) (A) (A)
                 (A) (A) (A) (A) (A) (A) (A) (A) (A) (A) (A) (A)
                 (A) (A) (A) (A) (A) (A) (A) (A) (A) (A) (A) (A)
                 (A)
 The electronic state is 1-A.
 Alpha  occ. eigenvalues --  -19.26779 -19.23588 -10.36855 -10.34197 -10.33075
 Alpha  occ. eigenvalues --  -10.31818 -10.31016 -10.30768 -10.30413 -10.30381
 Alpha  occ. eigenvalues --  -10.30359 -10.30167 -10.30137 -10.30054 -10.29916
 Alpha  occ. eigenvalues --  -10.29567 -10.29532 -10.29326 -10.29068 -10.28651
 Alpha  occ. eigenvalues --   -1.11884  -1.10886  -0.98069  -0.95572  -0.90782
 Alpha  occ. eigenvalues --   -0.90199  -0.87219  -0.84411  -0.82430  -0.81453
 Alpha  occ. eigenvalues --   -0.77821  -0.77394  -0.73686  -0.72051  -0.69722
 Alpha  occ. eigenvalues --   -0.67835  -0.65402  -0.65135  -0.62928  -0.60784
 Alpha  occ. eigenvalues --   -0.60040  -0.58070  -0.56892  -0.55444  -0.55192
 Alpha  occ. eigenvalues --   -0.54118  -0.53450  -0.52914  -0.51948  -0.50662
 Alpha  occ. eigenvalues --   -0.50100  -0.49732  -0.48828  -0.47862  -0.47638
 Alpha  occ. eigenvalues --   -0.46777  -0.46525  -0.46361  -0.45131  -0.44644
 Alpha  occ. eigenvalues --   -0.43884  -0.43620  -0.42837  -0.42548  -0.42046
 Alpha  occ. eigenvalues --   -0.41301  -0.40859  -0.40171  -0.39314  -0.38703
 Alpha  occ. eigenvalues --   -0.37418  -0.36413  -0.33976  -0.32727  -0.30956
 Alpha virt. eigenvalues --    0.02412   0.13347   0.14160   0.15049   0.16371
 Alpha virt. eigenvalues --    0.17123   0.17547   0.18507   0.19142   0.20372
 Alpha virt. eigenvalues --    0.20513   0.21053   0.22302   0.22674   0.22947
 Alpha virt. eigenvalues --    0.23637   0.23919   0.24621   0.25022   0.25240
 Alpha virt. eigenvalues --    0.25884   0.25926   0.26603   0.26818   0.27155
 Alpha virt. eigenvalues --    0.27726   0.28242   0.28967   0.29424   0.30066
 Alpha virt. eigenvalues --    0.30807   0.31195   0.31789   0.32350   0.33302
 Alpha virt. eigenvalues --    0.33593   0.34619   0.35020   0.35553   0.36070
 Alpha virt. eigenvalues --    0.36664   0.37394   0.38787   0.38942   0.40557
 Alpha virt. eigenvalues --    0.41801   0.42085   0.44855   0.45605   0.49690
 Alpha virt. eigenvalues --    0.51722   0.57740   0.58544   0.59420   0.60047
 Alpha virt. eigenvalues --    0.60954   0.61420   0.62124   0.62794   0.65104
 Alpha virt. eigenvalues --    0.65277   0.66252   0.66568   0.67787   0.69187
 Alpha virt. eigenvalues --    0.70673   0.70856   0.72125   0.72876   0.73238
 Alpha virt. eigenvalues --    0.73865   0.74512   0.75304   0.75476   0.76447
 Alpha virt. eigenvalues --    0.77512   0.77957   0.78733   0.79803   0.80951
 Alpha virt. eigenvalues --    0.82647   0.82934   0.84077   0.85121   0.85822
 Alpha virt. eigenvalues --    0.86274   0.87250   0.88682   0.89743   0.90182
 Alpha virt. eigenvalues --    0.91655   0.92498   0.93192   0.93536   0.94491
 Alpha virt. eigenvalues --    0.94937   0.95882   0.96101   0.96672   0.97101
 Alpha virt. eigenvalues --    0.97370   0.97732   0.97923   0.98451   0.99010
 Alpha virt. eigenvalues --    0.99255   1.00380   1.00604   1.01465   1.02869
 Alpha virt. eigenvalues --    1.03147   1.04030   1.04225   1.04578   1.04767
 Alpha virt. eigenvalues --    1.05459   1.06364   1.06751   1.07333   1.07698
 Alpha virt. eigenvalues --    1.09303   1.09994   1.10668   1.11928   1.12755
 Alpha virt. eigenvalues --    1.14222   1.15827   1.16279   1.19674   1.20215
 Alpha virt. eigenvalues --    1.21008   1.22676   1.25955   1.27184   1.27727
 Alpha virt. eigenvalues --    1.29494   1.31143   1.33865   1.35215   1.38310
 Alpha virt. eigenvalues --    1.39779   1.41914   1.43013   1.47107   1.49277
 Alpha virt. eigenvalues --    1.50274   1.53083   1.53751   1.55489   1.56968
 Alpha virt. eigenvalues --    1.61486   1.62033   1.64572   1.65962   1.68051
 Alpha virt. eigenvalues --    1.69488   1.71020   1.73214   1.74674   1.76878
 Alpha virt. eigenvalues --    1.77532   1.78228   1.80240   1.81885   1.82193
 Alpha virt. eigenvalues --    1.83864   1.84927   1.86990   1.87531   1.88804
 Alpha virt. eigenvalues --    1.89942   1.91424   1.93197   1.93984   1.95393
 Alpha virt. eigenvalues --    1.95647   1.96404   1.97306   1.98259   1.98544
 Alpha virt. eigenvalues --    1.99696   2.00679   2.01180   2.02048   2.03093
 Alpha virt. eigenvalues --    2.03773   2.04819   2.05816   2.06774   2.07427
 Alpha virt. eigenvalues --    2.08772   2.09964   2.10652   2.11193   2.11648
 Alpha virt. eigenvalues --    2.12822   2.14580   2.15561   2.16490   2.18251
 Alpha virt. eigenvalues --    2.19103   2.19978   2.20742   2.22168   2.25092
 Alpha virt. eigenvalues --    2.26201   2.28142   2.29881   2.30024   2.32385
 Alpha virt. eigenvalues --    2.34129   2.34865   2.35951   2.37336   2.39778
 Alpha virt. eigenvalues --    2.40628   2.41193   2.42123   2.43939   2.45876
 Alpha virt. eigenvalues --    2.47964   2.48980   2.50297   2.50989   2.52195
 Alpha virt. eigenvalues --    2.54354   2.56765   2.58419   2.60807   2.61542
 Alpha virt. eigenvalues --    2.62682   2.64383   2.64969   2.66120   2.67196
 Alpha virt. eigenvalues --    2.68057   2.70799   2.71513   2.75473   2.75793
 Alpha virt. eigenvalues --    2.78341   2.79862   2.80850   2.83128   2.84277
 Alpha virt. eigenvalues --    2.86678   2.89565   2.93271   2.97707   2.98711
 Alpha virt. eigenvalues --    3.00474   3.02739   3.07654   3.08186   3.09626
 Alpha virt. eigenvalues --    3.21081   3.27099   4.00286   4.07842   4.23804
 Alpha virt. eigenvalues --    4.26565   4.30263   4.34017   4.35372   4.38303
 Alpha virt. eigenvalues --    4.41344   4.42503   4.47540   4.54071   4.56210
 Alpha virt. eigenvalues --    4.64622   4.66355   4.73260   4.77022   4.81204
 Alpha virt. eigenvalues --    4.85725   4.89989
          Condensed to atoms (all electrons):
               1          2          3          4          5          6
     1  C    4.422052   0.529777   0.376831  -0.002335  -0.019334  -0.026118
     2  O    0.529777   8.105156  -0.061408   0.005450   0.000273   0.002870
     3  C    0.376831  -0.061408   5.294501   0.511178  -0.044244   0.004822
     4  C   -0.002335   0.005450   0.511178   4.876972   0.375621  -0.041571
     5  C   -0.019334   0.000273  -0.044244   0.375621   5.084925   0.351739
     6  C   -0.026118   0.002870   0.004822  -0.041571   0.351739   5.137401
     7  C    0.340819  -0.079484  -0.130584  -0.000002  -0.035243   0.286853
     8  C    0.003672  -0.000100  -0.034770   0.356153  -0.063325   0.004438
     9  C   -0.000133   0.000000   0.002533  -0.034227  -0.010739  -0.000301
    10  C   -0.000007   0.000000   0.000501  -0.013194  -0.039598   0.003938
    11  C   -0.000085   0.000000   0.003833  -0.031106   0.364536  -0.047496
    12  C   -0.000000   0.000000   0.000001   0.000276   0.003683  -0.000120
    13  C   -0.000000   0.000000   0.000000   0.000005   0.000073  -0.000007
    14  C    0.000000  -0.000000   0.000001  -0.000087   0.003395   0.000198
    15  C   -0.000003  -0.000000  -0.000118   0.004246  -0.041782  -0.004150
    16  C   -0.000000  -0.000000   0.000000   0.000001  -0.000104   0.000001
    17  C    0.000000  -0.000000  -0.000000   0.000000   0.000001  -0.000000
    18  C    0.000000   0.000000  -0.000000  -0.000000   0.000003   0.000000
    19  C   -0.000000   0.000000   0.000000   0.000001   0.000032   0.000000
    20  O    0.000000   0.000000   0.000000   0.000000  -0.000000  -0.000000
    21  H   -0.028610   0.001053   0.360152  -0.045485   0.004413  -0.000368
    22  H    0.000629   0.000005  -0.005024  -0.043641   0.368278  -0.033837
    23  H   -0.002583   0.000044   0.002987  -0.004195  -0.043444   0.385786
    24  H    0.003422  -0.000069  -0.000325   0.004662  -0.031559   0.376191
    25  H   -0.027887  -0.000555   0.002274  -0.001147  -0.002654  -0.035824
    26  H   -0.026578   0.003140   0.005165  -0.000348   0.003903  -0.029255
    27  H    0.000261  -0.000001  -0.002849  -0.039746   0.003813  -0.000142
    28  H   -0.000132   0.000002  -0.007749  -0.036524   0.001187   0.000082
    29  H   -0.000000  -0.000000  -0.000170  -0.003033   0.000614   0.000005
    30  H    0.000001  -0.000000  -0.000075   0.004213   0.000037   0.000010
    31  H    0.000003   0.000000  -0.000248  -0.004410  -0.000966   0.000130
    32  H    0.000025  -0.000000  -0.000116  -0.003832  -0.042019  -0.005507
    33  H    0.000000   0.000000  -0.000001  -0.000068   0.000178  -0.000000
    34  H    0.000000   0.000000  -0.000000   0.000002   0.000041  -0.000022
    35  H   -0.000000  -0.000000  -0.000000   0.000001  -0.000095   0.000001
    36  H    0.000002  -0.000000  -0.000010   0.000128  -0.003867  -0.001179
    37  H   -0.000009  -0.000000   0.000012  -0.000093  -0.005645   0.001756
    38  H    0.000000  -0.000000  -0.000000  -0.000001   0.000001  -0.000000
    39  H    0.000000   0.000000  -0.000000  -0.000001   0.000002   0.000000
    40  H    0.000000  -0.000000   0.000000   0.000000  -0.000000   0.000000
    41  H    0.000000  -0.000000   0.000000  -0.000000  -0.000000   0.000000
    42  H    0.000000  -0.000000  -0.000000   0.000000   0.000000  -0.000000
    43  H   -0.000000  -0.000000   0.000000   0.000000  -0.000002  -0.000000
    44  H    0.000000   0.000000  -0.000000  -0.000000  -0.000003   0.000000
    45  H    0.000000  -0.000000  -0.000000   0.000000   0.000043   0.000002
    46  H   -0.000000   0.000000  -0.000000   0.000000  -0.000000   0.000000
               7          8          9         10         11         12
     1  C    0.340819   0.003672  -0.000133  -0.000007  -0.000085  -0.000000
     2  O   -0.079484  -0.000100   0.000000   0.000000   0.000000   0.000000
     3  C   -0.130584  -0.034770   0.002533   0.000501   0.003833   0.000001
     4  C   -0.000002   0.356153  -0.034227  -0.013194  -0.031106   0.000276
     5  C   -0.035243  -0.063325  -0.010739  -0.039598   0.364536   0.003683
     6  C    0.286853   0.004438  -0.000301   0.003938  -0.047496  -0.000120
     7  C    5.353072  -0.000031   0.000036  -0.000089   0.004193   0.000001
     8  C   -0.000031   5.151944   0.337769  -0.043506  -0.014868   0.003981
     9  C    0.000036   0.337769   5.103460   0.367037  -0.043111  -0.042458
    10  C   -0.000089  -0.043506   0.367037   5.018702   0.372547   0.366746
    11  C    0.004193  -0.014868  -0.043111   0.372547   5.043560  -0.036855
    12  C    0.000001   0.003981  -0.042458   0.366746  -0.036855   5.105713
    13  C    0.000000  -0.000131   0.004281  -0.026217  -0.011743   0.343917
    14  C   -0.000002  -0.000010  -0.000058  -0.011402  -0.037304  -0.049262
    15  C    0.000163   0.000277   0.004389  -0.039785   0.363523  -0.016849
    16  C   -0.000000   0.000049  -0.003935  -0.033550   0.004163   0.361094
    17  C    0.000000  -0.000001   0.000138   0.003924  -0.000154  -0.060266
    18  C   -0.000000   0.000002  -0.000115   0.004128   0.000115  -0.061826
    19  C    0.000000  -0.000001   0.000144  -0.005852  -0.002112  -0.057281
    20  O    0.000000  -0.000000   0.000000  -0.000063  -0.000002   0.003743
    21  H    0.006140  -0.007696   0.000244  -0.000000  -0.000083   0.000000
    22  H   -0.004080   0.001602  -0.000432  -0.004885  -0.044997  -0.000029
    23  H   -0.040355   0.000007  -0.000040   0.000125  -0.004155  -0.000003
    24  H   -0.030204  -0.000108  -0.000005  -0.000037  -0.007682  -0.000001
    25  H    0.365656  -0.000017  -0.000001   0.000002  -0.000003  -0.000000
    26  H    0.368802   0.000008   0.000000   0.000001  -0.000059  -0.000000
    27  H    0.000008   0.379891  -0.031592   0.004273  -0.000154  -0.000112
    28  H   -0.000060   0.377193  -0.039452  -0.005344  -0.000639  -0.000009
    29  H   -0.000004  -0.035325   0.379453  -0.039354  -0.008103  -0.003853
    30  H   -0.000000  -0.032106   0.379242  -0.032524   0.004735  -0.006947
    31  H   -0.000007   0.000405  -0.050536   0.380346  -0.050009  -0.042761
    32  H   -0.000051   0.000233  -0.006903  -0.047886   0.375607  -0.004591
    33  H   -0.000000   0.000091  -0.005710  -0.045396  -0.006327   0.381014
    34  H   -0.000000   0.000000  -0.000028  -0.000322  -0.003473  -0.006203
    35  H   -0.000000  -0.000000   0.000010  -0.000124   0.003979   0.006403
    36  H   -0.000065  -0.000004  -0.000022  -0.003536  -0.044824  -0.000459
    37  H    0.000049  -0.000010  -0.000114   0.004108  -0.029886   0.000119
    38  H    0.000000  -0.000007   0.001167  -0.001347  -0.000087  -0.026257
    39  H   -0.000000  -0.000039  -0.000672  -0.004158   0.000073  -0.039230
    40  H   -0.000000  -0.000000  -0.000004  -0.000058   0.000003   0.001722
    41  H   -0.000000  -0.000000   0.000002  -0.000129   0.000002   0.003208
    42  H   -0.000000  -0.000000   0.000009  -0.000202  -0.000018  -0.002055
    43  H    0.000000  -0.000000  -0.000025  -0.000112   0.000040  -0.004376
    44  H    0.000000  -0.000000   0.000000   0.000008   0.000053   0.005691
    45  H   -0.000000   0.000009  -0.000029   0.001589  -0.000401  -0.006164
    46  H    0.000000   0.000000   0.000000  -0.000003   0.000001   0.000280
              13         14         15         16         17         18
     1  C   -0.000000   0.000000  -0.000003  -0.000000   0.000000   0.000000
     2  O    0.000000  -0.000000  -0.000000  -0.000000  -0.000000   0.000000
     3  C    0.000000   0.000001  -0.000118   0.000000  -0.000000  -0.000000
     4  C    0.000005  -0.000087   0.004246   0.000001   0.000000  -0.000000
     5  C    0.000073   0.003395  -0.041782  -0.000104   0.000001   0.000003
     6  C   -0.000007   0.000198  -0.004150   0.000001  -0.000000   0.000000
     7  C    0.000000  -0.000002   0.000163  -0.000000   0.000000  -0.000000
     8  C   -0.000131  -0.000010   0.000277   0.000049  -0.000001   0.000002
     9  C    0.004281  -0.000058   0.004389  -0.003935   0.000138  -0.000115
    10  C   -0.026217  -0.011402  -0.039785  -0.033550   0.003924   0.004128
    11  C   -0.011743  -0.037304   0.363523   0.004163  -0.000154   0.000115
    12  C    0.343917  -0.049262  -0.016849   0.361094  -0.060266  -0.061826
    13  C    5.121281   0.373240  -0.037073  -0.057717  -0.062965   0.359142
    14  C    0.373240   5.125181   0.352941   0.005870   0.006569  -0.043128
    15  C   -0.037073   0.352941   5.095771   0.000224  -0.000218   0.004145
    16  C   -0.057717   0.005870   0.000224   5.114564   0.336641  -0.062447
    17  C   -0.062965   0.006569  -0.000218   0.336641   5.163538   0.362894
    18  C    0.359142  -0.043128   0.004145  -0.062447   0.362894   4.809106
    19  C    0.341764  -0.068767  -0.003293  -0.003634  -0.010796  -0.053738
    20  O   -0.050788  -0.000045   0.000025   0.002208  -0.044481   0.248424
    21  H   -0.000000  -0.000000   0.000001  -0.000000  -0.000000  -0.000000
    22  H   -0.000026   0.000053  -0.007662   0.000000   0.000000  -0.000000
    23  H    0.000000  -0.000047  -0.001149   0.000000   0.000000  -0.000000
    24  H   -0.000003   0.000043   0.003090  -0.000000   0.000000   0.000000
    25  H    0.000000  -0.000000  -0.000023   0.000000   0.000000  -0.000000
    26  H   -0.000000  -0.000000  -0.000000   0.000000  -0.000000   0.000000
    27  H    0.000001  -0.000000   0.000008  -0.000001  -0.000000  -0.000000
    28  H    0.000003   0.000000  -0.000001  -0.000010  -0.000000  -0.000000
    29  H   -0.000017  -0.000008   0.000114  -0.000444  -0.000017  -0.000003
    30  H    0.000038  -0.000004  -0.000129   0.003968   0.000003  -0.000009
    31  H   -0.008898   0.000379  -0.002681  -0.003867  -0.000028   0.000078
    32  H   -0.001096  -0.000311  -0.045203  -0.000053   0.000003  -0.000061
    33  H   -0.055232  -0.006233  -0.000951  -0.044842  -0.002035  -0.002426
    34  H   -0.038524   0.376097  -0.036292   0.000001   0.000092  -0.005543
    35  H   -0.035361   0.369554  -0.032752  -0.000214  -0.000029  -0.003180
    36  H   -0.006843  -0.034988   0.380064  -0.000018   0.000003  -0.000042
    37  H    0.004520  -0.033267   0.379913   0.000008   0.000003  -0.000073
    38  H    0.005096  -0.000140  -0.000004   0.378393  -0.027460   0.002310
    39  H   -0.004840  -0.000008  -0.000019   0.384007  -0.032514   0.002265
    40  H    0.004530  -0.000128   0.000003  -0.030091   0.379124  -0.027138
    41  H   -0.004689  -0.000121   0.000003  -0.026698   0.373085  -0.031738
    42  H   -0.071033  -0.010303   0.000087   0.002833  -0.050353   0.387992
    43  H   -0.028744   0.004754   0.000013   0.001853   0.003713  -0.005738
    44  H   -0.030126  -0.005188  -0.000316  -0.000204  -0.000000  -0.006115
    45  H   -0.031871  -0.005198   0.001830  -0.000024  -0.000270   0.004965
    46  H   -0.005455   0.002779  -0.000059  -0.000316   0.006865  -0.025516
              19         20         21         22         23         24
     1  C   -0.000000   0.000000  -0.028610   0.000629  -0.002583   0.003422
     2  O    0.000000   0.000000   0.001053   0.000005   0.000044  -0.000069
     3  C    0.000000   0.000000   0.360152  -0.005024   0.002987  -0.000325
     4  C    0.000001   0.000000  -0.045485  -0.043641  -0.004195   0.004662
     5  C    0.000032  -0.000000   0.004413   0.368278  -0.043444  -0.031559
     6  C    0.000000  -0.000000  -0.000368  -0.033837   0.385786   0.376191
     7  C    0.000000   0.000000   0.006140  -0.004080  -0.040355  -0.030204
     8  C   -0.000001  -0.000000  -0.007696   0.001602   0.000007  -0.000108
     9  C    0.000144   0.000000   0.000244  -0.000432  -0.000040  -0.000005
    10  C   -0.005852  -0.000063  -0.000000  -0.004885   0.000125  -0.000037
    11  C   -0.002112  -0.000002  -0.000083  -0.044997  -0.004155  -0.007682
    12  C   -0.057281   0.003743   0.000000  -0.000029  -0.000003  -0.000001
    13  C    0.341764  -0.050788  -0.000000  -0.000026   0.000000  -0.000003
    14  C   -0.068767  -0.000045  -0.000000   0.000053  -0.000047   0.000043
    15  C   -0.003293   0.000025   0.000001  -0.007662  -0.001149   0.003090
    16  C   -0.003634   0.002208  -0.000000   0.000000   0.000000  -0.000000
    17  C   -0.010796  -0.044481  -0.000000   0.000000   0.000000   0.000000
    18  C   -0.053738   0.248424  -0.000000  -0.000000  -0.000000   0.000000
    19  C    5.209200   0.004175   0.000000  -0.000057  -0.000000  -0.000001
    20  O    0.004175   8.280412   0.000000  -0.000000  -0.000000   0.000000
    21  H    0.000000   0.000000   0.533212  -0.000204  -0.000068   0.000013
    22  H   -0.000057  -0.000000  -0.000204   0.586982   0.005447  -0.003718
    23  H   -0.000000  -0.000000  -0.000068   0.005447   0.558590  -0.031371
    24  H   -0.000001   0.000000   0.000013  -0.003718  -0.031371   0.554936
    25  H   -0.000000   0.000000  -0.000164   0.003901   0.004813  -0.005057
    26  H    0.000000   0.000000  -0.000109  -0.000134  -0.003720  -0.002158
    27  H    0.000000   0.000000   0.005074  -0.000092  -0.000001   0.000002
    28  H   -0.000004  -0.000000   0.000317   0.000955   0.000002   0.000006
    29  H   -0.000002  -0.000000  -0.000005   0.000082  -0.000003   0.000002
    30  H   -0.000007  -0.000000  -0.000008  -0.000004   0.000000   0.000000
    31  H    0.002492  -0.000001  -0.000002   0.005085   0.000008  -0.000001
    32  H    0.000051   0.000000  -0.000008   0.006079   0.005967   0.000052
    33  H    0.006583   0.000050  -0.000000   0.000003  -0.000003  -0.000000
    34  H    0.006032  -0.000099   0.000000   0.000004   0.000001   0.000010
    35  H   -0.006235   0.001406   0.000000  -0.000004   0.000000   0.000004
    36  H    0.002569  -0.000002  -0.000000   0.006532   0.000133   0.000921
    37  H    0.000032   0.000000   0.000000   0.000021   0.000732   0.001712
    38  H    0.000103  -0.000030  -0.000000   0.000000   0.000000  -0.000000
    39  H    0.002122  -0.000018   0.000000  -0.000001  -0.000000  -0.000000
    40  H    0.000154   0.001746   0.000000  -0.000000  -0.000000  -0.000000
    41  H    0.001882   0.002677  -0.000000   0.000000   0.000000   0.000000
    42  H    0.007671  -0.040882  -0.000000  -0.000000   0.000000   0.000000
    43  H    0.379658  -0.000169   0.000000   0.000001   0.000000   0.000000
    44  H    0.374858   0.006403   0.000000   0.000001   0.000000   0.000000
    45  H    0.375315   0.000242  -0.000000   0.000071   0.000000  -0.000001
    46  H   -0.000961   0.241426   0.000000  -0.000000   0.000000   0.000000
              25         26         27         28         29         30
     1  C   -0.027887  -0.026578   0.000261  -0.000132  -0.000000   0.000001
     2  O   -0.000555   0.003140  -0.000001   0.000002  -0.000000  -0.000000
     3  C    0.002274   0.005165  -0.002849  -0.007749  -0.000170  -0.000075
     4  C   -0.001147  -0.000348  -0.039746  -0.036524  -0.003033   0.004213
     5  C   -0.002654   0.003903   0.003813   0.001187   0.000614   0.000037
     6  C   -0.035824  -0.029255  -0.000142   0.000082   0.000005   0.000010
     7  C    0.365656   0.368802   0.000008  -0.000060  -0.000004  -0.000000
     8  C   -0.000017   0.000008   0.379891   0.377193  -0.035325  -0.032106
     9  C   -0.000001   0.000000  -0.031592  -0.039452   0.379453   0.379242
    10  C    0.000002   0.000001   0.004273  -0.005344  -0.039354  -0.032524
    11  C   -0.000003  -0.000059  -0.000154  -0.000639  -0.008103   0.004735
    12  C   -0.000000  -0.000000  -0.000112  -0.000009  -0.003853  -0.006947
    13  C    0.000000  -0.000000   0.000001   0.000003  -0.000017   0.000038
    14  C   -0.000000  -0.000000  -0.000000   0.000000  -0.000008  -0.000004
    15  C   -0.000023  -0.000000   0.000008  -0.000001   0.000114  -0.000129
    16  C    0.000000   0.000000  -0.000001  -0.000010  -0.000444   0.003968
    17  C    0.000000  -0.000000  -0.000000  -0.000000  -0.000017   0.000003
    18  C   -0.000000   0.000000  -0.000000  -0.000000  -0.000003  -0.000009
    19  C   -0.000000   0.000000   0.000000  -0.000004  -0.000002  -0.000007
    20  O    0.000000   0.000000   0.000000  -0.000000  -0.000000  -0.000000
    21  H   -0.000164  -0.000109   0.005074   0.000317  -0.000005  -0.000008
    22  H    0.003901  -0.000134  -0.000092   0.000955   0.000082  -0.000004
    23  H    0.004813  -0.003720  -0.000001   0.000002  -0.000003   0.000000
    24  H   -0.005057  -0.002158   0.000002   0.000006   0.000002   0.000000
    25  H    0.532851  -0.022073  -0.000000   0.000004   0.000000   0.000000
    26  H   -0.022073   0.507065   0.000000  -0.000001  -0.000000   0.000000
    27  H   -0.000000   0.000000   0.531996  -0.027120  -0.003217  -0.001558
    28  H    0.000004  -0.000001  -0.027120   0.550686   0.004919  -0.005220
    29  H    0.000000  -0.000000  -0.003217   0.004919   0.565993  -0.031470
    30  H    0.000000   0.000000  -0.001558  -0.005220  -0.031470   0.552897
    31  H   -0.000000  -0.000000   0.000073   0.004775   0.005640  -0.002502
    32  H    0.000008  -0.000004  -0.000022   0.000086   0.006308   0.000070
    33  H   -0.000000   0.000000   0.000004   0.000003   0.004177  -0.000055
    34  H   -0.000000   0.000000  -0.000000  -0.000000  -0.000006   0.000001
    35  H    0.000000   0.000000   0.000000  -0.000000   0.000000  -0.000000
    36  H    0.000002   0.000000  -0.000000  -0.000001   0.000000   0.000004
    37  H    0.000011   0.000001  -0.000000   0.000000  -0.000005   0.000002
    38  H    0.000000  -0.000000   0.000001   0.000004   0.000221   0.000639
    39  H   -0.000000   0.000000   0.000001   0.000002   0.000069   0.000643
    40  H    0.000000   0.000000   0.000000   0.000000  -0.000000   0.000002
    41  H   -0.000000   0.000000   0.000000   0.000000  -0.000000   0.000001
    42  H   -0.000000   0.000000   0.000000  -0.000000  -0.000003  -0.000000
    43  H    0.000000  -0.000000  -0.000000   0.000000   0.000000  -0.000000
    44  H    0.000000  -0.000000   0.000000   0.000000   0.000000  -0.000000
    45  H    0.000000   0.000000  -0.000000  -0.000005  -0.000001   0.000002
    46  H    0.000000   0.000000   0.000000   0.000000   0.000000   0.000000
              31         32         33         34         35         36
     1  C    0.000003   0.000025   0.000000   0.000000  -0.000000   0.000002
     2  O    0.000000  -0.000000   0.000000   0.000000  -0.000000  -0.000000
     3  C   -0.000248  -0.000116  -0.000001  -0.000000  -0.000000  -0.000010
     4  C   -0.004410  -0.003832  -0.000068   0.000002   0.000001   0.000128
     5  C   -0.000966  -0.042019   0.000178   0.000041  -0.000095  -0.003867
     6  C    0.000130  -0.005507  -0.000000  -0.000022   0.000001  -0.001179
     7  C   -0.000007  -0.000051  -0.000000  -0.000000  -0.000000  -0.000065
     8  C    0.000405   0.000233   0.000091   0.000000  -0.000000  -0.000004
     9  C   -0.050536  -0.006903  -0.005710  -0.000028   0.000010  -0.000022
    10  C    0.380346  -0.047886  -0.045396  -0.000322  -0.000124  -0.003536
    11  C   -0.050009   0.375607  -0.006327  -0.003473   0.003979  -0.044824
    12  C   -0.042761  -0.004591   0.381014  -0.006203   0.006403  -0.000459
    13  C   -0.008898  -0.001096  -0.055232  -0.038524  -0.035361  -0.006843
    14  C    0.000379  -0.000311  -0.006233   0.376097   0.369554  -0.034988
    15  C   -0.002681  -0.045203  -0.000951  -0.036292  -0.032752   0.380064
    16  C   -0.003867  -0.000053  -0.044842   0.000001  -0.000214  -0.000018
    17  C   -0.000028   0.000003  -0.002035   0.000092  -0.000029   0.000003
    18  C    0.000078  -0.000061  -0.002426  -0.005543  -0.003180  -0.000042
    19  C    0.002492   0.000051   0.006583   0.006032  -0.006235   0.002569
    20  O   -0.000001   0.000000   0.000050  -0.000099   0.001406  -0.000002
    21  H   -0.000002  -0.000008  -0.000000   0.000000   0.000000  -0.000000
    22  H    0.005085   0.006079   0.000003   0.000004  -0.000004   0.006532
    23  H    0.000008   0.005967  -0.000003   0.000001   0.000000   0.000133
    24  H   -0.000001   0.000052  -0.000000   0.000010   0.000004   0.000921
    25  H   -0.000000   0.000008  -0.000000  -0.000000   0.000000   0.000002
    26  H   -0.000000  -0.000004   0.000000   0.000000   0.000000   0.000000
    27  H    0.000073  -0.000022   0.000004  -0.000000   0.000000  -0.000000
    28  H    0.004775   0.000086   0.000003  -0.000000  -0.000000  -0.000001
    29  H    0.005640   0.006308   0.004177  -0.000006   0.000000   0.000000
    30  H   -0.002502   0.000070  -0.000055   0.000001  -0.000000   0.000004
    31  H    0.610807   0.006194   0.006167   0.000040  -0.000013   0.001725
    32  H    0.006194   0.610113   0.005162   0.002868  -0.000082   0.005632
    33  H    0.006167   0.005162   0.623507   0.005041   0.000021   0.000085
    34  H    0.000040   0.002868   0.005041   0.578615  -0.032787   0.004912
    35  H   -0.000013  -0.000082   0.000021  -0.032787   0.585707  -0.004636
    36  H    0.001725   0.005632   0.000085   0.004912  -0.004636   0.577871
    37  H   -0.000082  -0.005592  -0.000097  -0.004935  -0.001636  -0.033843
    38  H   -0.000138  -0.000001  -0.006530  -0.000002   0.000003   0.000000
    39  H    0.004101   0.000005   0.005326  -0.000005   0.000004  -0.000003
    40  H    0.000001  -0.000000   0.000311  -0.000012   0.000000  -0.000000
    41  H   -0.000015  -0.000000  -0.000057   0.000001   0.000001  -0.000000
    42  H   -0.000015  -0.000009   0.005600   0.006651   0.000085  -0.000002
    43  H    0.000163   0.000001  -0.000050  -0.000135  -0.000014  -0.000034
    44  H   -0.000040   0.000002  -0.000111   0.000038   0.004897   0.000307
    45  H    0.003243  -0.000013  -0.000007  -0.000051  -0.000183   0.001758
    46  H    0.000000   0.000000  -0.000003  -0.000013   0.002221   0.000001
              37         38         39         40         41         42
     1  C   -0.000009   0.000000   0.000000   0.000000   0.000000   0.000000
     2  O   -0.000000  -0.000000   0.000000  -0.000000  -0.000000  -0.000000
     3  C    0.000012  -0.000000  -0.000000   0.000000   0.000000  -0.000000
     4  C   -0.000093  -0.000001  -0.000001   0.000000  -0.000000   0.000000
     5  C   -0.005645   0.000001   0.000002  -0.000000  -0.000000   0.000000
     6  C    0.001756  -0.000000   0.000000   0.000000   0.000000  -0.000000
     7  C    0.000049   0.000000  -0.000000  -0.000000  -0.000000  -0.000000
     8  C   -0.000010  -0.000007  -0.000039  -0.000000  -0.000000  -0.000000
     9  C   -0.000114   0.001167  -0.000672  -0.000004   0.000002   0.000009
    10  C    0.004108  -0.001347  -0.004158  -0.000058  -0.000129  -0.000202
    11  C   -0.029886  -0.000087   0.000073   0.000003   0.000002  -0.000018
    12  C    0.000119  -0.026257  -0.039230   0.001722   0.003208  -0.002055
    13  C    0.004520   0.005096  -0.004840   0.004530  -0.004689  -0.071033
    14  C   -0.033267  -0.000140  -0.000008  -0.000128  -0.000121  -0.010303
    15  C    0.379913  -0.000004  -0.000019   0.000003   0.000003   0.000087
    16  C    0.000008   0.378393   0.384007  -0.030091  -0.026698   0.002833
    17  C    0.000003  -0.027460  -0.032514   0.379124   0.373085  -0.050353
    18  C   -0.000073   0.002310   0.002265  -0.027138  -0.031738   0.387992
    19  C    0.000032   0.000103   0.002122   0.000154   0.001882   0.007671
    20  O    0.000000  -0.000030  -0.000018   0.001746   0.002677  -0.040882
    21  H    0.000000  -0.000000   0.000000   0.000000  -0.000000  -0.000000
    22  H    0.000021   0.000000  -0.000001  -0.000000   0.000000  -0.000000
    23  H    0.000732   0.000000  -0.000000  -0.000000   0.000000   0.000000
    24  H    0.001712  -0.000000  -0.000000  -0.000000   0.000000   0.000000
    25  H    0.000011   0.000000  -0.000000   0.000000  -0.000000  -0.000000
    26  H    0.000001  -0.000000   0.000000   0.000000   0.000000   0.000000
    27  H   -0.000000   0.000001   0.000001   0.000000   0.000000   0.000000
    28  H    0.000000   0.000004   0.000002   0.000000   0.000000  -0.000000
    29  H   -0.000005   0.000221   0.000069  -0.000000  -0.000000  -0.000003
    30  H    0.000002   0.000639   0.000643   0.000002   0.000001  -0.000000
    31  H   -0.000082  -0.000138   0.004101   0.000001  -0.000015  -0.000015
    32  H   -0.005592  -0.000001   0.000005  -0.000000  -0.000000  -0.000009
    33  H   -0.000097  -0.006530   0.005326   0.000311  -0.000057   0.005600
    34  H   -0.004935  -0.000002  -0.000005  -0.000012   0.000001   0.006651
    35  H   -0.001636   0.000003   0.000004   0.000000   0.000001   0.000085
    36  H   -0.033843   0.000000  -0.000003  -0.000000  -0.000000  -0.000002
    37  H    0.557611  -0.000000  -0.000000  -0.000000  -0.000000  -0.000005
    38  H   -0.000000   0.549348  -0.034348  -0.006183   0.002567  -0.000067
    39  H   -0.000000  -0.034348   0.565028   0.003331  -0.009075  -0.000169
    40  H   -0.000000  -0.006183   0.003331   0.538635  -0.028335  -0.007339
    41  H   -0.000000   0.002567  -0.009075  -0.028335   0.531144   0.005291
    42  H   -0.000005  -0.000067  -0.000169  -0.007339   0.005291   0.641473
    43  H   -0.000000   0.000024   0.000878  -0.000019   0.000950   0.000013
    44  H   -0.000028  -0.000001   0.000002  -0.000006   0.000136   0.000141
    45  H    0.000030  -0.000013   0.000067  -0.000001   0.000030  -0.000080
    46  H    0.000002   0.000004   0.000004  -0.000210  -0.000075  -0.003076
              43         44         45         46
     1  C   -0.000000   0.000000   0.000000  -0.000000
     2  O   -0.000000   0.000000  -0.000000   0.000000
     3  C    0.000000  -0.000000  -0.000000  -0.000000
     4  C    0.000000  -0.000000   0.000000   0.000000
     5  C   -0.000002  -0.000003   0.000043  -0.000000
     6  C   -0.000000   0.000000   0.000002   0.000000
     7  C    0.000000   0.000000  -0.000000   0.000000
     8  C   -0.000000  -0.000000   0.000009   0.000000
     9  C   -0.000025   0.000000  -0.000029   0.000000
    10  C   -0.000112   0.000008   0.001589  -0.000003
    11  C    0.000040   0.000053  -0.000401   0.000001
    12  C   -0.004376   0.005691  -0.006164   0.000280
    13  C   -0.028744  -0.030126  -0.031871  -0.005455
    14  C    0.004754  -0.005188  -0.005198   0.002779
    15  C    0.000013  -0.000316   0.001830  -0.000059
    16  C    0.001853  -0.000204  -0.000024  -0.000316
    17  C    0.003713  -0.000000  -0.000270   0.006865
    18  C   -0.005738  -0.006115   0.004965  -0.025516
    19  C    0.379658   0.374858   0.375315  -0.000961
    20  O   -0.000169   0.006403   0.000242   0.241426
    21  H    0.000000   0.000000  -0.000000   0.000000
    22  H    0.000001   0.000001   0.000071  -0.000000
    23  H    0.000000   0.000000   0.000000   0.000000
    24  H    0.000000   0.000000  -0.000001   0.000000
    25  H    0.000000   0.000000   0.000000   0.000000
    26  H   -0.000000  -0.000000   0.000000   0.000000
    27  H   -0.000000   0.000000  -0.000000   0.000000
    28  H    0.000000   0.000000  -0.000005   0.000000
    29  H    0.000000   0.000000  -0.000001   0.000000
    30  H   -0.000000  -0.000000   0.000002   0.000000
    31  H    0.000163  -0.000040   0.003243   0.000000
    32  H    0.000001   0.000002  -0.000013   0.000000
    33  H   -0.000050  -0.000111  -0.000007  -0.000003
    34  H   -0.000135   0.000038  -0.000051  -0.000013
    35  H   -0.000014   0.004897  -0.000183   0.002221
    36  H   -0.000034   0.000307   0.001758   0.000001
    37  H   -0.000000  -0.000028   0.000030   0.000002
    38  H    0.000024  -0.000001  -0.000013   0.000004
    39  H    0.000878   0.000002   0.000067   0.000004
    40  H   -0.000019  -0.000006  -0.000001  -0.000210
    41  H    0.000950   0.000136   0.000030  -0.000075
    42  H    0.000013   0.000141  -0.000080  -0.003076
    43  H    0.529473  -0.024552  -0.028803   0.000063
    44  H   -0.024552   0.539649  -0.030096   0.000779
    45  H   -0.028803  -0.030096   0.555754  -0.000061
    46  H    0.000063   0.000779  -0.000061   0.375125
 Mulliken charges:
               1
     1  C    0.456318
     2  O   -0.506154
     3  C   -0.277097
     4  C    0.166135
     5  C   -0.182171
     6  C   -0.330328
     7  C   -0.405531
     8  C   -0.385672
     9  C   -0.309270
    10  C   -0.129297
    11  C   -0.115225
    12  C   -0.119625
    13  C    0.011507
    14  C   -0.315044
    15  C   -0.320318
    16  C   -0.327710
    17  C   -0.345007
    18  C    0.143268
    19  C   -0.502098
    20  O   -0.656357
    21  H    0.172191
    22  H    0.163095
    23  H    0.166492
    24  H    0.167233
    25  H    0.185882
    26  H    0.196350
    27  H    0.181201
    28  H    0.182043
    29  H    0.157445
    30  H    0.166105
    31  H    0.135363
    32  H    0.138896
    33  H    0.132809
    34  H    0.148004
    35  H    0.143049
    36  H    0.151732
    37  H    0.164679
    38  H    0.162737
    39  H    0.157171
    40  H    0.169963
    41  H    0.179953
    42  H    0.127766
    43  H    0.171176
    44  H    0.163822
    45  H    0.158321
    46  H    0.406199
 Sum of Mulliken charges =  -0.00000
 Mulliken charges with hydrogens summed into heavy atoms:
               1
     1  C    0.456318
     2  O   -0.506154
     3  C   -0.104906
     4  C    0.166135
     5  C   -0.019076
     6  C    0.003398
     7  C   -0.023299
     8  C   -0.022427
     9  C    0.014280
    10  C    0.006066
    11  C    0.023671
    12  C    0.013184
    13  C    0.011507
    14  C   -0.023991
    15  C   -0.003908
    16  C   -0.007803
    17  C    0.004909
    18  C    0.271034
    19  C   -0.008779
    20  O   -0.250158
 Electronic spatial extent (au):  <R**2>=           6925.1461
 Charge=             -0.0000 electrons
 Dipole moment (field-independent basis, Debye):
    X=             -3.4020    Y=             -0.5930    Z=             -0.0529  Tot=              3.4537
 Quadrupole moment (field-independent basis, Debye-Ang):
   XX=           -171.6526   YY=           -111.5881   ZZ=           -119.0523
   XY=              0.0287   XZ=              4.2586   YZ=              0.8958
 Traceless Quadrupole moment (field-independent basis, Debye-Ang):
   XX=            -37.5550   YY=             22.5096   ZZ=             15.0454
   XY=              0.0287   XZ=              4.2586   YZ=              0.8958
 Octapole moment (field-independent basis, Debye-Ang**2):
  XXX=           -187.9650  YYY=            -12.8883  ZZZ=             -1.3441  XYY=             -7.1346
  XXY=            -12.3798  XXZ=             -1.2209  XZZ=             -0.9495  YZZ=             -1.9770
  YYZ=             -1.7018  XYZ=             -3.1731
 Hexadecapole moment (field-independent basis, Debye-Ang**3):
 XXXX=          -9593.6692 YYYY=          -1397.6018 ZZZZ=           -404.6767 XXXY=            -23.5940
 XXXZ=             91.7180 YYYX=             88.2518 YYYZ=              1.5899 ZZZX=              7.5390
 ZZZY=              2.8689 XXYY=          -1287.2046 XXZZ=          -1238.7678 YYZZ=           -307.4133
 XXYZ=             15.0599 YYXZ=              5.9797 ZZXY=             -5.3840
 N-N= 1.661963976927D+03 E-N=-5.300830844174D+03  KE= 8.439353472335D+02

 **********************************************************************

            Electrostatic Properties Using The SCF Density.

 **********************************************************************

       Atomic Center    1 is at   4.710026 -0.143126  0.006430
       Atomic Center    2 is at   5.937744 -0.032783 -0.102211
       Atomic Center    3 is at   3.839554  1.009347  0.026857
       Atomic Center    4 is at   2.493605  0.914737  0.137946
       Atomic Center    5 is at   1.794433 -0.428127  0.247075
       Atomic Center    6 is at   2.656810 -1.548249 -0.346472
       Atomic Center    7 is at   4.094313 -1.507315  0.149763
       Atomic Center    8 is at   1.682167  2.166252  0.258883
       Atomic Center    9 is at   0.291805  2.073777 -0.360664
       Atomic Center   10 is at  -0.420920  0.814599  0.126024
       Atomic Center   11 is at   0.371201 -0.420056 -0.356270
       Atomic Center   12 is at  -1.859199  0.724646 -0.356932
       Atomic Center   13 is at  -2.576210 -0.561834  0.095748
       Atomic Center   14 is at  -1.832970 -1.765173 -0.489022
       Atomic Center   15 is at  -0.350578 -1.755734 -0.086596
       Atomic Center   16 is at  -2.841604  1.846127  0.012473
       Atomic Center   17 is at  -4.237021  1.196774 -0.189813
       Atomic Center   18 is at  -3.961871 -0.282707 -0.520537
       Atomic Center   19 is at  -2.683502 -0.692382  1.623791
       Atomic Center   20 is at  -5.034997 -1.100728 -0.075734
       Atomic Center   21 is at   4.324906  1.981899 -0.018821
       Atomic Center   22 is at   1.672724 -0.602176  1.329381
       Atomic Center   23 is at   2.648789 -1.452892 -1.440998
       Atomic Center   24 is at   2.224905 -2.525326 -0.111992
       Atomic Center   25 is at   4.147613 -1.754286  1.219078
       Atomic Center   26 is at   4.730892 -2.233977 -0.363210
       Atomic Center   27 is at   2.243012  3.009399 -0.157513
       Atomic Center   28 is at   1.581033  2.388447  1.331574
       Atomic Center   29 is at   0.360959  2.058481 -1.457868
       Atomic Center   30 is at  -0.275830  2.969887 -0.092954
       Atomic Center   31 is at  -0.404798  0.827479  1.224285
       Atomic Center   32 is at   0.477806 -0.316380 -1.448246
       Atomic Center   33 is at  -1.827094  0.682087 -1.458647
       Atomic Center   34 is at  -1.911885 -1.737312 -1.585374
       Atomic Center   35 is at  -2.285917 -2.710230 -0.160550
       Atomic Center   36 is at  -0.255215 -1.993926  0.981342
       Atomic Center   37 is at   0.155111 -2.568936 -0.620811
       Atomic Center   38 is at  -2.699358  2.741864 -0.596753
       Atomic Center   39 is at  -2.693573  2.156032  1.053838
       Atomic Center   40 is at  -4.805904  1.676496 -0.991805
       Atomic Center   41 is at  -4.849820  1.252060  0.716087
       Atomic Center   42 is at  -3.861108 -0.389535 -1.609077
       Atomic Center   43 is at  -3.262989  0.121041  2.070308
       Atomic Center   44 is at  -3.176219 -1.634080  1.880260
       Atomic Center   45 is at  -1.703280 -0.702808  2.109816
       Atomic Center   46 is at  -4.796981 -2.024536 -0.249883
 -----------------------------------------------------------------

              Electrostatic Properties (Atomic Units)

 -----------------------------------------------------------------
    Center     Electric         -------- Electric Field --------
               Potential          X             Y             Z
 -----------------------------------------------------------------
    1 Atom    -14.672289      0.002331     -0.001680     -0.001108
    2 Atom    -22.352450      0.105260      0.009562     -0.009888
    3 Atom    -14.747464     -0.009246     -0.000766      0.000667
    4 Atom    -14.709807      0.012424      0.000538     -0.001576
    5 Atom    -14.716387     -0.002732     -0.003285     -0.001816
    6 Atom    -14.730351     -0.000567     -0.001031     -0.000479
    7 Atom    -14.740091      0.001510     -0.000153     -0.002154
    8 Atom    -14.726846     -0.001600      0.002677     -0.001104
    9 Atom    -14.733175     -0.002337     -0.001743     -0.000064
   10 Atom    -14.730804     -0.000917      0.000020     -0.001549
   11 Atom    -14.724628     -0.001750      0.001217     -0.000077
   12 Atom    -14.736930     -0.000186     -0.001388      0.002924
   13 Atom    -14.731959     -0.001256      0.002109     -0.002192
   14 Atom    -14.734121     -0.001426      0.003862      0.000902
   15 Atom    -14.732420      0.000316      0.000178      0.000231
   16 Atom    -14.738674      0.001510     -0.000123      0.000321
   17 Atom    -14.743701     -0.002629     -0.001051      0.000888
   18 Atom    -14.692147      0.018727      0.012252     -0.005201
   19 Atom    -14.747777     -0.000792     -0.000069     -0.001266
   20 Atom    -22.313098     -0.095974      0.042239      0.046983
   21 Atom     -1.106505      0.015934      0.028233     -0.002393
   22 Atom     -1.103816     -0.003607     -0.007823      0.031173
   23 Atom     -1.117014     -0.000451      0.001586     -0.029906
   24 Atom     -1.116552     -0.012415     -0.026903      0.005542
   25 Atom     -1.105378      0.000925     -0.009572      0.029644
   26 Atom     -1.115581      0.019527     -0.017505     -0.014083
   27 Atom     -1.110361      0.015272      0.023143     -0.012024
   28 Atom     -1.103652     -0.003874      0.007306      0.029789
   29 Atom     -1.117283      0.001460      0.000924     -0.029398
   30 Atom     -1.117873     -0.017338      0.025082      0.006501
   31 Atom     -1.119121     -0.002563      0.000933      0.032813
   32 Atom     -1.119617      0.002722      0.002364     -0.031161
   33 Atom     -1.123580      0.001863     -0.000676     -0.030892
   34 Atom     -1.118401     -0.002488     -0.000331     -0.029829
   35 Atom     -1.116399     -0.011264     -0.026494      0.008446
   36 Atom     -1.118747      0.001668     -0.008631      0.029016
   37 Atom     -1.118449      0.013737     -0.020927     -0.013550
   38 Atom     -1.124550      0.002944      0.024813     -0.017596
   39 Atom     -1.124677      0.002907      0.008528      0.028387
   40 Atom     -1.127841     -0.016462      0.012791     -0.020329
   41 Atom     -1.127106     -0.018035     -0.000293      0.023164
   42 Atom     -1.130563      0.001588     -0.003626     -0.033852
   43 Atom     -1.121208     -0.017127      0.019421      0.013227
   44 Atom     -1.122537     -0.016919     -0.023541      0.009014
   45 Atom     -1.119545      0.025395     -0.000247      0.013984
   46 Atom     -0.997692      0.005927     -0.039359     -0.006643
 -----------------------------------------------------------------
 -----------------------------------------------------
    Center         ---- Electric Field Gradient ----
                     XX            YY            ZZ
 -----------------------------------------------------
    1 Atom     -493.287441   -493.209370   -493.974666
    2 Atom    -1217.100839  -1214.522351  -1217.649382
    3 Atom     -493.110242   -493.188927   -493.429780
    4 Atom     -493.135784   -493.247967   -493.791839
    5 Atom     -492.718495   -492.761939   -492.730438
    6 Atom     -492.609755   -492.574722   -492.574997
    7 Atom     -492.703159   -492.710181   -492.709202
    8 Atom     -492.572130   -492.619698   -492.584588
    9 Atom     -492.664331   -492.619788   -492.637298
   10 Atom     -492.759452   -492.782893   -492.766125
   11 Atom     -492.818055   -492.787659   -492.784076
   12 Atom     -492.903409   -492.921451   -492.903954
   13 Atom     -492.911712   -492.927437   -492.961765
   14 Atom     -492.705177   -492.674062   -492.675867
   15 Atom     -492.630204   -492.618606   -492.589020
   16 Atom     -492.644778   -492.589042   -492.563459
   17 Atom     -492.635775   -492.656754   -492.574834
   18 Atom     -492.874721   -492.793381   -492.667374
   19 Atom     -492.526899   -492.529731   -492.579538
   20 Atom    -1214.451130  -1215.951986  -1213.005217
   21 Atom       -1.693474     -1.963888     -1.591438
   22 Atom       -1.623314     -1.629694     -2.012272
   23 Atom       -1.622139     -1.620860     -2.037732
   24 Atom       -1.701224     -1.975103     -1.646449
   25 Atom       -1.599745     -1.621380     -2.002191
   26 Atom       -1.747137     -1.795555     -1.699114
   27 Atom       -1.736835     -1.874776     -1.678406
   28 Atom       -1.611604     -1.624268     -2.007362
   29 Atom       -1.622584     -1.620189     -2.038986
   30 Atom       -1.745647     -1.917992     -1.651267
   31 Atom       -1.639968     -1.638613     -2.057449
   32 Atom       -1.640769     -1.641444     -2.038163
   33 Atom       -1.647494     -1.642277     -2.047311
   34 Atom       -1.627646     -1.623867     -2.042499
   35 Atom       -1.704693     -1.941901     -1.662919
   36 Atom       -1.630383     -1.644481     -2.026676
   37 Atom       -1.722691     -1.861620     -1.726802
   38 Atom       -1.635875     -1.922005     -1.765984
   39 Atom       -1.632460     -1.656622     -2.013301
   40 Atom       -1.739589     -1.709727     -1.859984
   41 Atom       -1.743355     -1.611323     -1.909750
   42 Atom       -1.684776     -1.684306     -2.084692
   43 Atom       -1.722674     -1.847477     -1.680466
   44 Atom       -1.689791     -1.934640     -1.633734
   45 Atom       -1.967181     -1.608119     -1.698528
   46 Atom       -1.493208     -2.043790     -1.442375
 -----------------------------------------------------
 -----------------------------------------------------
    Center         ---- Electric Field Gradient ----
                     XY            XZ            YZ
 -----------------------------------------------------
    1 Atom       -0.013046     -0.053516     -0.032686
    2 Atom       -0.227607     -0.017153     -0.091460
    3 Atom       -0.002452     -0.028577     -0.011534
    4 Atom       -0.001581     -0.049167      0.009284
    5 Atom       -0.023655     -0.009341     -0.004515
    6 Atom        0.027487      0.000238     -0.029806
    7 Atom       -0.004198     -0.035440      0.002529
    8 Atom        0.027027     -0.022701     -0.008381
    9 Atom       -0.008936     -0.020159      0.018989
   10 Atom        0.003501      0.007430     -0.000670
   11 Atom       -0.010102     -0.016462     -0.008705
   12 Atom        0.013825     -0.007588      0.005329
   13 Atom        0.006497      0.008543      0.001137
   14 Atom       -0.012525     -0.007765     -0.012377
   15 Atom       -0.017966     -0.008018      0.017959
   16 Atom       -0.004996     -0.000444     -0.015229
   17 Atom       -0.021017     -0.013303     -0.030434
   18 Atom       -0.196552      0.104452      0.107637
   19 Atom        0.000515     -0.001526      0.008832
   20 Atom       -0.505629      0.795241      0.030648
   21 Atom       -0.172351      0.009355      0.017702
   22 Atom       -0.007631      0.045656      0.065419
   23 Atom        0.003261     -0.003686      0.036497
   24 Atom       -0.152639      0.037067      0.083319
   25 Atom        0.001410     -0.017605      0.094063
   26 Atom        0.165951      0.117290     -0.137818
   27 Atom       -0.167137      0.084267      0.128417
   28 Atom        0.010628      0.039544     -0.082584
   29 Atom       -0.001623      0.026059     -0.006904
   30 Atom        0.183708      0.054581     -0.088336
   31 Atom       -0.001752     -0.005679     -0.004206
   32 Atom       -0.003381      0.038793      0.038757
   33 Atom       -0.000203      0.012169     -0.016386
   34 Atom        0.002603     -0.030539      0.011277
   35 Atom       -0.151895      0.053354      0.110150
   36 Atom        0.004902     -0.035961      0.088986
   37 Atom        0.145280      0.096448     -0.155454
   38 Atom       -0.047156      0.031457      0.202796
   39 Atom       -0.016492     -0.053796     -0.114473
   40 Atom        0.098499     -0.166555      0.140474
   41 Atom        0.013513      0.198247     -0.020591
   42 Atom       -0.002588      0.040532     -0.040870
   43 Atom        0.175705      0.094210     -0.131017
   44 Atom       -0.173623      0.047350      0.086906
   45 Atom        0.003367     -0.172537      0.001847
   46 Atom        0.143647      0.048231     -0.111661
 -----------------------------------------------------
 -----------------------------------------------------
    Center         ---- Electric Field Gradient ----
                   ----       Eigenvalues       ----
 -----------------------------------------------------
    1 Atom     -493.980273   -493.284726   -493.206478
    2 Atom    -1217.653111  -1217.119597  -1214.499864
    3 Atom     -493.432878   -493.188390   -493.107681
    4 Atom     -493.795656   -493.247859   -493.132076
    5 Atom     -492.773792   -492.730922   -492.706157
    6 Atom     -492.629547   -492.590646   -492.539282
    7 Atom     -492.741780   -492.710725   -492.670037
    8 Atom     -492.631990   -492.599292   -492.545133
    9 Atom     -492.675110   -492.644381   -492.601926
   10 Atom     -492.783601   -492.770461   -492.754408
   11 Atom     -492.828649   -492.785756   -492.775385
   12 Atom     -492.931485   -492.903501   -492.893828
   13 Atom     -492.963183   -492.929681   -492.908051
   14 Atom     -492.713276   -492.679706   -492.662124
   15 Atom     -492.643656   -492.618008   -492.576165
   16 Atom     -492.645263   -492.595687   -492.556329
   17 Atom     -492.680065   -492.623084   -492.564214
   18 Atom     -493.087648   -492.642883   -492.604946
   19 Atom     -492.581105   -492.528255   -492.526808
   20 Atom    -1216.130730  -1214.633899  -1212.643704
   21 Atom       -2.048614     -1.609647     -1.590538
   22 Atom       -2.028438     -1.618819     -1.618023
   23 Atom       -2.040941     -1.623563     -1.616228
   24 Atom       -2.063183     -1.633102     -1.626492
   25 Atom       -2.024875     -1.601856     -1.596585
   26 Atom       -2.036206     -1.604308     -1.601293
   27 Atom       -2.050084     -1.625156     -1.614777
   28 Atom       -2.028415     -1.609821     -1.604998
   29 Atom       -2.040720     -1.622615     -1.618424
   30 Atom       -2.061043     -1.629279     -1.624584
   31 Atom       -2.057569     -1.641050     -1.637412
   32 Atom       -2.045659     -1.637857     -1.636860
   33 Atom       -2.048341     -1.647211     -1.641530
   34 Atom       -2.045045     -1.626482     -1.622483
   35 Atom       -2.054287     -1.630601     -1.624625
   36 Atom       -2.049501     -1.629245     -1.622794
   37 Atom       -2.055122     -1.631321     -1.624670
   38 Atom       -2.068700     -1.628737     -1.626428
   39 Atom       -2.054382     -1.625173     -1.622828
   40 Atom       -2.060742     -1.625872     -1.622685
   41 Atom       -2.042954     -1.611569     -1.609905
   42 Atom       -2.092757     -1.687134     -1.673882
   43 Atom       -2.043299     -1.608859     -1.598459
   44 Atom       -2.048278     -1.610481     -1.599405
   45 Atom       -2.051549     -1.614199     -1.608080
   46 Atom       -2.100879     -1.466582     -1.411912
 -----------------------------------------------------
 -----------------------------------------------------
    Center         ---- Electric Field Gradient ----
                       ( tensor representation )
                   3XX-RR        3YY-RR        3ZZ-RR
 -----------------------------------------------------
    1 Atom        0.203052      0.281122     -0.484174
    2 Atom       -0.676648      1.901840     -1.225191
    3 Atom        0.132741      0.054056     -0.186797
    4 Atom        0.256079      0.143896     -0.399976
    5 Atom        0.018463     -0.024981      0.006519
    6 Atom       -0.023263      0.011769      0.011494
    7 Atom        0.004355     -0.002667     -0.001688
    8 Atom        0.020008     -0.027559      0.007551
    9 Atom       -0.023859      0.020685      0.003174
   10 Atom        0.010038     -0.013403      0.003365
   11 Atom       -0.021458      0.008938      0.012521
   12 Atom        0.006196     -0.011847      0.005651
   13 Atom        0.021926      0.006201     -0.028127
   14 Atom       -0.020142      0.010973      0.009169
   15 Atom       -0.017594     -0.005996      0.023590
   16 Atom       -0.045685      0.010051      0.035634
   17 Atom       -0.013321     -0.034300      0.047620
   18 Atom       -0.096229     -0.014889      0.111118
   19 Atom        0.018490      0.015658     -0.034149
   20 Atom        0.018315     -1.482542      1.464228
   21 Atom        0.056126     -0.214289      0.158162
   22 Atom        0.131779      0.125399     -0.257178
   23 Atom        0.138105      0.139384     -0.277489
   24 Atom        0.073034     -0.200844      0.127810
   25 Atom        0.141360      0.119725     -0.261085
   26 Atom        0.000132     -0.048287      0.048155
   27 Atom        0.026504     -0.111437      0.084933
   28 Atom        0.136141      0.123477     -0.259617
   29 Atom        0.138002      0.140397     -0.278399
   30 Atom        0.025988     -0.146357      0.120369
   31 Atom        0.138708      0.140063     -0.278772
   32 Atom        0.132689      0.132015     -0.264704
   33 Atom        0.131533      0.136750     -0.268283
   34 Atom        0.137025      0.140804     -0.277828
   35 Atom        0.065145     -0.172064      0.106919
   36 Atom        0.136797      0.122699     -0.259496
   37 Atom        0.047680     -0.091249      0.043569
   38 Atom        0.138746     -0.147383      0.008637
   39 Atom        0.135001      0.110839     -0.245840
   40 Atom        0.030178      0.060039     -0.090217
   41 Atom        0.011454      0.143486     -0.154940
   42 Atom        0.133148      0.133619     -0.266767
   43 Atom        0.027532     -0.097271      0.069739
   44 Atom        0.062930     -0.181918      0.118988
   45 Atom       -0.209238      0.149824      0.059414
   46 Atom        0.166583     -0.383999      0.217416
 -----------------------------------------------------
 -----------------------------------------------------
    Center         ---- Electric Field Gradient ----
                       ( tensor representation )
                   ----       Eigenvalues       ----
 -----------------------------------------------------
    1 Atom       -0.489780      0.205766      0.284014
    2 Atom       -1.228921     -0.695406      1.924327
    3 Atom       -0.189895      0.054593      0.135302
    4 Atom       -0.403792      0.144004      0.259788
    5 Atom       -0.036835      0.006035      0.030800
    6 Atom       -0.043055     -0.004155      0.047210
    7 Atom       -0.034266     -0.003211      0.037477
    8 Atom       -0.039852     -0.007154      0.047006
    9 Atom       -0.034637     -0.003909      0.038546
   10 Atom       -0.014111     -0.000971      0.015082
   11 Atom       -0.032052      0.010841      0.021211
   12 Atom       -0.021880      0.006103      0.015777
   13 Atom       -0.029545      0.003957      0.025588
   14 Atom       -0.028241      0.005329      0.022912
   15 Atom       -0.031046     -0.005398      0.036444
   16 Atom       -0.046170      0.003406      0.042764
   17 Atom       -0.057611     -0.000630      0.058241
   18 Atom       -0.309156      0.135610      0.173546
   19 Atom       -0.035715      0.017134      0.018581
   20 Atom       -1.661286     -0.164455      1.825741
   21 Atom       -0.299014      0.139953      0.159061
   22 Atom       -0.273344      0.136274      0.137070
   23 Atom       -0.280697      0.136681      0.144016
   24 Atom       -0.288924      0.141157      0.147767
   25 Atom       -0.283770      0.139250      0.144520
   26 Atom       -0.288937      0.142961      0.145976
   27 Atom       -0.286745      0.138183      0.148562
   28 Atom       -0.280671      0.137924      0.142747
   29 Atom       -0.280134      0.137971      0.142162
   30 Atom       -0.289408      0.142356      0.147052
   31 Atom       -0.278892      0.137627      0.141265
   32 Atom       -0.272200      0.135602      0.136598
   33 Atom       -0.269314      0.131816      0.137498
   34 Atom       -0.280375      0.138188      0.142187
   35 Atom       -0.284449      0.139237      0.145213
   36 Atom       -0.282321      0.137935      0.144386
   37 Atom       -0.284751      0.139050      0.145701
   38 Atom       -0.294079      0.145885      0.148194
   39 Atom       -0.286921      0.142288      0.144633
   40 Atom       -0.290976      0.143894      0.147081
   41 Atom       -0.288145      0.143240      0.144905
   42 Atom       -0.274833      0.130790      0.144042
   43 Atom       -0.293093      0.141347      0.151746
   44 Atom       -0.295557      0.142240      0.153317
   45 Atom       -0.293606      0.143743      0.149863
   46 Atom       -0.441088      0.193209      0.247879
 -----------------------------------------------------
 Unable to Open any file for archive entry.
 1\1\GINC-MIKE074\SP\RwB97XD\6-31G(d)\C18H26O2\ARKANIL\01-May-2026\0\\#
  wb97xd/6-31g(d) prop=efg\\None_sub_reg_combined_truncated\\0,1\C,0,3.
 405193,-0.302689,-1.084009\O,0,4.482944,-0.420134,-1.680607\C,0,2.8188
 98,0.989831,-0.815711\C,0,1.638404,1.144415,-0.171189\C,0,0.834946,-0.
 046528,0.318857\C,0,1.186475,-1.311699,-0.47262\C,0,2.687186,-1.529522
 ,-0.594106\C,0,1.162172,2.524529,0.157194\C,0,-0.354647,2.681777,0.151
 574\C,0,-1.003292,1.579493,0.985\C,0,-0.688439,0.215747,0.332696\C,0,-
 2.507307,1.749408,1.12303\C,0,-3.178074,0.620717,1.92937\C,0,-2.943679
 ,-0.704355,1.200241\C,0,-1.445847,-0.96233,0.977826\C,0,-3.057567,3.03
 557,1.757301\C,0,-4.50034,2.650632,2.181561\C,0,-4.6287,1.142438,1.893
 768\C,0,-2.675247,0.527854,3.379202\O,0,-5.546409,0.539383,2.79529\H,0
 ,3.395445,1.856549,-1.131785\H,0,1.13668,-0.184131,1.370767\H,0,0.7502
 93,-1.227826,-1.477536\H,0,0.733924,-2.190696,-0.004897\H,0,3.129098,-
 1.770988,0.382459\H,0,2.932627,-2.365728,-1.255112\H,0,1.634916,3.2463
 75,-0.51681\H,0,1.543162,2.772583,1.158982\H,0,-0.740583,2.642715,-0.8
 77212\H,0,-0.610058,3.669394,0.546883\H,0,-0.540647,1.600577,1.981052\
 H,0,-1.019164,0.286836,-0.716156\H,0,-2.932837,1.690282,0.107133\H,0,-
 3.455359,-0.673872,0.227489\H,0,-3.37175,-1.547049,1.759535\H,0,-0.965
 241,-1.202882,1.935675\H,0,-1.340841,-1.859863,0.356688\H,0,-3.030929,
 3.883761,1.069117\H,0,-2.450957,3.323901,2.624068\H,0,-5.259271,3.2180
 72,1.634764\H,0,-4.674377,2.826564,3.248329\H,0,-4.997634,1.007698,0.8
 67992\H,0,-2.882187,1.438208,3.949526\H,0,-3.167771,-0.305002,3.888233
 \H,0,-1.598215,0.343163,3.434481\H,0,-5.553887,-0.414141,2.618834\\Ver
 sion=ES64L-G16RevC.01\State=1-A\HF=-851.7946663\RMSD=6.838e-09\Dipole=
 -1.2499477,0.0154854,0.5326062\Quadrupole=-17.8743869,15.231501,2.6428
 858,7.4075991,16.0669701,-3.2562857\PG=C01 [X(C18H26O2)]\\@
 The archive entry for this job was punched.


 DEFINE YOUR TERMS, YOU WILL PERMIT ME AGAIN TO SAY, 
 OR WE SHALL NEVER UNDERSTAND ONE ANOTHER.

                                    -- VOLTAIRE
 Job cpu time:       0 days  0 hours 16 minutes 35.8 seconds.
 Elapsed time:       0 days  0 hours  0 minutes 15.9 seconds.
 File lengths (MBytes):  RWF=     71 Int=      0 D2E=      0 Chk=      8 Scr=      1
 Normal termination of Gaussian 16 at Fri May  1 10:20:09 2026.
