 Entering Gaussian System, Link 0=g16
 Input=cutoff8_19nt_ligand.com
 Output=cutoff8_19nt_ligand.log
 Initial command:
 /usr/local/packages/license/gaussian/g16-c01/g16/l1.exe "/work/arkanil/gauss_scratch/Gau-3081345.inp" -scrdir="/work/arkanil/gauss_scratch/"
 Entering Link 1 = /usr/local/packages/license/gaussian/g16-c01/g16/l1.exe PID=   3081346.
  
 Copyright (c) 1988-2019, Gaussian, Inc.  All Rights Reserved.
  
 This is part of the Gaussian(R) 16 program.  It is based on
 the Gaussian(R) 09 system (copyright 2009, Gaussian, Inc.),
 the Gaussian(R) 03 system (copyright 2003, Gaussian, Inc.),
 the Gaussian(R) 98 system (copyright 1998, Gaussian, Inc.),
 the Gaussian(R) 94 system (copyright 1995, Gaussian, Inc.),
 the Gaussian 92(TM) system (copyright 1992, Gaussian, Inc.),
 the Gaussian 90(TM) system (copyright 1990, Gaussian, Inc.),
 the Gaussian 88(TM) system (copyright 1988, Gaussian, Inc.),
 the Gaussian 86(TM) system (copyright 1986, Carnegie Mellon
 University), and the Gaussian 82(TM) system (copyright 1983,
 Carnegie Mellon University). Gaussian is a federally registered
 trademark of Gaussian, Inc.
  
 This software contains proprietary and confidential information,
 including trade secrets, belonging to Gaussian, Inc.
  
 This software is provided under written license and may be
 used, copied, transmitted, or stored only in accord with that
 written license.
  
 The following legend is applicable only to US Government
 contracts under FAR:
  
                    RESTRICTED RIGHTS LEGEND
  
 Use, reproduction and disclosure by the US Government is
 subject to restrictions as set forth in subparagraphs (a)
 and (c) of the Commercial Computer Software - Restricted
 Rights clause in FAR 52.227-19.
  
 Gaussian, Inc.
 340 Quinnipiac St., Bldg. 40, Wallingford CT 06492
  
  
 ---------------------------------------------------------------
 Warning -- This program may not be used in any manner that
 competes with the business of Gaussian, Inc. or will provide
 assistance to any competitor of Gaussian, Inc.  The licensee
 of this program is prohibited from giving any competitor of
 Gaussian, Inc. access to this program.  By using this program,
 the user acknowledges that Gaussian, Inc. is engaged in the
 business of creating and licensing software in the field of
 computational chemistry and represents and warrants to the
 licensee that it is not a competitor of Gaussian, Inc. and that
 it will not use this program in any manner prohibited above.
 ---------------------------------------------------------------
  

 Cite this work as:
 Gaussian 16, Revision C.01,
 M. J. Frisch, G. W. Trucks, H. B. Schlegel, G. E. Scuseria, 
 M. A. Robb, J. R. Cheeseman, G. Scalmani, V. Barone, 
 G. A. Petersson, H. Nakatsuji, X. Li, M. Caricato, A. V. Marenich, 
 J. Bloino, B. G. Janesko, R. Gomperts, B. Mennucci, H. P. Hratchian, 
 J. V. Ortiz, A. F. Izmaylov, J. L. Sonnenberg, D. Williams-Young, 
 F. Ding, F. Lipparini, F. Egidi, J. Goings, B. Peng, A. Petrone, 
 T. Henderson, D. Ranasinghe, V. G. Zakrzewski, J. Gao, N. Rega, 
 G. Zheng, W. Liang, M. Hada, M. Ehara, K. Toyota, R. Fukuda, 
 J. Hasegawa, M. Ishida, T. Nakajima, Y. Honda, O. Kitao, H. Nakai, 
 T. Vreven, K. Throssell, J. A. Montgomery, Jr., J. E. Peralta, 
 F. Ogliaro, M. J. Bearpark, J. J. Heyd, E. N. Brothers, K. N. Kudin, 
 V. N. Staroverov, T. A. Keith, R. Kobayashi, J. Normand, 
 K. Raghavachari, A. P. Rendell, J. C. Burant, S. S. Iyengar, 
 J. Tomasi, M. Cossi, J. M. Millam, M. Klene, C. Adamo, R. Cammi, 
 J. W. Ochterski, R. L. Martin, K. Morokuma, O. Farkas, 
 J. B. Foresman, and D. J. Fox, Gaussian, Inc., Wallingford CT, 2019.
 
 ******************************************
 Gaussian 16:  ES64L-G16RevC.01  3-Jul-2019
                 3-May-2026 
 ******************************************
 %chk=ksi_reactant_trial_ligand.chk
 %nprocshared=64
 Will use up to   64 processors via shared memory.
 %mem=200GB
 --------------------------
 # wb97xd/6-31g(d) prop=efg
 --------------------------
 1/38=1,172=1/1;
 2/12=2,17=6,18=5,40=1/2;
 3/5=1,6=6,7=1,11=2,25=1,30=1,74=-58/1,2,3;
 4//1;
 5/5=2,38=5/2;
 6/7=2,8=2,9=2,10=2,14=1,28=1/1,2;
 99/5=1,9=1/99;
 -------------------------------
 None_sub_reg_combined_truncated
 -------------------------------
 Symbolic Z-matrix:
 Charge =  0 Multiplicity = 1
 C                    0     1.96137  -1.64789  -0.8946 
 O                    0     2.71703  -1.96544  -1.81684 
 C                    0     2.11055  -0.41898  -0.14328 
 C                    0     1.17216   0.01902   0.72784 
 C                    0    -0.1206   -0.74281   0.96581 
 C                    0    -0.40844  -1.75327  -0.14977 
 C                    0     0.83759  -2.56003  -0.4865 
 C                    0     1.43809   1.23159   1.56394 
 C                    0     0.20335   2.06004   1.91084 
 C                    0    -0.94659   1.17324   2.38473 
 C                    0    -1.31094   0.19735   1.24448 
 C                    0    -2.173     1.9705    2.79994 
 C                    0    -3.36875   1.08521   3.20242 
 C                    0    -3.7801    0.2486    1.98957 
 C                    0    -2.60668  -0.60095   1.48179 
 C                    0    -2.05156   2.98116   3.9505 
 C                    0    -3.51751   3.18913   4.41911 
 C                    0    -4.36343   2.19028   3.6059 
 C                    0    -3.09308   0.17185   4.40821 
 O                    0    -5.49166   1.76847   4.35986 
 H                    0     3.03169   0.14048  -0.29535 
 H                    0     0.05483  -1.31981   1.8882 
 H                    0    -0.76496  -1.22525  -1.04594 
 H                    0    -1.21101  -2.43535   0.1518 
 H                    0     1.17574  -3.07317   0.42464 
 H                    0     0.67571  -3.30634  -1.26763 
 H                    0     2.19868   1.8573    1.08476 
 H                    0     1.91284   0.88064   2.49591 
 H                    0    -0.13057   2.63122   1.03413 
 H                    0     0.47337   2.79324   2.67639 
 H                    0    -0.59155   0.58996   3.24924 
 H                    0    -1.47263   0.81499   0.3456 
 H                    0    -2.50023   2.53741   1.91073 
 H                    0    -4.11359   0.92067   1.18553 
 H                    0    -4.6277   -0.41156   2.22851 
 H                    0    -2.40414  -1.41262   2.19742 
 H                    0    -2.90969  -1.08697   0.5468 
 H                    0    -1.56895   3.91061   3.63892 
 H                    0    -1.43088   2.57152   4.75589 
 H                    0    -3.86195   4.2147    4.25925 
 H                    0    -3.64059   2.97225   5.4852 
 H                    0    -4.70264   2.67972   2.68222 
 H                    0    -2.80511   0.74043   5.29696 
 H                    0    -4.00534  -0.383     4.65533 
 H                    0    -2.2972   -0.55332   4.21253 
 H                    0    -5.94883   1.09601   3.83911 
 
                          Input orientation:                          
 ---------------------------------------------------------------------
 Center     Atomic      Atomic             Coordinates (Angstroms)
 Number     Number       Type             X           Y           Z
 ---------------------------------------------------------------------
      1          6           0        1.961368   -1.647890   -0.894597
      2          8           0        2.717026   -1.965443   -1.816835
      3          6           0        2.110547   -0.418978   -0.143278
      4          6           0        1.172159    0.019019    0.727839
      5          6           0       -0.120601   -0.742808    0.965809
      6          6           0       -0.408441   -1.753274   -0.149765
      7          6           0        0.837588   -2.560031   -0.486498
      8          6           0        1.438094    1.231585    1.563941
      9          6           0        0.203354    2.060040    1.910838
     10          6           0       -0.946592    1.173240    2.384725
     11          6           0       -1.310938    0.197350    1.244483
     12          6           0       -2.172996    1.970504    2.799941
     13          6           0       -3.368746    1.085207    3.202420
     14          6           0       -3.780096    0.248597    1.989570
     15          6           0       -2.606682   -0.600946    1.481792
     16          6           0       -2.051559    2.981156    3.950495
     17          6           0       -3.517512    3.189128    4.419112
     18          6           0       -4.363433    2.190280    3.605902
     19          6           0       -3.093080    0.171848    4.408213
     20          8           0       -5.491660    1.768471    4.359855
     21          1           0        3.031692    0.140479   -0.295345
     22          1           0        0.054832   -1.319809    1.888195
     23          1           0       -0.764960   -1.225248   -1.045941
     24          1           0       -1.211006   -2.435347    0.151797
     25          1           0        1.175742   -3.073172    0.424636
     26          1           0        0.675709   -3.306340   -1.267627
     27          1           0        2.198676    1.857297    1.084764
     28          1           0        1.912837    0.880636    2.495912
     29          1           0       -0.130567    2.631220    1.034126
     30          1           0        0.473374    2.793241    2.676389
     31          1           0       -0.591551    0.589963    3.249237
     32          1           0       -1.472630    0.814989    0.345602
     33          1           0       -2.500233    2.537405    1.910733
     34          1           0       -4.113590    0.920665    1.185525
     35          1           0       -4.627700   -0.411558    2.228510
     36          1           0       -2.404138   -1.412624    2.197418
     37          1           0       -2.909689   -1.086968    0.546803
     38          1           0       -1.568947    3.910609    3.638919
     39          1           0       -1.430880    2.571524    4.755892
     40          1           0       -3.861954    4.214698    4.259253
     41          1           0       -3.640594    2.972249    5.485198
     42          1           0       -4.702642    2.679719    2.682223
     43          1           0       -2.805108    0.740425    5.296958
     44          1           0       -4.005343   -0.383001    4.655334
     45          1           0       -2.297200   -0.553322    4.212528
     46          1           0       -5.948831    1.096013    3.839105
 ---------------------------------------------------------------------
                    Distance matrix (angstroms):
                    1          2          3          4          5
     1  C    0.000000
     2  O    1.233848   0.000000
     3  C    1.448088   2.358000   0.000000
     4  C    2.456366   3.577718   1.353240   0.000000
     5  C    2.935111   4.158133   2.512561   1.519289   0.000000
     6  C    2.486338   3.548617   2.850559   2.531701   1.532449
     7  C    1.503804   2.378154   2.514425   2.870201   2.515874
     8  C    3.822251   4.825588   2.468025   1.496698   2.585637
     9  C    4.970898   6.034783   3.741966   2.550262   2.975564
    10  C    5.212385   6.397385   4.274583   2.926876   2.523257
    11  C    4.323027   5.502166   3.743301   2.542537   1.542225
    12  C    6.620827   7.792215   5.720219   4.392262   3.865026
    13  C    7.257099   8.457896   6.593855   5.280163   4.346782
    14  C    6.699216   7.848776   6.300347   5.115613   3.927197
    15  C    5.254560   6.409732   4.992616   3.902876   2.543022
    16  C    7.810670   8.970526   6.755961   5.436187   5.148287
    17  C    9.036060  10.214015   8.093756   6.757818   6.238944
    18  C    8.659627   9.839157   7.923193   6.606088   5.794370
    19  C    7.548423   8.779326   6.938507   5.635670   4.639221
    20  O    9.737988  10.930514   9.102565   7.788364   6.831863
    21  H    2.168631   2.617032   1.088405   2.125917   3.508227
    22  H    3.389166   4.607751   3.027267   2.094590   1.102045
    23  H    2.763041   3.642306   3.119842   2.906360   2.166814
    24  H    3.432053   4.418796   3.896861   3.469180   2.171701
    25  H    2.094997   2.937144   2.870737   3.107023   2.721024
    26  H    2.131320   2.503320   3.414642   3.909777   3.491997
    27  H    4.032434   4.827142   2.587911   2.135509   3.486222
    28  H    4.229817   5.229405   2.948459   2.101683   3.018552
    29  H    5.138769   6.112780   3.963910   2.935047   3.374734
    30  H    5.889797   6.918678   4.577031   3.461424   3.972724
    31  H    5.356934   6.568247   4.452915   3.129552   2.685538
    32  H    4.404113   5.473587   3.821104   2.788294   2.153920
    33  H    6.729967   7.835190   5.849654   4.607382   4.161169
    34  H    6.915887   8.000069   6.503864   5.381597   4.331210
    35  H    7.395818   8.527859   7.143487   6.006311   4.692343
    36  H    5.354769   6.530402   5.181561   4.123004   2.679563
    37  H    5.110720   6.165908   5.111281   4.232903   2.841307
    38  H    7.994548   9.091909   6.825615   5.579652   5.558553
    39  H    7.825524   8.999441   6.744381   5.432891   5.202534
    40  H    9.738747  10.880991   8.747800   7.444253   7.030033
    41  H    9.665891  10.868294   8.732456   7.383537   6.827655
    42  H    8.713832   9.842283   8.000308   6.738860   5.971170
    43  H    8.170599   9.403283   7.423210   6.100486   5.307109
    44  H    8.246412   9.464848   7.773807   6.511019   5.369663
    45  H    6.739155   7.968047   6.198333   4.950463   3.913397
    46  H    9.618118  10.791629   9.116367   7.845278   6.753174
                    6          7          8          9         10
     6  C    0.000000
     7  C    1.522115   0.000000
     8  C    3.905875   4.352156   0.000000
     9  C    4.377413   5.243523   1.526846   0.000000
    10  C    3.908674   5.036321   2.522661   1.527534   0.000000
    11  C    2.561906   3.900719   2.954467   2.491330   1.544429
    12  C    5.067637   6.355316   3.887630   2.538811   1.520559
    13  C    5.296935   6.677509   5.080527   3.921528   2.557969
    14  C    4.466800   5.944940   5.327000   4.376688   3.006636
    15  C    2.970202   4.424384   4.441298   3.893742   2.592088
    16  C    6.475090   7.664126   4.575403   3.176994   2.634606
    17  C    7.414061   8.722656   6.044998   4.627215   3.848657
    18  C    6.730425   8.146399   6.224662   4.872961   3.768348
    19  C    5.629258   6.846277   5.453849   4.546276   3.115237
    20  O    7.653658   9.070967   7.491787   6.206116   4.991301
    21  H    3.929632   3.484736   2.680860   4.068348   4.906742
    22  H    2.134431   2.791062   2.920302   3.383186   2.732158
    23  H    1.099567   2.159348   4.207251   4.524742   4.189893
    24  H    1.095570   2.149350   4.739016   5.030223   4.251798
    25  H    2.140491   1.099012   4.460692   5.431777   5.135978
    26  H    2.199321   1.092403   5.402941   6.254902   6.003180
    27  H    4.621401   4.882029   1.095268   2.169058   3.471389
    28  H    4.396069   4.678581   1.103230   2.157693   2.876511
    29  H    4.550011   5.495335   2.168036   1.098350   2.148423
    30  H    5.425453   6.228485   2.146391   1.093875   2.173885
    31  H    4.132494   5.091229   2.715025   2.141101   1.101657
    32  H    2.823803   4.173758   3.182800   2.609413   2.136137
    33  H    5.199151   6.547642   4.163634   2.745407   2.121182
    34  H    4.760365   6.278939   5.573245   4.523302   3.395843
    35  H    5.025788   6.469666   6.319448   5.435880   4.010803
    36  H    3.099696   4.362194   4.707003   4.352073   2.974259
    37  H    2.680562   4.156887   5.031250   4.631985   3.512869
    38  H    6.912342   8.042366   4.530452   3.090618   3.074657
    39  H    6.619270   7.678636   4.496109   3.320643   2.795025
    40  H    8.184307   9.513401   6.652381   5.165688   4.611253
    41  H    8.033068   9.290930   6.648251   5.327674   4.484084
    42  H    6.790563   8.257719   6.407518   5.004781   4.057819
    43  H    6.452080   7.590165   5.672867   4.717842   3.481740
    44  H    6.156649   7.391338   6.464875   5.586935   4.115035
    45  H    4.902744   5.994549   4.914603   4.287214   2.854124
    46  H    7.397665   8.839286   7.730551   6.518968   5.209950
                   11         12         13         14         15
    11  C    0.000000
    12  C    2.511308   0.000000
    13  C    2.975967   1.541285   0.000000
    14  C    2.579636   2.490870   1.529748   0.000000
    15  C    1.540307   2.921978   2.526740   1.535077   0.000000
    16  C    3.952290   1.536209   2.426772   3.781527   4.385671
    17  C    4.888555   2.431971   2.434944   3.823395   4.880791
    18  C    4.343477   2.344331   1.540580   2.592864   3.922876
    19  C    3.631235   2.582297   1.537580   2.515495   3.065572
    20  O    5.445402   3.672558   2.512622   3.295105   4.713861
    21  H    4.607900   6.326023   7.354759   7.185609   5.958120
    22  H    2.140436   4.076844   4.385450   4.144496   2.786680
    23  H    2.750985   5.194825   5.492402   4.525217   3.189220
    24  H    2.852200   5.229686   5.133853   4.145020   2.661170
    25  H    4.189516   6.503444   6.757261   6.167941   4.640712
    26  H    4.746926   7.246055   7.458192   6.565143   5.064835
    27  H    3.885656   4.697464   6.006395   6.257180   5.412214
    28  H    3.525008   4.239608   5.332553   5.750247   4.863083
    29  H    2.713162   2.779598   4.192548   4.461931   4.096150
    30  H    3.460170   2.774065   4.237449   5.003893   4.736487
    31  H    2.165803   2.146795   2.821395   3.445303   2.933066
    32  H    1.102547   2.801697   3.439431   2.889261   2.140531
    33  H    2.708167   1.104152   2.128767   2.623529   3.169317
    34  H    2.895085   2.733936   2.156324   1.099719   2.161908
    35  H    3.512832   3.467899   2.184896   1.100604   2.162861
    36  H    2.166838   3.444128   2.860010   2.167052   1.100893
    37  H    2.166157   3.868783   3.461413   2.150097   1.096465
    38  H    4.425854   2.198355   3.378269   4.584743   5.107271
    39  H    4.240411   2.176627   2.894432   4.308984   4.708164
    40  H    5.633436   3.165214   3.339740   4.570352   5.699160
    41  H    5.577726   3.219929   2.974206   4.433639   5.464792
    42  H    4.442174   2.629820   2.142977   2.690950   4.073923
    43  H    4.353163   2.854427   2.196281   3.483003   4.048968
    44  H    4.385263   3.512686   2.161446   2.748809   3.474928
    45  H    3.216444   2.894914   2.203022   2.789910   2.748630
    46  H    5.389778   4.012671   2.657503   2.973601   4.427929
                   16         17         18         19         20
    16  C    0.000000
    17  C    1.553020   0.000000
    18  C    2.467588   1.540971   0.000000
    19  C    3.030921   3.047005   2.516261   0.000000
    20  O    3.670487   2.432907   1.421008   2.881793   0.000000
    21  H    7.206667   8.626264   8.608675   7.722517   9.847272
    22  H    5.214237   6.284719   5.898500   4.299405   6.812500
    23  H    6.656842   7.545201   6.801065   6.092603   7.779889
    24  H    6.668968   7.427292   6.577618   5.334486   7.328290
    25  H    7.713757   8.786289   8.276886   6.679961   9.131358
    26  H    8.613907   9.597563   8.908258   7.649622   9.770297
    27  H    5.247854   6.750293   7.037634   6.472151   8.359149
    28  H    4.716400   6.206168   6.506828   5.405412   7.686944
    29  H    3.509683   4.820870   4.972486   5.119517   6.367584
    30  H    2.834421   4.372754   4.962082   4.752947   6.282184
    31  H    2.888112   4.084791   4.112824   2.788493   5.160758
    32  H    4.245314   5.139218   4.569215   4.420893   5.759857
    33  H    2.135147   2.784163   2.542756   3.490664   3.941839
    34  H    4.017792   3.994661   2.744553   3.462353   3.562895
    35  H    4.594806   4.358462   2.955775   2.728832   3.168846
    36  H    4.743721   5.229880   4.336310   2.805852   4.932372
    37  H    5.373187   5.800795   4.712941   4.065555   5.418438
    38  H    1.092647   2.219491   3.281733   4.110125   4.527271
    39  H    1.096223   2.202019   3.172963   2.939768   4.158326
    40  H    2.212349   1.093613   2.185547   4.118008   2.941103
    41  H    2.209168   1.094863   2.160029   3.049904   2.478290
    42  H    2.954254   2.163519   1.098998   3.443711   2.065762
    43  H    2.720602   2.697087   2.718479   1.093652   3.025327
    44  H    3.953685   3.613016   2.802019   1.095970   2.631592
    45  H    3.552680   3.941798   3.487788   1.094344   3.951835
    46  H    4.330693   3.260192   1.940436   3.055042   0.965601
                   21         22         23         24         25
    21  H    0.000000
    22  H    3.970136   0.000000
    23  H    4.104043   3.047976   0.000000
    24  H    4.983503   2.421126   1.760078   0.000000
    25  H    3.780275   2.544155   3.056754   2.485524   0.000000
    26  H    4.286788   3.780345   2.540790   2.516562   1.779931
    27  H    2.355012   3.916066   4.777565   5.560859   5.078552
    28  H    3.096899   2.943376   4.914272   5.123379   4.523946
    29  H    4.239241   4.046534   4.427356   5.255088   5.883707
    30  H    4.734273   4.208754   5.615823   6.045563   6.322856
    31  H    5.088613   2.432586   4.666221   4.373827   4.951793
    32  H    4.599423   3.044683   2.568999   3.266602   4.705095
    33  H    6.419831   4.626766   5.090251   5.429938   6.870215
    34  H    7.338714   4.784267   4.560450   4.555920   6.671336
    35  H    8.083370   4.781928   5.128828   4.481323   6.634613
    36  H    6.178531   2.480074   3.638872   2.579553   4.326166
    37  H    6.125018   3.262197   2.675036   2.204468   4.544302
    38  H    7.131493   5.749693   6.997952   7.249779   8.163218
    39  H    7.165160   5.057025   6.965644   6.805497   7.577391
    40  H    9.212273   7.182889   8.205454   8.253594   9.653793
    41  H    9.271084   6.709424   8.279132   7.974344   9.238696
    42  H    8.667962   6.265801   6.682313   6.690178   8.529235
    43  H    8.105678   4.903416   6.946830   6.252949   7.357324
    44  H    8.619925   5.001968   6.611656   5.683510   7.209679
    45  H    7.014226   3.394419   5.518219   4.605581   5.723556
    46  H    9.932599   6.759158   7.491625   6.965180   8.933098
                   26         27         28         29         30
    26  H    0.000000
    27  H    5.875059   0.000000
    28  H    5.764155   1.739802   0.000000
    29  H    6.418938   2.454973   3.062166   0.000000
    30  H    7.266436   2.527039   2.400559   1.757277   0.000000
    31  H    6.098294   3.751859   2.631340   3.047286   2.513295
    32  H    4.919677   3.887320   4.011176   2.360909   3.623945
    33  H    7.371427   4.819182   4.750001   2.528351   3.081237
    34  H    6.842727   6.382173   6.167377   4.337441   5.173921
    35  H    6.980608   7.283905   6.672323   5.559609   6.040885
    36  H    5.007809   5.754675   4.897388   4.782787   5.118475
    37  H    4.590517   5.920599   5.561227   4.667539   5.571021
    38  H    9.010939   4.993474   4.755000   3.238938   2.519137
    39  H    8.675816   5.211619   4.375735   3.942831   2.828370
    40  H   10.377996   7.236433   6.897358   5.179971   4.829189
    41  H   10.180953   7.396216   6.644642   5.678788   4.984595
    42  H    8.964423   7.131370   6.858278   4.860293   5.177264
    43  H    8.460861   6.635347   5.488581   5.375873   4.672246
    44  H    8.095655   7.500517   6.425320   6.100210   5.836407
    45  H    6.815379   5.983886   4.767328   4.993781   4.608176
    46  H    9.452193   8.634108   7.978495   6.639048   6.743679
                   31         32         33         34         35
    31  H    0.000000
    32  H    3.042702   0.000000
    33  H    3.037629   2.544075   0.000000
    34  H    4.095489   2.773321   2.396392   0.000000
    35  H    4.281989   3.873529   3.650134   1.768317   0.000000
    36  H    2.898646   3.042892   3.961584   3.064375   2.438714
    37  H    3.935608   2.392292   3.894103   2.426506   2.497174
    38  H    3.483367   4.520849   2.395748   4.629699   5.479631
    39  H    2.626988   4.747401   3.039673   4.761280   5.050356
    40  H    4.985416   5.708201   3.191104   4.512403   5.110042
    41  H    4.468945   5.980743   3.777077   4.787474   4.799015
    42  H    4.646467   4.401135   2.337960   2.383560   3.125294
    43  H    3.019211   5.128058   3.845596   4.318390   3.750237
    44  H    3.818081   5.140390   4.281000   3.708212   2.505518
    45  H    2.268098   4.183934   3.859025   3.825527   3.063928
    46  H    5.413361   5.685061   4.205836   3.231152   2.571415
                   36         37         38         39         40
    36  H    0.000000
    37  H    1.756748   0.000000
    38  H    5.577838   6.027814   0.000000
    39  H    4.833886   5.769564   1.749240   0.000000
    40  H    6.167912   6.541923   2.394821   2.976036   0.000000
    41  H    5.618312   6.434222   2.929332   2.361208   1.759438
    42  H    4.718626   4.686430   3.500057   3.875079   2.355831
    43  H    3.795200   5.090607   3.785136   2.352483   3.776815
    44  H    3.108912   4.309995   5.040259   3.920101   4.616955
    45  H    2.193286   3.754659   4.559173   3.287920   5.018431
    46  H    4.642547   4.984079   5.210126   4.840404   3.775947
                   41         42         43         44         45
    41  H    0.000000
    42  H    3.011675   0.000000
    43  H    2.390504   3.768068   0.000000
    44  H    3.475546   3.709400   1.764747   0.000000
    45  H    3.981714   4.310515   1.762878   1.772805   0.000000
    46  H    3.399683   2.323680   3.483500   2.575045   4.024197
                   46
    46  H    0.000000
 Stoichiometry    C18H26O2
 Framework group  C1[X(C18H26O2)]
 Deg. of freedom   132
 Full point group                 C1      NOp   1
 Largest Abelian subgroup         C1      NOp   1
 Largest concise Abelian subgroup C1      NOp   1
                         Standard orientation:                         
 ---------------------------------------------------------------------
 Center     Atomic      Atomic             Coordinates (Angstroms)
 Number     Number       Type             X           Y           Z
 ---------------------------------------------------------------------
      1          6           0        4.689631   -0.171778   -0.033316
      2          8           0        5.881580   -0.139653   -0.350501
      3          6           0        3.846786    1.005695   -0.021938
      4          6           0        2.504136    0.937206    0.132528
      5          6           0        1.780134   -0.389579    0.286482
      6          6           0        2.640055   -1.572516   -0.171333
      7          6           0        4.051554   -1.466559    0.388379
      8          6           0        1.702252    2.194728    0.257931
      9          6           0        0.283737    2.114305   -0.301179
     10          6           0       -0.420955    0.836657    0.150909
     11          6           0        0.384442   -0.374052   -0.369460
     12          6           0       -1.859269    0.753453   -0.335331
     13          6           0       -2.556240   -0.567768    0.044361
     14          6           0       -1.801629   -1.720351   -0.620654
     15          6           0       -0.325845   -1.730047   -0.198245
     16          6           0       -2.856462    1.839825    0.095181
     17          6           0       -4.244469    1.178745   -0.124547
     18          6           0       -3.954901   -0.278579   -0.533138
     19          6           0       -2.661435   -0.806655    1.559623
     20          8           0       -5.000582   -1.133449   -0.091536
     21          1           0        4.345670    1.967380   -0.126345
     22          1           0        1.623157   -0.503855    1.371287
     23          1           0        2.675221   -1.602633   -1.269925
     24          1           0        2.191588   -2.517802    0.153605
     25          1           0        3.988628   -1.433542    1.485091
     26          1           0        4.698053   -2.298854    0.100856
     27          1           0        2.246081    3.032013   -0.192418
     28          1           0        1.655057    2.439095    1.332721
     29          1           0        0.305479    2.134894   -1.399121
     30          1           0       -0.272125    3.001268    0.016433
     31          1           0       -0.415745    0.817591    1.252388
     32          1           0        0.520518   -0.215606   -1.452043
     33          1           0       -1.823892    0.772262   -1.438756
     34          1           0       -1.863665   -1.608069   -1.712866
     35          1           0       -2.255481   -2.691549   -0.371413
     36          1           0       -0.246664   -2.048375    0.852642
     37          1           0        0.198531   -2.491234   -0.788040
     38          1           0       -2.732560    2.766374   -0.470534
     39          1           0       -2.703911    2.103862    1.148138
     40          1           0       -4.830541    1.691382   -0.892474
     41          1           0       -4.846126    1.177533    0.790184
     42          1           0       -3.875542   -0.332728   -1.627928
     43          1           0       -3.205047   -0.003676    2.065376
     44          1           0       -3.210108   -1.738126    1.739816
     45          1           0       -1.682033   -0.891117    2.040486
     46          1           0       -4.741674   -2.038060   -0.308404
 ---------------------------------------------------------------------
 Rotational constants (GHZ):           0.9149613           0.1757048           0.1551601
 Standard basis: 6-31G(d) (6D, 7F)
 There are   352 symmetry adapted cartesian basis functions of A   symmetry.
 There are   352 symmetry adapted basis functions of A   symmetry.
   352 basis functions,   664 primitive gaussians,   352 cartesian basis functions
    75 alpha electrons       75 beta electrons
       nuclear repulsion energy      1664.0443412953 Hartrees.
 NAtoms=   46 NActive=   46 NUniq=   46 SFac= 1.00D+00 NAtFMM=   60 NAOKFM=F Big=F
 Integral buffers will be    131072 words long.
 Raffenetti 2 integral format.
 Two-electron integral symmetry is turned on.
 Nuclear repulsion after empirical dispersion term =     1663.9955025068 Hartrees.
 One-electron integrals computed using PRISM.
 NBasis=   352 RedAO= T EigKep=  1.32D-03  NBF=   352
 NBsUse=   352 1.00D-06 EigRej= -1.00D+00 NBFU=   352
 ExpMin= 1.61D-01 ExpMax= 5.48D+03 ExpMxC= 8.25D+02 IAcc=3 IRadAn=         5 AccDes= 0.00D+00
 Harris functional with IExCor= 4639 and IRadAn=       5 diagonalized for initial guess.
 HarFok:  IExCor= 4639 AccDes= 0.00D+00 IRadAn=         5 IDoV= 1 UseB2=F ITyADJ=14
 ICtDFT=  3500011 ScaDFX=  1.000000  1.000000  1.000000  1.000000
 FoFCou: FMM=F IPFlag=           0 FMFlag=      100000 FMFlg1=           0
         NFxFlg=           0 DoJE=T BraDBF=F KetDBF=T FulRan=T
         wScrn=  0.000000 ICntrl=       500 IOpCl=  0 I1Cent=   200000004 NGrid=           0
         NMat0=    1 NMatS0=      1 NMatT0=    0 NMatD0=    1 NMtDS0=    0 NMtDT0=    0
 Petite list used in FoFCou.
 Requested convergence on RMS density matrix=1.00D-08 within 128 cycles.
 Requested convergence on MAX density matrix=1.00D-06.
 Requested convergence on             energy=1.00D-06.
 No special actions if energy rises.
 Integral accuracy reduced to 1.0D-05 until final iterations.
 Initial convergence to 1.0D-05 achieved.  Increase integral accuracy.
 SCF Done:  E(RwB97XD) =  -851.794726776     A.U. after   15 cycles
            NFock= 15  Conv=0.86D-08     -V/T= 2.0093

 **********************************************************************

            Population analysis using the SCF Density.

 **********************************************************************

 Orbital symmetries:
       Occupied  (A) (A) (A) (A) (A) (A) (A) (A) (A) (A) (A) (A)
                 (A) (A) (A) (A) (A) (A) (A) (A) (A) (A) (A) (A)
                 (A) (A) (A) (A) (A) (A) (A) (A) (A) (A) (A) (A)
                 (A) (A) (A) (A) (A) (A) (A) (A) (A) (A) (A) (A)
                 (A) (A) (A) (A) (A) (A) (A) (A) (A) (A) (A) (A)
                 (A) (A) (A) (A) (A) (A) (A) (A) (A) (A) (A) (A)
                 (A) (A) (A)
       Virtual   (A) (A) (A) (A) (A) (A) (A) (A) (A) (A) (A) (A)
                 (A) (A) (A) (A) (A) (A) (A) (A) (A) (A) (A) (A)
                 (A) (A) (A) (A) (A) (A) (A) (A) (A) (A) (A) (A)
                 (A) (A) (A) (A) (A) (A) (A) (A) (A) (A) (A) (A)
                 (A) (A) (A) (A) (A) (A) (A) (A) (A) (A) (A) (A)
                 (A) (A) (A) (A) (A) (A) (A) (A) (A) (A) (A) (A)
                 (A) (A) (A) (A) (A) (A) (A) (A) (A) (A) (A) (A)
                 (A) (A) (A) (A) (A) (A) (A) (A) (A) (A) (A) (A)
                 (A) (A) (A) (A) (A) (A) (A) (A) (A) (A) (A) (A)
                 (A) (A) (A) (A) (A) (A) (A) (A) (A) (A) (A) (A)
                 (A) (A) (A) (A) (A) (A) (A) (A) (A) (A) (A) (A)
                 (A) (A) (A) (A) (A) (A) (A) (A) (A) (A) (A) (A)
                 (A) (A) (A) (A) (A) (A) (A) (A) (A) (A) (A) (A)
                 (A) (A) (A) (A) (A) (A) (A) (A) (A) (A) (A) (A)
                 (A) (A) (A) (A) (A) (A) (A) (A) (A) (A) (A) (A)
                 (A) (A) (A) (A) (A) (A) (A) (A) (A) (A) (A) (A)
                 (A) (A) (A) (A) (A) (A) (A) (A) (A) (A) (A) (A)
                 (A) (A) (A) (A) (A) (A) (A) (A) (A) (A) (A) (A)
                 (A) (A) (A) (A) (A) (A) (A) (A) (A) (A) (A) (A)
                 (A) (A) (A) (A) (A) (A) (A) (A) (A) (A) (A) (A)
                 (A) (A) (A) (A) (A) (A) (A) (A) (A) (A) (A) (A)
                 (A) (A) (A) (A) (A) (A) (A) (A) (A) (A) (A) (A)
                 (A) (A) (A) (A) (A) (A) (A) (A) (A) (A) (A) (A)
                 (A)
 The electronic state is 1-A.
 Alpha  occ. eigenvalues --  -19.26815 -19.23786 -10.36897 -10.34190 -10.33083
 Alpha  occ. eigenvalues --  -10.31770 -10.31009 -10.30867 -10.30459 -10.30426
 Alpha  occ. eigenvalues --  -10.30329 -10.30177 -10.30159 -10.30048 -10.29940
 Alpha  occ. eigenvalues --  -10.29534 -10.29479 -10.29401 -10.29056 -10.28642
 Alpha  occ. eigenvalues --   -1.12068  -1.11150  -0.98080  -0.95587  -0.90848
 Alpha  occ. eigenvalues --   -0.90180  -0.87223  -0.84383  -0.82493  -0.81416
 Alpha  occ. eigenvalues --   -0.77886  -0.77355  -0.73575  -0.72094  -0.69645
 Alpha  occ. eigenvalues --   -0.67675  -0.65414  -0.65152  -0.62858  -0.60912
 Alpha  occ. eigenvalues --   -0.60068  -0.58069  -0.56909  -0.55586  -0.55222
 Alpha  occ. eigenvalues --   -0.54107  -0.53430  -0.52878  -0.51675  -0.50707
 Alpha  occ. eigenvalues --   -0.50268  -0.49769  -0.48684  -0.47875  -0.47649
 Alpha  occ. eigenvalues --   -0.47029  -0.46551  -0.46461  -0.45181  -0.44582
 Alpha  occ. eigenvalues --   -0.43945  -0.43381  -0.42885  -0.42658  -0.41949
 Alpha  occ. eigenvalues --   -0.41582  -0.40841  -0.40031  -0.39281  -0.38681
 Alpha  occ. eigenvalues --   -0.37439  -0.36438  -0.34063  -0.32796  -0.31001
 Alpha virt. eigenvalues --    0.02592   0.12998   0.14120   0.15082   0.16402
 Alpha virt. eigenvalues --    0.17064   0.17700   0.18403   0.19611   0.20381
 Alpha virt. eigenvalues --    0.20617   0.20918   0.22101   0.22640   0.23469
 Alpha virt. eigenvalues --    0.23720   0.24076   0.24721   0.24860   0.24974
 Alpha virt. eigenvalues --    0.25324   0.26057   0.26179   0.26656   0.27204
 Alpha virt. eigenvalues --    0.27308   0.28264   0.29000   0.29292   0.30443
 Alpha virt. eigenvalues --    0.30729   0.31359   0.31651   0.32341   0.33049
 Alpha virt. eigenvalues --    0.33647   0.34623   0.35164   0.35436   0.36018
 Alpha virt. eigenvalues --    0.36690   0.37152   0.38725   0.39077   0.40417
 Alpha virt. eigenvalues --    0.41912   0.42051   0.44548   0.45425   0.49284
 Alpha virt. eigenvalues --    0.51901   0.57840   0.58422   0.59334   0.60131
 Alpha virt. eigenvalues --    0.61276   0.61905   0.62348   0.62959   0.64890
 Alpha virt. eigenvalues --    0.65238   0.66191   0.66442   0.68087   0.69263
 Alpha virt. eigenvalues --    0.70468   0.70941   0.72076   0.72767   0.72815
 Alpha virt. eigenvalues --    0.74123   0.74290   0.75186   0.75463   0.76364
 Alpha virt. eigenvalues --    0.77540   0.78034   0.78804   0.79547   0.80959
 Alpha virt. eigenvalues --    0.82376   0.82824   0.84021   0.85102   0.85640
 Alpha virt. eigenvalues --    0.86533   0.87531   0.88795   0.89598   0.90246
 Alpha virt. eigenvalues --    0.91582   0.92532   0.93344   0.93627   0.94461
 Alpha virt. eigenvalues --    0.94876   0.95748   0.95891   0.96630   0.96854
 Alpha virt. eigenvalues --    0.97280   0.97582   0.98004   0.98670   0.98809
 Alpha virt. eigenvalues --    0.99090   1.00084   1.00593   1.01390   1.02789
 Alpha virt. eigenvalues --    1.03219   1.03466   1.04031   1.04151   1.04624
 Alpha virt. eigenvalues --    1.05449   1.06010   1.06803   1.07147   1.07711
 Alpha virt. eigenvalues --    1.08415   1.10094   1.10455   1.12103   1.12596
 Alpha virt. eigenvalues --    1.14194   1.15941   1.16697   1.19510   1.20303
 Alpha virt. eigenvalues --    1.21553   1.23300   1.25602   1.26917   1.27659
 Alpha virt. eigenvalues --    1.29822   1.31434   1.34105   1.35460   1.38072
 Alpha virt. eigenvalues --    1.39847   1.42939   1.43869   1.48531   1.49527
 Alpha virt. eigenvalues --    1.50728   1.52405   1.54517   1.54954   1.57635
 Alpha virt. eigenvalues --    1.61335   1.61520   1.64598   1.65478   1.67476
 Alpha virt. eigenvalues --    1.70078   1.70853   1.72565   1.74537   1.76265
 Alpha virt. eigenvalues --    1.77427   1.78271   1.80521   1.81498   1.82212
 Alpha virt. eigenvalues --    1.84344   1.85084   1.86939   1.87456   1.88301
 Alpha virt. eigenvalues --    1.89435   1.91535   1.93236   1.94145   1.95124
 Alpha virt. eigenvalues --    1.95715   1.95751   1.96697   1.98463   1.98646
 Alpha virt. eigenvalues --    2.00195   2.00773   2.01654   2.01913   2.03488
 Alpha virt. eigenvalues --    2.05154   2.05418   2.06443   2.07009   2.08267
 Alpha virt. eigenvalues --    2.08751   2.09725   2.10675   2.10940   2.12311
 Alpha virt. eigenvalues --    2.12679   2.14336   2.15451   2.16067   2.18283
 Alpha virt. eigenvalues --    2.19017   2.19890   2.21841   2.22231   2.24461
 Alpha virt. eigenvalues --    2.26105   2.27696   2.29878   2.30053   2.31797
 Alpha virt. eigenvalues --    2.34154   2.35146   2.36257   2.38217   2.39881
 Alpha virt. eigenvalues --    2.40598   2.42050   2.42148   2.43877   2.45919
 Alpha virt. eigenvalues --    2.48227   2.48932   2.50409   2.50953   2.52132
 Alpha virt. eigenvalues --    2.53791   2.55872   2.58708   2.61094   2.62161
 Alpha virt. eigenvalues --    2.63321   2.64710   2.65191   2.65737   2.67772
 Alpha virt. eigenvalues --    2.68980   2.70844   2.71474   2.75403   2.76243
 Alpha virt. eigenvalues --    2.78998   2.79928   2.80549   2.82898   2.84448
 Alpha virt. eigenvalues --    2.86467   2.89784   2.93407   2.96985   2.98584
 Alpha virt. eigenvalues --    3.00672   3.02579   3.07621   3.07998   3.09265
 Alpha virt. eigenvalues --    3.20251   3.25893   4.00023   4.09229   4.23742
 Alpha virt. eigenvalues --    4.26061   4.30547   4.33797   4.35722   4.38655
 Alpha virt. eigenvalues --    4.41261   4.42499   4.47570   4.53994   4.56049
 Alpha virt. eigenvalues --    4.65044   4.66528   4.73786   4.76666   4.81073
 Alpha virt. eigenvalues --    4.85571   4.89760
          Condensed to atoms (all electrons):
               1          2          3          4          5          6
     1  C    4.433798   0.545562   0.350302   0.002876  -0.021476  -0.026551
     2  O    0.545562   8.085319  -0.064121   0.004780   0.000411   0.001488
     3  C    0.350302  -0.064121   5.321131   0.518814  -0.041127   0.000060
     4  C    0.002876   0.004780   0.518814   4.857291   0.377741  -0.039925
     5  C   -0.021476   0.000411  -0.041127   0.377741   5.083365   0.347864
     6  C   -0.026551   0.001488   0.000060  -0.039925   0.347864   5.144955
     7  C    0.342754  -0.078622  -0.134504   0.000554  -0.036222   0.296473
     8  C    0.003499  -0.000092  -0.037757   0.358100  -0.064027   0.004796
     9  C   -0.000120   0.000000   0.002619  -0.032660  -0.011065  -0.000266
    10  C   -0.000014   0.000000   0.000465  -0.013753  -0.038797   0.004047
    11  C   -0.000138   0.000002   0.003189  -0.030577   0.365320  -0.047431
    12  C   -0.000000   0.000000   0.000002   0.000273   0.003694  -0.000130
    13  C   -0.000000   0.000000   0.000000   0.000004   0.000044  -0.000003
    14  C    0.000000  -0.000000   0.000001  -0.000083   0.003548   0.000244
    15  C   -0.000002  -0.000000  -0.000115   0.004326  -0.041774  -0.004421
    16  C   -0.000000  -0.000000   0.000000  -0.000001  -0.000102   0.000001
    17  C    0.000000  -0.000000  -0.000000   0.000000   0.000001  -0.000000
    18  C    0.000000   0.000000  -0.000000  -0.000000   0.000004   0.000000
    19  C   -0.000000   0.000000   0.000000   0.000000   0.000030   0.000001
    20  O   -0.000000   0.000000   0.000000   0.000000  -0.000000   0.000000
    21  H   -0.028460   0.000808   0.360370  -0.043983   0.004394  -0.000288
    22  H    0.000646  -0.000002  -0.003695  -0.044977   0.366761  -0.036659
    23  H   -0.002773   0.000183   0.003421  -0.004301  -0.042165   0.384751
    24  H    0.003655  -0.000074  -0.000433   0.004434  -0.029041   0.377622
    25  H   -0.032071   0.000437   0.004081  -0.003309  -0.002698  -0.041521
    26  H   -0.027128   0.004463   0.006066  -0.000242   0.003862  -0.027633
    27  H    0.000213  -0.000001  -0.002652  -0.038465   0.003835  -0.000137
    28  H   -0.000126   0.000001  -0.007525  -0.037734   0.000870   0.000078
    29  H   -0.000000  -0.000000  -0.000161  -0.002852   0.000538   0.000007
    30  H    0.000001  -0.000000  -0.000079   0.004001   0.000027   0.000010
    31  H    0.000003  -0.000000  -0.000219  -0.004044  -0.001895   0.000170
    32  H    0.000032  -0.000000   0.000037  -0.003680  -0.041632  -0.004392
    33  H    0.000000   0.000000  -0.000001  -0.000068   0.000172   0.000001
    34  H    0.000000   0.000000  -0.000000   0.000003   0.000047  -0.000026
    35  H   -0.000000  -0.000000  -0.000000   0.000001  -0.000102   0.000003
    36  H    0.000001  -0.000000  -0.000007   0.000184  -0.003024  -0.002210
    37  H   -0.000010  -0.000000   0.000014  -0.000155  -0.006532   0.002996
    38  H    0.000000  -0.000000   0.000000  -0.000001   0.000001  -0.000000
    39  H    0.000000   0.000000  -0.000000  -0.000001   0.000001   0.000000
    40  H    0.000000   0.000000   0.000000   0.000000  -0.000000   0.000000
    41  H    0.000000  -0.000000   0.000000  -0.000000  -0.000000   0.000000
    42  H    0.000000  -0.000000  -0.000000   0.000000   0.000000  -0.000000
    43  H   -0.000000   0.000000   0.000000   0.000000  -0.000003  -0.000000
    44  H    0.000000  -0.000000  -0.000000  -0.000000  -0.000003   0.000000
    45  H    0.000000  -0.000000  -0.000000  -0.000001   0.000068   0.000002
    46  H   -0.000000  -0.000000  -0.000000   0.000000  -0.000000   0.000000
               7          8          9         10         11         12
     1  C    0.342754   0.003499  -0.000120  -0.000014  -0.000138  -0.000000
     2  O   -0.078622  -0.000092   0.000000   0.000000   0.000002   0.000000
     3  C   -0.134504  -0.037757   0.002619   0.000465   0.003189   0.000002
     4  C    0.000554   0.358100  -0.032660  -0.013753  -0.030577   0.000273
     5  C   -0.036222  -0.064027  -0.011065  -0.038797   0.365320   0.003694
     6  C    0.296473   0.004796  -0.000266   0.004047  -0.047431  -0.000130
     7  C    5.347090  -0.000179   0.000033  -0.000086   0.004543   0.000002
     8  C   -0.000179   5.154348   0.337069  -0.042959  -0.015072   0.003875
     9  C    0.000033   0.337069   5.098362   0.368844  -0.043205  -0.042116
    10  C   -0.000086  -0.042959   0.368844   5.016441   0.370949   0.366784
    11  C    0.004543  -0.015072  -0.043205   0.370949   5.042001  -0.037636
    12  C    0.000002   0.003875  -0.042116   0.366784  -0.037636   5.104094
    13  C    0.000000  -0.000129   0.004306  -0.026848  -0.011850   0.345145
    14  C   -0.000003  -0.000011  -0.000059  -0.011414  -0.037852  -0.048902
    15  C    0.000223   0.000321   0.004247  -0.038955   0.364156  -0.016837
    16  C   -0.000000   0.000044  -0.003545  -0.033074   0.004167   0.360068
    17  C    0.000000  -0.000000   0.000116   0.003875  -0.000157  -0.059755
    18  C   -0.000000   0.000001  -0.000113   0.004119   0.000132  -0.062248
    19  C    0.000000  -0.000001   0.000103  -0.005181  -0.002260  -0.055927
    20  O    0.000000  -0.000000   0.000000  -0.000064  -0.000002   0.003778
    21  H    0.005939  -0.007716   0.000193  -0.000001  -0.000086  -0.000000
    22  H   -0.005084   0.001288  -0.000533  -0.006204  -0.044098   0.000032
    23  H   -0.041892  -0.000021  -0.000033   0.000120  -0.002591  -0.000001
    24  H   -0.031568  -0.000106  -0.000004  -0.000070  -0.008289  -0.000001
    25  H    0.365509  -0.000074  -0.000001   0.000001   0.000096   0.000000
    26  H    0.365801   0.000008  -0.000000   0.000001  -0.000063  -0.000000
    27  H    0.000011   0.379043  -0.031448   0.004136  -0.000154  -0.000107
    28  H   -0.000060   0.377533  -0.039017  -0.004306  -0.000621  -0.000027
    29  H   -0.000003  -0.035317   0.379779  -0.040248  -0.008396  -0.004430
    30  H   -0.000000  -0.031981   0.378957  -0.032091   0.004844  -0.006620
    31  H   -0.000011   0.000648  -0.049124   0.380321  -0.049671  -0.042910
    32  H   -0.000130   0.000069  -0.007003  -0.047804   0.375667  -0.004103
    33  H   -0.000000   0.000097  -0.006185  -0.045776  -0.005957   0.380376
    34  H   -0.000000   0.000000  -0.000035  -0.000317  -0.003591  -0.006562
    35  H   -0.000000  -0.000000   0.000010  -0.000114   0.004031   0.006449
    36  H   -0.000080  -0.000009  -0.000028  -0.003126  -0.044922  -0.000376
    37  H    0.000092  -0.000009  -0.000115   0.004075  -0.029142   0.000110
    38  H    0.000000  -0.000008   0.001234  -0.001283  -0.000088  -0.026125
    39  H   -0.000000  -0.000034  -0.000654  -0.004257   0.000078  -0.039297
    40  H   -0.000000  -0.000000  -0.000004  -0.000058   0.000003   0.001790
    41  H   -0.000000  -0.000000   0.000002  -0.000128   0.000002   0.003132
    42  H   -0.000000  -0.000000   0.000009  -0.000217  -0.000017  -0.001832
    43  H    0.000000  -0.000000  -0.000026  -0.000184   0.000049  -0.004822
    44  H    0.000000  -0.000000   0.000000  -0.000007   0.000050   0.005711
    45  H   -0.000000   0.000008  -0.000026   0.001610  -0.000431  -0.005225
    46  H    0.000000   0.000000   0.000000  -0.000003   0.000001   0.000298
              13         14         15         16         17         18
     1  C   -0.000000   0.000000  -0.000002  -0.000000   0.000000   0.000000
     2  O    0.000000  -0.000000  -0.000000  -0.000000  -0.000000   0.000000
     3  C    0.000000   0.000001  -0.000115   0.000000  -0.000000  -0.000000
     4  C    0.000004  -0.000083   0.004326  -0.000001   0.000000  -0.000000
     5  C    0.000044   0.003548  -0.041774  -0.000102   0.000001   0.000004
     6  C   -0.000003   0.000244  -0.004421   0.000001  -0.000000   0.000000
     7  C    0.000000  -0.000003   0.000223  -0.000000   0.000000  -0.000000
     8  C   -0.000129  -0.000011   0.000321   0.000044  -0.000000   0.000001
     9  C    0.004306  -0.000059   0.004247  -0.003545   0.000116  -0.000113
    10  C   -0.026848  -0.011414  -0.038955  -0.033074   0.003875   0.004119
    11  C   -0.011850  -0.037852   0.364156   0.004167  -0.000157   0.000132
    12  C    0.345145  -0.048902  -0.016837   0.360068  -0.059755  -0.062248
    13  C    5.119554   0.372024  -0.037043  -0.057825  -0.063026   0.361143
    14  C    0.372024   5.127651   0.352722   0.005823   0.006591  -0.043440
    15  C   -0.037043   0.352722   5.095509   0.000224  -0.000224   0.004197
    16  C   -0.057825   0.005823   0.000224   5.113506   0.337101  -0.061935
    17  C   -0.063026   0.006591  -0.000224   0.337101   5.162297   0.362431
    18  C    0.361143  -0.043440   0.004197  -0.061935   0.362431   4.814437
    19  C    0.344475  -0.069529  -0.003820  -0.003299  -0.010564  -0.056227
    20  O   -0.050906  -0.000250   0.000023   0.002207  -0.044744   0.249025
    21  H   -0.000000  -0.000000   0.000002  -0.000000  -0.000000  -0.000000
    22  H   -0.000034   0.000025  -0.006687  -0.000002   0.000000  -0.000000
    23  H   -0.000001  -0.000052  -0.001985   0.000000   0.000000  -0.000000
    24  H   -0.000003   0.000085   0.004223  -0.000000   0.000000   0.000000
    25  H   -0.000000  -0.000000  -0.000035   0.000000   0.000000  -0.000000
    26  H   -0.000000  -0.000000  -0.000000   0.000000  -0.000000  -0.000000
    27  H    0.000001  -0.000000   0.000008  -0.000001  -0.000000  -0.000000
    28  H    0.000003   0.000000  -0.000002  -0.000010  -0.000000  -0.000000
    29  H   -0.000014  -0.000007   0.000103  -0.000479  -0.000019  -0.000003
    30  H    0.000022  -0.000004  -0.000126   0.003796   0.000000  -0.000007
    31  H   -0.008836   0.000369  -0.002246  -0.004189  -0.000026   0.000074
    32  H   -0.001071  -0.000338  -0.045851  -0.000064   0.000004  -0.000057
    33  H   -0.054788  -0.006455  -0.000961  -0.044576  -0.001830  -0.002444
    34  H   -0.038033   0.375921  -0.036417   0.000026   0.000078  -0.005518
    35  H   -0.035985   0.369541  -0.032732  -0.000215  -0.000016  -0.003349
    36  H   -0.007042  -0.035327   0.380433  -0.000016   0.000002  -0.000043
    37  H    0.004541  -0.033639   0.379790   0.000008   0.000003  -0.000074
    38  H    0.005035  -0.000140  -0.000004   0.378305  -0.027400   0.002301
    39  H   -0.004480  -0.000010  -0.000018   0.383815  -0.032597   0.002243
    40  H    0.004484  -0.000129   0.000003  -0.030183   0.379023  -0.027134
    41  H   -0.004513  -0.000121   0.000004  -0.026513   0.373358  -0.031882
    42  H   -0.070715  -0.010117   0.000091   0.003040  -0.050174   0.387710
    43  H   -0.029096   0.004910   0.000015   0.002091   0.003623  -0.005364
    44  H   -0.030531  -0.004977  -0.000276  -0.000225  -0.000005  -0.007610
    45  H   -0.031581  -0.005994   0.001863  -0.000023  -0.000275   0.005050
    46  H   -0.005045   0.002747  -0.000069  -0.000322   0.006994  -0.026434
              19         20         21         22         23         24
     1  C   -0.000000  -0.000000  -0.028460   0.000646  -0.002773   0.003655
     2  O    0.000000   0.000000   0.000808  -0.000002   0.000183  -0.000074
     3  C    0.000000   0.000000   0.360370  -0.003695   0.003421  -0.000433
     4  C    0.000000   0.000000  -0.043983  -0.044977  -0.004301   0.004434
     5  C    0.000030  -0.000000   0.004394   0.366761  -0.042165  -0.029041
     6  C    0.000001   0.000000  -0.000288  -0.036659   0.384751   0.377622
     7  C    0.000000   0.000000   0.005939  -0.005084  -0.041892  -0.031568
     8  C   -0.000001  -0.000000  -0.007716   0.001288  -0.000021  -0.000106
     9  C    0.000103   0.000000   0.000193  -0.000533  -0.000033  -0.000004
    10  C   -0.005181  -0.000064  -0.000001  -0.006204   0.000120  -0.000070
    11  C   -0.002260  -0.000002  -0.000086  -0.044098  -0.002591  -0.008289
    12  C   -0.055927   0.003778  -0.000000   0.000032  -0.000001  -0.000001
    13  C    0.344475  -0.050906  -0.000000  -0.000034  -0.000001  -0.000003
    14  C   -0.069529  -0.000250  -0.000000   0.000025  -0.000052   0.000085
    15  C   -0.003820   0.000023   0.000002  -0.006687  -0.001985   0.004223
    16  C   -0.003299   0.002207  -0.000000  -0.000002   0.000000  -0.000000
    17  C   -0.010564  -0.044744  -0.000000   0.000000   0.000000   0.000000
    18  C   -0.056227   0.249025  -0.000000  -0.000000  -0.000000   0.000000
    19  C    5.209369   0.001903   0.000000  -0.000069  -0.000000  -0.000001
    20  O    0.001903   8.276517   0.000000  -0.000000  -0.000000   0.000000
    21  H    0.000000   0.000000   0.531338  -0.000194  -0.000067   0.000012
    22  H   -0.000069  -0.000000  -0.000194   0.593285   0.005528  -0.003992
    23  H   -0.000000  -0.000000  -0.000067   0.005528   0.556531  -0.031878
    24  H   -0.000001   0.000000   0.000012  -0.003992  -0.031878   0.552391
    25  H   -0.000000  -0.000000  -0.000169   0.005412   0.005201  -0.004793
    26  H    0.000000  -0.000000  -0.000107  -0.000147  -0.002299  -0.002984
    27  H    0.000000   0.000000   0.004865  -0.000087   0.000001   0.000001
    28  H   -0.000003   0.000000   0.000435   0.001197   0.000001   0.000006
    29  H   -0.000001  -0.000000  -0.000003   0.000092  -0.000004   0.000001
    30  H   -0.000006  -0.000000  -0.000007  -0.000014   0.000000   0.000000
    31  H    0.002822  -0.000001  -0.000002   0.006059   0.000007   0.000000
    32  H    0.000052   0.000000  -0.000014   0.006114   0.004787   0.000064
    33  H    0.006477   0.000047  -0.000000   0.000004  -0.000001  -0.000000
    34  H    0.006031  -0.000081  -0.000000   0.000004   0.000003   0.000008
    35  H   -0.005930   0.001427   0.000000  -0.000002   0.000000   0.000003
    36  H    0.002281  -0.000002  -0.000000   0.005519   0.000210   0.001498
    37  H    0.000073   0.000000   0.000000   0.000027   0.001110  -0.000025
    38  H    0.000104  -0.000031  -0.000000   0.000000   0.000000  -0.000000
    39  H    0.001869  -0.000018   0.000000  -0.000002  -0.000000  -0.000000
    40  H    0.000143   0.001746   0.000000  -0.000000  -0.000000  -0.000000
    41  H    0.001917   0.002659   0.000000  -0.000000   0.000000   0.000000
    42  H    0.007711  -0.039866   0.000000  -0.000000  -0.000000   0.000000
    43  H    0.379493  -0.000252   0.000000   0.000001   0.000000   0.000000
    44  H    0.373566   0.008872   0.000000   0.000001   0.000000   0.000000
    45  H    0.374829   0.000312  -0.000000   0.000145   0.000000  -0.000004
    46  H   -0.001131   0.241645   0.000000  -0.000000   0.000000   0.000000
              25         26         27         28         29         30
     1  C   -0.032071  -0.027128   0.000213  -0.000126  -0.000000   0.000001
     2  O    0.000437   0.004463  -0.000001   0.000001  -0.000000  -0.000000
     3  C    0.004081   0.006066  -0.002652  -0.007525  -0.000161  -0.000079
     4  C   -0.003309  -0.000242  -0.038465  -0.037734  -0.002852   0.004001
     5  C   -0.002698   0.003862   0.003835   0.000870   0.000538   0.000027
     6  C   -0.041521  -0.027633  -0.000137   0.000078   0.000007   0.000010
     7  C    0.365509   0.365801   0.000011  -0.000060  -0.000003  -0.000000
     8  C   -0.000074   0.000008   0.379043   0.377533  -0.035317  -0.031981
     9  C   -0.000001  -0.000000  -0.031448  -0.039017   0.379779   0.378957
    10  C    0.000001   0.000001   0.004136  -0.004306  -0.040248  -0.032091
    11  C    0.000096  -0.000063  -0.000154  -0.000621  -0.008396   0.004844
    12  C    0.000000  -0.000000  -0.000107  -0.000027  -0.004430  -0.006620
    13  C   -0.000000  -0.000000   0.000001   0.000003  -0.000014   0.000022
    14  C   -0.000000  -0.000000  -0.000000   0.000000  -0.000007  -0.000004
    15  C   -0.000035  -0.000000   0.000008  -0.000002   0.000103  -0.000126
    16  C    0.000000   0.000000  -0.000001  -0.000010  -0.000479   0.003796
    17  C    0.000000  -0.000000  -0.000000  -0.000000  -0.000019   0.000000
    18  C   -0.000000  -0.000000  -0.000000  -0.000000  -0.000003  -0.000007
    19  C   -0.000000   0.000000   0.000000  -0.000003  -0.000001  -0.000006
    20  O   -0.000000  -0.000000   0.000000   0.000000  -0.000000  -0.000000
    21  H   -0.000169  -0.000107   0.004865   0.000435  -0.000003  -0.000007
    22  H    0.005412  -0.000147  -0.000087   0.001197   0.000092  -0.000014
    23  H    0.005201  -0.002299   0.000001   0.000001  -0.000004   0.000000
    24  H   -0.004793  -0.002984   0.000001   0.000006   0.000001   0.000000
    25  H    0.547380  -0.021228   0.000000   0.000006  -0.000000  -0.000000
    26  H   -0.021228   0.508492   0.000000  -0.000001  -0.000000   0.000000
    27  H    0.000000   0.000000   0.532414  -0.027870  -0.003854  -0.001205
    28  H    0.000006  -0.000001  -0.027870   0.552162   0.004884  -0.005631
    29  H   -0.000000  -0.000000  -0.003854   0.004884   0.567244  -0.031654
    30  H   -0.000000   0.000000  -0.001205  -0.005631  -0.031654   0.553440
    31  H   -0.000001   0.000000   0.000027   0.003965   0.005678  -0.002783
    32  H    0.000010  -0.000001  -0.000052   0.000102   0.006468   0.000085
    33  H   -0.000000   0.000000   0.000003   0.000003   0.004825  -0.000064
    34  H    0.000000   0.000000  -0.000000  -0.000000  -0.000008   0.000001
    35  H    0.000000   0.000000   0.000000  -0.000000   0.000000  -0.000000
    36  H    0.000008   0.000001  -0.000000  -0.000001  -0.000000   0.000004
    37  H    0.000008   0.000001  -0.000000   0.000000  -0.000006   0.000002
    38  H    0.000000  -0.000000   0.000001   0.000003   0.000231   0.000552
    39  H   -0.000000   0.000000   0.000001   0.000000   0.000073   0.000620
    40  H    0.000000   0.000000   0.000000   0.000000  -0.000000   0.000002
    41  H   -0.000000   0.000000   0.000000   0.000000  -0.000000   0.000001
    42  H   -0.000000   0.000000   0.000000  -0.000000  -0.000003  -0.000000
    43  H    0.000000   0.000000  -0.000000   0.000000   0.000000  -0.000000
    44  H    0.000000  -0.000000   0.000000   0.000000   0.000000  -0.000000
    45  H    0.000000   0.000000  -0.000000  -0.000002  -0.000001   0.000001
    46  H   -0.000000   0.000000   0.000000   0.000000   0.000000   0.000000
              31         32         33         34         35         36
     1  C    0.000003   0.000032   0.000000   0.000000  -0.000000   0.000001
     2  O   -0.000000  -0.000000   0.000000   0.000000  -0.000000  -0.000000
     3  C   -0.000219   0.000037  -0.000001  -0.000000  -0.000000  -0.000007
     4  C   -0.004044  -0.003680  -0.000068   0.000003   0.000001   0.000184
     5  C   -0.001895  -0.041632   0.000172   0.000047  -0.000102  -0.003024
     6  C    0.000170  -0.004392   0.000001  -0.000026   0.000003  -0.002210
     7  C   -0.000011  -0.000130  -0.000000  -0.000000  -0.000000  -0.000080
     8  C    0.000648   0.000069   0.000097   0.000000  -0.000000  -0.000009
     9  C   -0.049124  -0.007003  -0.006185  -0.000035   0.000010  -0.000028
    10  C    0.380321  -0.047804  -0.045776  -0.000317  -0.000114  -0.003126
    11  C   -0.049671   0.375667  -0.005957  -0.003591   0.004031  -0.044922
    12  C   -0.042910  -0.004103   0.380376  -0.006562   0.006449  -0.000376
    13  C   -0.008836  -0.001071  -0.054788  -0.038033  -0.035985  -0.007042
    14  C    0.000369  -0.000338  -0.006455   0.375921   0.369541  -0.035327
    15  C   -0.002246  -0.045851  -0.000961  -0.036417  -0.032732   0.380433
    16  C   -0.004189  -0.000064  -0.044576   0.000026  -0.000215  -0.000016
    17  C   -0.000026   0.000004  -0.001830   0.000078  -0.000016   0.000002
    18  C    0.000074  -0.000057  -0.002444  -0.005518  -0.003349  -0.000043
    19  C    0.002822   0.000052   0.006477   0.006031  -0.005930   0.002281
    20  O   -0.000001   0.000000   0.000047  -0.000081   0.001427  -0.000002
    21  H   -0.000002  -0.000014  -0.000000  -0.000000   0.000000  -0.000000
    22  H    0.006059   0.006114   0.000004   0.000004  -0.000002   0.005519
    23  H    0.000007   0.004787  -0.000001   0.000003   0.000000   0.000210
    24  H    0.000000   0.000064  -0.000000   0.000008   0.000003   0.001498
    25  H   -0.000001   0.000010  -0.000000   0.000000   0.000000   0.000008
    26  H    0.000000  -0.000001   0.000000   0.000000   0.000000   0.000001
    27  H    0.000027  -0.000052   0.000003  -0.000000   0.000000  -0.000000
    28  H    0.003965   0.000102   0.000003  -0.000000  -0.000000  -0.000001
    29  H    0.005678   0.006468   0.004825  -0.000008   0.000000  -0.000000
    30  H   -0.002783   0.000085  -0.000064   0.000001  -0.000000   0.000004
    31  H    0.610094   0.006078   0.006225   0.000039  -0.000008   0.001461
    32  H    0.006078   0.608526   0.004757   0.002904  -0.000087   0.005584
    33  H    0.006225   0.004757   0.624749   0.005348   0.000031   0.000077
    34  H    0.000039   0.002904   0.005348   0.578346  -0.032706   0.004931
    35  H   -0.000008  -0.000087   0.000031  -0.032706   0.587700  -0.004604
    36  H    0.001461   0.005584   0.000077   0.004931  -0.004604   0.577438
    37  H   -0.000084  -0.005878  -0.000096  -0.004873  -0.001631  -0.033267
    38  H   -0.000133  -0.000001  -0.006609  -0.000002   0.000003   0.000000
    39  H    0.004354   0.000004   0.005331  -0.000004   0.000004  -0.000003
    40  H    0.000001  -0.000000   0.000288  -0.000012   0.000000  -0.000000
    41  H   -0.000016  -0.000000  -0.000060   0.000001   0.000001  -0.000000
    42  H   -0.000013  -0.000007   0.005263   0.006487   0.000075  -0.000002
    43  H    0.000220   0.000001  -0.000038  -0.000136  -0.000024  -0.000040
    44  H   -0.000028   0.000002  -0.000110   0.000019   0.004644   0.000273
    45  H    0.002452  -0.000009  -0.000023  -0.000027  -0.000178   0.002218
    46  H    0.000000   0.000000  -0.000003  -0.000036   0.002538   0.000000
              37         38         39         40         41         42
     1  C   -0.000010   0.000000   0.000000   0.000000   0.000000   0.000000
     2  O   -0.000000  -0.000000   0.000000   0.000000  -0.000000  -0.000000
     3  C    0.000014   0.000000  -0.000000   0.000000   0.000000  -0.000000
     4  C   -0.000155  -0.000001  -0.000001   0.000000  -0.000000   0.000000
     5  C   -0.006532   0.000001   0.000001  -0.000000  -0.000000   0.000000
     6  C    0.002996  -0.000000   0.000000   0.000000   0.000000  -0.000000
     7  C    0.000092   0.000000  -0.000000  -0.000000  -0.000000  -0.000000
     8  C   -0.000009  -0.000008  -0.000034  -0.000000  -0.000000  -0.000000
     9  C   -0.000115   0.001234  -0.000654  -0.000004   0.000002   0.000009
    10  C    0.004075  -0.001283  -0.004257  -0.000058  -0.000128  -0.000217
    11  C   -0.029142  -0.000088   0.000078   0.000003   0.000002  -0.000017
    12  C    0.000110  -0.026125  -0.039297   0.001790   0.003132  -0.001832
    13  C    0.004541   0.005035  -0.004480   0.004484  -0.004513  -0.070715
    14  C   -0.033639  -0.000140  -0.000010  -0.000129  -0.000121  -0.010117
    15  C    0.379790  -0.000004  -0.000018   0.000003   0.000004   0.000091
    16  C    0.000008   0.378305   0.383815  -0.030183  -0.026513   0.003040
    17  C    0.000003  -0.027400  -0.032597   0.379023   0.373358  -0.050174
    18  C   -0.000074   0.002301   0.002243  -0.027134  -0.031882   0.387710
    19  C    0.000073   0.000104   0.001869   0.000143   0.001917   0.007711
    20  O    0.000000  -0.000031  -0.000018   0.001746   0.002659  -0.039866
    21  H    0.000000  -0.000000   0.000000   0.000000   0.000000   0.000000
    22  H    0.000027   0.000000  -0.000002  -0.000000  -0.000000  -0.000000
    23  H    0.001110   0.000000  -0.000000  -0.000000   0.000000  -0.000000
    24  H   -0.000025  -0.000000  -0.000000  -0.000000   0.000000   0.000000
    25  H    0.000008   0.000000  -0.000000   0.000000  -0.000000  -0.000000
    26  H    0.000001  -0.000000   0.000000   0.000000   0.000000   0.000000
    27  H   -0.000000   0.000001   0.000001   0.000000   0.000000   0.000000
    28  H    0.000000   0.000003   0.000000   0.000000   0.000000  -0.000000
    29  H   -0.000006   0.000231   0.000073  -0.000000  -0.000000  -0.000003
    30  H    0.000002   0.000552   0.000620   0.000002   0.000001  -0.000000
    31  H   -0.000084  -0.000133   0.004354   0.000001  -0.000016  -0.000013
    32  H   -0.005878  -0.000001   0.000004  -0.000000  -0.000000  -0.000007
    33  H   -0.000096  -0.006609   0.005331   0.000288  -0.000060   0.005263
    34  H   -0.004873  -0.000002  -0.000004  -0.000012   0.000001   0.006487
    35  H   -0.001631   0.000003   0.000004   0.000000   0.000001   0.000075
    36  H   -0.033267   0.000000  -0.000003  -0.000000  -0.000000  -0.000002
    37  H    0.556614  -0.000000  -0.000000  -0.000000  -0.000000  -0.000004
    38  H   -0.000000   0.549576  -0.034556  -0.006187   0.002579  -0.000066
    39  H   -0.000000  -0.034556   0.565424   0.003336  -0.009046  -0.000163
    40  H   -0.000000  -0.006187   0.003336   0.538809  -0.028290  -0.007186
    41  H   -0.000000   0.002579  -0.009046  -0.028290   0.530428   0.005228
    42  H   -0.000004  -0.000066  -0.000163  -0.007186   0.005228   0.638850
    43  H   -0.000000   0.000011   0.001089  -0.000009   0.000736  -0.000012
    44  H   -0.000026  -0.000001  -0.000004  -0.000008   0.000173   0.000227
    45  H    0.000033  -0.000010   0.000037  -0.000001   0.000033  -0.000077
    46  H    0.000002   0.000004   0.000004  -0.000215  -0.000072  -0.003084
              43         44         45         46
     1  C   -0.000000   0.000000   0.000000  -0.000000
     2  O    0.000000  -0.000000  -0.000000  -0.000000
     3  C    0.000000  -0.000000  -0.000000  -0.000000
     4  C    0.000000  -0.000000  -0.000001   0.000000
     5  C   -0.000003  -0.000003   0.000068  -0.000000
     6  C   -0.000000   0.000000   0.000002   0.000000
     7  C    0.000000   0.000000  -0.000000   0.000000
     8  C   -0.000000  -0.000000   0.000008   0.000000
     9  C   -0.000026   0.000000  -0.000026   0.000000
    10  C   -0.000184  -0.000007   0.001610  -0.000003
    11  C    0.000049   0.000050  -0.000431   0.000001
    12  C   -0.004822   0.005711  -0.005225   0.000298
    13  C   -0.029096  -0.030531  -0.031581  -0.005045
    14  C    0.004910  -0.004977  -0.005994   0.002747
    15  C    0.000015  -0.000276   0.001863  -0.000069
    16  C    0.002091  -0.000225  -0.000023  -0.000322
    17  C    0.003623  -0.000005  -0.000275   0.006994
    18  C   -0.005364  -0.007610   0.005050  -0.026434
    19  C    0.379493   0.373566   0.374829  -0.001131
    20  O   -0.000252   0.008872   0.000312   0.241645
    21  H    0.000000   0.000000  -0.000000   0.000000
    22  H    0.000001   0.000001   0.000145  -0.000000
    23  H    0.000000   0.000000   0.000000   0.000000
    24  H    0.000000   0.000000  -0.000004   0.000000
    25  H    0.000000   0.000000   0.000000  -0.000000
    26  H    0.000000  -0.000000   0.000000   0.000000
    27  H   -0.000000   0.000000  -0.000000   0.000000
    28  H    0.000000   0.000000  -0.000002   0.000000
    29  H    0.000000   0.000000  -0.000001   0.000000
    30  H   -0.000000  -0.000000   0.000001   0.000000
    31  H    0.000220  -0.000028   0.002452   0.000000
    32  H    0.000001   0.000002  -0.000009   0.000000
    33  H   -0.000038  -0.000110  -0.000023  -0.000003
    34  H   -0.000136   0.000019  -0.000027  -0.000036
    35  H   -0.000024   0.004644  -0.000178   0.002538
    36  H   -0.000040   0.000273   0.002218   0.000000
    37  H   -0.000000  -0.000026   0.000033   0.000002
    38  H    0.000011  -0.000001  -0.000010   0.000004
    39  H    0.001089  -0.000004   0.000037   0.000004
    40  H   -0.000009  -0.000008  -0.000001  -0.000215
    41  H    0.000736   0.000173   0.000033  -0.000072
    42  H   -0.000012   0.000227  -0.000077  -0.003084
    43  H    0.532062  -0.025185  -0.029091   0.000070
    44  H   -0.025185   0.539971  -0.028486   0.001032
    45  H   -0.029091  -0.028486   0.555155  -0.000079
    46  H    0.000070   0.001032  -0.000079   0.374653
 Mulliken charges:
               1
     1  C    0.455528
     2  O   -0.500542
     3  C   -0.278175
     4  C    0.167431
     5  C   -0.180915
     6  C   -0.333976
     7  C   -0.400579
     8  C   -0.385248
     9  C   -0.308499
    10  C   -0.128451
    11  C   -0.114982
    12  C   -0.119623
    13  C    0.008618
    14  C   -0.313348
    15  C   -0.321884
    16  C   -0.327623
    17  C   -0.344690
    18  C    0.141016
    19  C   -0.499303
    20  O   -0.653946
    21  H    0.172741
    22  H    0.160345
    23  H    0.168211
    24  H    0.169262
    25  H    0.177751
    26  H    0.193138
    27  H    0.181473
    28  H    0.181684
    29  H    0.157541
    30  H    0.165906
    31  H    0.135175
    32  H    0.140827
    33  H    0.131970
    34  H    0.148189
    35  H    0.141219
    36  H    0.152007
    37  H    0.166068
    38  H    0.162703
    39  H    0.156860
    40  H    0.169788
    41  H    0.180387
    42  H    0.128862
    43  H    0.169910
    44  H    0.162939
    45  H    0.157727
    46  H    0.406507
 Sum of Mulliken charges =  -0.00000
 Mulliken charges with hydrogens summed into heavy atoms:
               1
     1  C    0.455528
     2  O   -0.500542
     3  C   -0.105434
     4  C    0.167431
     5  C   -0.020570
     6  C    0.003497
     7  C   -0.029690
     8  C   -0.022091
     9  C    0.014947
    10  C    0.006724
    11  C    0.025845
    12  C    0.012347
    13  C    0.008618
    14  C   -0.023940
    15  C   -0.003809
    16  C   -0.008060
    17  C    0.005486
    18  C    0.269879
    19  C   -0.008727
    20  O   -0.247439
 Electronic spatial extent (au):  <R**2>=           6882.6067
 Charge=             -0.0000 electrons
 Dipole moment (field-independent basis, Debye):
    X=             -3.3114    Y=             -0.2644    Z=              0.3736  Tot=              3.3428
 Quadrupole moment (field-independent basis, Debye-Ang):
   XX=           -170.3157   YY=           -111.8292   ZZ=           -119.3518
   XY=              1.2104   XZ=              7.4865   YZ=              0.9518
 Traceless Quadrupole moment (field-independent basis, Debye-Ang):
   XX=            -36.4835   YY=             22.0030   ZZ=             14.4804
   XY=              1.2104   XZ=              7.4865   YZ=              0.9518
 Octapole moment (field-independent basis, Debye-Ang**2):
  XXX=           -176.9269  YYY=            -12.6510  ZZZ=             -1.9341  XYY=             -6.7925
  XXY=             -1.2359  XXZ=             15.8295  XZZ=             -3.0702  YZZ=             -1.7463
  YYZ=             -2.7111  XYZ=             -4.7165
 Hexadecapole moment (field-independent basis, Debye-Ang**3):
 XXXX=          -9416.1743 YYYY=          -1404.7761 ZZZZ=           -407.2426 XXXY=             15.0637
 XXXZ=            198.9560 YYYX=             85.9629 YYYZ=              2.3219 ZZZX=              3.6311
 ZZZY=              4.6111 XXYY=          -1287.0933 XXZZ=          -1240.1713 YYZZ=           -310.8798
 XXYZ=             13.2320 YYXZ=              6.8960 ZZXY=             -3.6447
 N-N= 1.663995502507D+03 E-N=-5.304868224813D+03  KE= 8.439349224533D+02

 **********************************************************************

            Electrostatic Properties Using The SCF Density.

 **********************************************************************

       Atomic Center    1 is at   4.689631 -0.171778 -0.033316
       Atomic Center    2 is at   5.881580 -0.139653 -0.350501
       Atomic Center    3 is at   3.846786  1.005695 -0.021938
       Atomic Center    4 is at   2.504136  0.937206  0.132528
       Atomic Center    5 is at   1.780134 -0.389579  0.286482
       Atomic Center    6 is at   2.640055 -1.572516 -0.171333
       Atomic Center    7 is at   4.051554 -1.466559  0.388379
       Atomic Center    8 is at   1.702252  2.194728  0.257931
       Atomic Center    9 is at   0.283737  2.114305 -0.301179
       Atomic Center   10 is at  -0.420955  0.836657  0.150909
       Atomic Center   11 is at   0.384442 -0.374052 -0.369460
       Atomic Center   12 is at  -1.859269  0.753453 -0.335331
       Atomic Center   13 is at  -2.556240 -0.567768  0.044361
       Atomic Center   14 is at  -1.801629 -1.720351 -0.620654
       Atomic Center   15 is at  -0.325845 -1.730047 -0.198245
       Atomic Center   16 is at  -2.856462  1.839825  0.095181
       Atomic Center   17 is at  -4.244469  1.178745 -0.124547
       Atomic Center   18 is at  -3.954901 -0.278579 -0.533138
       Atomic Center   19 is at  -2.661435 -0.806655  1.559623
       Atomic Center   20 is at  -5.000582 -1.133449 -0.091536
       Atomic Center   21 is at   4.345670  1.967380 -0.126345
       Atomic Center   22 is at   1.623157 -0.503855  1.371287
       Atomic Center   23 is at   2.675221 -1.602633 -1.269925
       Atomic Center   24 is at   2.191588 -2.517802  0.153605
       Atomic Center   25 is at   3.988628 -1.433542  1.485091
       Atomic Center   26 is at   4.698053 -2.298854  0.100856
       Atomic Center   27 is at   2.246081  3.032013 -0.192418
       Atomic Center   28 is at   1.655057  2.439095  1.332721
       Atomic Center   29 is at   0.305479  2.134894 -1.399121
       Atomic Center   30 is at  -0.272125  3.001268  0.016433
       Atomic Center   31 is at  -0.415745  0.817591  1.252388
       Atomic Center   32 is at   0.520518 -0.215606 -1.452043
       Atomic Center   33 is at  -1.823892  0.772262 -1.438756
       Atomic Center   34 is at  -1.863665 -1.608069 -1.712866
       Atomic Center   35 is at  -2.255481 -2.691549 -0.371413
       Atomic Center   36 is at  -0.246664 -2.048375  0.852642
       Atomic Center   37 is at   0.198531 -2.491234 -0.788040
       Atomic Center   38 is at  -2.732560  2.766374 -0.470534
       Atomic Center   39 is at  -2.703911  2.103862  1.148138
       Atomic Center   40 is at  -4.830541  1.691382 -0.892474
       Atomic Center   41 is at  -4.846126  1.177533  0.790184
       Atomic Center   42 is at  -3.875542 -0.332728 -1.627928
       Atomic Center   43 is at  -3.205047 -0.003676  2.065376
       Atomic Center   44 is at  -3.210108 -1.738126  1.739816
       Atomic Center   45 is at  -1.682033 -0.891117  2.040486
       Atomic Center   46 is at  -4.741674 -2.038060 -0.308404
 -----------------------------------------------------------------

              Electrostatic Properties (Atomic Units)

 -----------------------------------------------------------------
    Center     Electric         -------- Electric Field --------
               Potential          X             Y             Z
 -----------------------------------------------------------------
    1 Atom    -14.672139      0.001310     -0.002962     -0.001076
    2 Atom    -22.350424      0.103050      0.002352     -0.027896
    3 Atom    -14.746519     -0.009204     -0.000410      0.001068
    4 Atom    -14.709594      0.012347     -0.000049     -0.001527
    5 Atom    -14.717037     -0.002307     -0.003501     -0.001642
    6 Atom    -14.729960     -0.000757     -0.001191     -0.000767
    7 Atom    -14.741196      0.002093     -0.000337     -0.002210
    8 Atom    -14.725655     -0.001424      0.002881     -0.000806
    9 Atom    -14.732736     -0.002561     -0.001900     -0.000358
   10 Atom    -14.730281     -0.001131     -0.000142     -0.001132
   11 Atom    -14.724684     -0.001888      0.001154      0.000232
   12 Atom    -14.736636     -0.000131     -0.001514      0.002736
   13 Atom    -14.732293     -0.001347      0.002172     -0.001982
   14 Atom    -14.734211     -0.001411      0.003796      0.001121
   15 Atom    -14.732506      0.000150     -0.000075      0.000346
   16 Atom    -14.738617      0.001496     -0.000165      0.000321
   17 Atom    -14.743836     -0.002561     -0.001139      0.000882
   18 Atom    -14.692244      0.018576      0.013084     -0.004821
   19 Atom    -14.747856     -0.000902      0.000080     -0.001237
   20 Atom    -22.312871     -0.095938      0.038787      0.051164
   21 Atom     -1.105218      0.015842      0.027674     -0.004636
   22 Atom     -1.104521     -0.006888     -0.005186      0.032310
   23 Atom     -1.116976      0.000931     -0.001364     -0.029533
   24 Atom     -1.116463     -0.012431     -0.025013      0.007829
   25 Atom     -1.105828      0.000717     -0.004344      0.031867
   26 Atom     -1.117824      0.019785     -0.021007     -0.008125
   27 Atom     -1.109712      0.015206      0.022420     -0.013223
   28 Atom     -1.103184     -0.002878      0.006940      0.028082
   29 Atom     -1.117945      0.000801      0.002384     -0.030232
   30 Atom     -1.117621     -0.017287      0.024762      0.008197
   31 Atom     -1.119401     -0.001973     -0.000634      0.030893
   32 Atom     -1.119170      0.004554      0.003751     -0.030513
   33 Atom     -1.123544      0.001190      0.000894     -0.030331
   34 Atom     -1.118555     -0.002533      0.001692     -0.029662
   35 Atom     -1.116106     -0.010237     -0.026081      0.005830
   36 Atom     -1.118550      0.001879     -0.010133      0.026448
   37 Atom     -1.118892      0.014192     -0.020349     -0.014391
   38 Atom     -1.124527      0.002310      0.025566     -0.016584
   39 Atom     -1.124808      0.003086      0.007080      0.029038
   40 Atom     -1.127965     -0.017039      0.013707     -0.019694
   41 Atom     -1.127218     -0.017703     -0.001763      0.023507
   42 Atom     -1.129875      0.000297     -0.002362     -0.033567
   43 Atom     -1.121787     -0.016385      0.019590      0.014921
   44 Atom     -1.122349     -0.016209     -0.021838      0.007773
   45 Atom     -1.119613      0.024910     -0.002995      0.013848
   46 Atom     -0.997713      0.007092     -0.043361     -0.009235
 -----------------------------------------------------------------
 -----------------------------------------------------
    Center         ---- Electric Field Gradient ----
                     XX            YY            ZZ
 -----------------------------------------------------
    1 Atom     -493.359486   -493.264869   -493.954519
    2 Atom    -1217.090931  -1214.546532  -1217.546617
    3 Atom     -493.094576   -493.170568   -493.401534
    4 Atom     -493.126478   -493.236301   -493.768404
    5 Atom     -492.728451   -492.777261   -492.745380
    6 Atom     -492.625942   -492.592041   -492.581557
    7 Atom     -492.721668   -492.732811   -492.746923
    8 Atom     -492.558063   -492.599806   -492.563992
    9 Atom     -492.665493   -492.617414   -492.627291
   10 Atom     -492.758082   -492.781307   -492.767393
   11 Atom     -492.808596   -492.781061   -492.779764
   12 Atom     -492.898896   -492.918581   -492.900762
   13 Atom     -492.914772   -492.930726   -492.963300
   14 Atom     -492.709405   -492.679395   -492.684182
   15 Atom     -492.629630   -492.620959   -492.591599
   16 Atom     -492.640912   -492.583551   -492.560269
   17 Atom     -492.636789   -492.655327   -492.578155
   18 Atom     -492.865456   -492.813266   -492.667545
   19 Atom     -492.529723   -492.533940   -492.580642
   20 Atom    -1214.400332  -1215.973311  -1213.074111
   21 Atom       -1.696911     -1.953409     -1.593282
   22 Atom       -1.630637     -1.627536     -2.019918
   23 Atom       -1.619704     -1.615301     -2.035998
   24 Atom       -1.701825     -1.945275     -1.662709
   25 Atom       -1.604775     -1.603740     -2.025423
   26 Atom       -1.755375     -1.862026     -1.635217
   27 Atom       -1.728762     -1.868913     -1.687899
   28 Atom       -1.605323     -1.624092     -1.996722
   29 Atom       -1.623994     -1.623028     -2.045656
   30 Atom       -1.741439     -1.912396     -1.662036
   31 Atom       -1.636276     -1.634850     -2.046153
   32 Atom       -1.641339     -1.645782     -2.028323
   33 Atom       -1.646134     -1.640808     -2.044077
   34 Atom       -1.626643     -1.628045     -2.038397
   35 Atom       -1.701659     -1.951693     -1.643912
   36 Atom       -1.627217     -1.656982     -2.003852
   37 Atom       -1.728663     -1.833295     -1.749377
   38 Atom       -1.633836     -1.942439     -1.746860
   39 Atom       -1.633379     -1.647664     -2.023493
   40 Atom       -1.747813     -1.722593     -1.841824
   41 Atom       -1.738843     -1.610145     -1.916272
   42 Atom       -1.680437     -1.679175     -2.085576
   43 Atom       -1.709307     -1.843438     -1.702035
   44 Atom       -1.703411     -1.917331     -1.618280
   45 Atom       -1.965277     -1.610121     -1.696143
   46 Atom       -1.506070     -2.048072     -1.461163
 -----------------------------------------------------
 -----------------------------------------------------
    Center         ---- Electric Field Gradient ----
                     XY            XZ            YZ
 -----------------------------------------------------
    1 Atom       -0.034091     -0.159373     -0.124791
    2 Atom       -0.159605     -0.091399     -0.488952
    3 Atom       -0.005936     -0.037933     -0.020579
    4 Atom       -0.003070     -0.057270     -0.003527
    5 Atom       -0.023520     -0.010048     -0.003032
    6 Atom        0.023642     -0.008179     -0.024403
    7 Atom       -0.010167     -0.038857      0.002136
    8 Atom        0.026146     -0.022288     -0.010649
    9 Atom       -0.008898     -0.019609      0.020352
   10 Atom        0.001644      0.008555     -0.004489
   11 Atom       -0.009225     -0.017159     -0.010327
   12 Atom        0.014396     -0.006669      0.004616
   13 Atom        0.004791      0.009149      0.003549
   14 Atom       -0.014417     -0.007434     -0.011152
   15 Atom       -0.018545     -0.010299      0.014032
   16 Atom       -0.005932      0.000738     -0.016548
   17 Atom       -0.021122     -0.013530     -0.035319
   18 Atom       -0.200215      0.101152      0.107152
   19 Atom        0.000065     -0.001597      0.011811
   20 Atom       -0.496161      0.826294     -0.045045
   21 Atom       -0.175087      0.020771      0.038759
   22 Atom       -0.005774      0.060193      0.043496
   23 Atom        0.002097      0.012288     -0.011462
   24 Atom       -0.150945      0.052294      0.110352
   25 Atom       -0.000994      0.024864     -0.010426
   26 Atom        0.195459      0.066317     -0.089198
   27 Atom       -0.160532      0.088459      0.137565
   28 Atom        0.007255      0.019154     -0.088709
   29 Atom       -0.002617      0.008351      0.007208
   30 Atom        0.178143      0.063685     -0.103962
   31 Atom       -0.000901     -0.002268      0.008184
   32 Atom       -0.007438      0.049218      0.057808
   33 Atom       -0.000984      0.012842      0.006028
   34 Atom        0.004162     -0.024125      0.043287
   35 Atom       -0.153709      0.040149      0.084449
   36 Atom        0.006133     -0.029336      0.115006
   37 Atom        0.140805      0.109923     -0.160397
   38 Atom       -0.042345      0.025324      0.195002
   39 Atom       -0.014554     -0.056349     -0.098425
   40 Atom        0.108935     -0.165066      0.144183
   41 Atom        0.001090      0.196875     -0.002121
   42 Atom       -0.004938      0.031770     -0.021393
   43 Atom        0.163320      0.100462     -0.147279
   44 Atom       -0.186702      0.036202      0.059090
   45 Atom        0.030904     -0.170392      0.015001
   46 Atom        0.158185      0.060499     -0.141351
 -----------------------------------------------------
 -----------------------------------------------------
    Center         ---- Electric Field Gradient ----
                   ----       Eigenvalues       ----
 -----------------------------------------------------
    1 Atom     -494.016764   -493.319580   -493.242530
    2 Atom    -1217.648424  -1217.074621  -1214.461035
    3 Atom     -493.408036   -493.168831   -493.089812
    4 Atom     -493.773500   -493.236340   -493.121343
    5 Atom     -492.787792   -492.746715   -492.716585
    6 Atom     -492.638409   -492.605948   -492.555184
    7 Atom     -492.775586   -492.734553   -492.691263
    8 Atom     -492.612390   -492.581114   -492.528357
    9 Atom     -492.673768   -492.640440   -492.595990
   10 Atom     -492.783361   -492.770451   -492.752969
   11 Atom     -492.820736   -492.780170   -492.768515
   12 Atom     -492.928098   -492.900315   -492.889826
   13 Atom     -492.965172   -492.932028   -492.911598
   14 Atom     -492.718869   -492.685098   -492.669015
   15 Atom     -492.644349   -492.617792   -492.580047
   16 Atom     -492.641531   -492.591653   -492.551548
   17 Atom     -492.682374   -492.623833   -492.564063
   18 Atom     -493.092025   -492.643711   -492.610531
   19 Atom     -492.583505   -492.531186   -492.529615
   20 Atom    -1216.129537  -1214.660629  -1212.657588
   21 Atom       -2.046458     -1.608178     -1.588966
   22 Atom       -2.033751     -1.623174     -1.621165
   23 Atom       -2.036676     -1.619962     -1.614365
   24 Atom       -2.055431     -1.629674     -1.624704
   25 Atom       -2.027141     -1.605006     -1.601791
   26 Atom       -2.041692     -1.606986     -1.603940
   27 Atom       -2.048229     -1.623822     -1.613523
   28 Atom       -2.017760     -1.607044     -1.601333
   29 Atom       -2.045946     -1.625882     -1.620850
   30 Atom       -2.061693     -1.629734     -1.624443
   31 Atom       -2.046329     -1.636707     -1.634245
   32 Atom       -2.043035     -1.637249     -1.635159
   33 Atom       -2.044582     -1.645841     -1.640596
   34 Atom       -2.044342     -1.626210     -1.622534
   35 Atom       -2.046523     -1.628545     -1.622195
   36 Atom       -2.040675     -1.626617     -1.620758
   37 Atom       -2.054929     -1.630995     -1.625410
   38 Atom       -2.068398     -1.628475     -1.626263
   39 Atom       -2.055727     -1.625568     -1.623240
   40 Atom       -2.062515     -1.626526     -1.623189
   41 Atom       -2.043510     -1.611654     -1.610096
   42 Atom       -2.089122     -1.684610     -1.671456
   43 Atom       -2.045469     -1.609658     -1.599654
   44 Atom       -2.037003     -1.607053     -1.594966
   45 Atom       -2.050511     -1.613589     -1.607442
   46 Atom       -2.125773     -1.472701     -1.416832
 -----------------------------------------------------
 -----------------------------------------------------
    Center         ---- Electric Field Gradient ----
                       ( tensor representation )
                   3XX-RR        3YY-RR        3ZZ-RR
 -----------------------------------------------------
    1 Atom        0.166805      0.261422     -0.428227
    2 Atom       -0.696237      1.848161     -1.151924
    3 Atom        0.127650      0.051658     -0.179308
    4 Atom        0.250583      0.140760     -0.391343
    5 Atom        0.021913     -0.026897      0.004984
    6 Atom       -0.026095      0.007806      0.018290
    7 Atom        0.012133      0.000989     -0.013122
    8 Atom        0.015891     -0.025852      0.009962
    9 Atom       -0.028760      0.019319      0.009442
   10 Atom        0.010845     -0.012380      0.001534
   11 Atom       -0.018789      0.008746      0.010043
   12 Atom        0.007183     -0.012501      0.005318
   13 Atom        0.021494      0.005540     -0.027034
   14 Atom       -0.018411      0.011599      0.006812
   15 Atom       -0.015567     -0.006896      0.022464
   16 Atom       -0.046002      0.011360      0.034642
   17 Atom       -0.013365     -0.031904      0.045269
   18 Atom       -0.083367     -0.031177      0.114544
   19 Atom        0.018379      0.014162     -0.032540
   20 Atom        0.082253     -1.490726      1.408474
   21 Atom        0.050956     -0.205541      0.154585
   22 Atom        0.128727      0.131828     -0.260555
   23 Atom        0.137297      0.141700     -0.278997
   24 Atom        0.068111     -0.175339      0.107227
   25 Atom        0.139871      0.140906     -0.280777
   26 Atom       -0.004502     -0.111153      0.115656
   27 Atom        0.033096     -0.107055      0.073959
   28 Atom        0.136723      0.117953     -0.254676
   29 Atom        0.140232      0.141198     -0.281430
   30 Atom        0.030518     -0.140439      0.109921
   31 Atom        0.136150      0.137576     -0.273727
   32 Atom        0.130475      0.126033     -0.256508
   33 Atom        0.130872      0.136198     -0.267071
   34 Atom        0.137719      0.136317     -0.274035
   35 Atom        0.064096     -0.185938      0.121842
   36 Atom        0.135467      0.105702     -0.241169
   37 Atom        0.041782     -0.062850      0.021068
   38 Atom        0.140542     -0.168061      0.027519
   39 Atom        0.134799      0.120515     -0.255314
   40 Atom        0.022930      0.048151     -0.071081
   41 Atom        0.016244      0.144941     -0.161185
   42 Atom        0.134625      0.135888     -0.270513
   43 Atom        0.042286     -0.091845      0.049559
   44 Atom        0.042930     -0.170990      0.128061
   45 Atom       -0.208096      0.147059      0.061037
   46 Atom        0.165698     -0.376304      0.210606
 -----------------------------------------------------
 -----------------------------------------------------
    Center         ---- Electric Field Gradient ----
                       ( tensor representation )
                   ----       Eigenvalues       ----
 -----------------------------------------------------
    1 Atom       -0.490473      0.206712      0.283761
    2 Atom       -1.253731     -0.679928      1.933659
    3 Atom       -0.185809      0.053395      0.132414
    4 Atom       -0.396439      0.140721      0.255718
    5 Atom       -0.037428      0.003649      0.033779
    6 Atom       -0.038562     -0.006101      0.044663
    7 Atom       -0.041785     -0.000752      0.042538
    8 Atom       -0.038436     -0.007160      0.045597
    9 Atom       -0.037035     -0.003707      0.040743
   10 Atom       -0.014434     -0.001524      0.015958
   11 Atom       -0.030929      0.009637      0.021292
   12 Atom       -0.022019      0.005765      0.016254
   13 Atom       -0.028906      0.004238      0.024668
   14 Atom       -0.027875      0.005896      0.021980
   15 Atom       -0.030286     -0.003730      0.034016
   16 Atom       -0.046620      0.003258      0.043363
   17 Atom       -0.058951     -0.000409      0.059360
   18 Atom       -0.309936      0.138378      0.171558
   19 Atom       -0.035403      0.016916      0.018487
   20 Atom       -1.646952     -0.178044      1.824996
   21 Atom       -0.298590      0.139689      0.158901
   22 Atom       -0.274388      0.136189      0.138199
   23 Atom       -0.279675      0.137039      0.142636
   24 Atom       -0.285495      0.140262      0.145233
   25 Atom       -0.282495      0.139640      0.142855
   26 Atom       -0.290820      0.143887      0.146933
   27 Atom       -0.286371      0.138036      0.148335
   28 Atom       -0.275714      0.135001      0.140713
   29 Atom       -0.281720      0.138344      0.143376
   30 Atom       -0.289736      0.142223      0.147514
   31 Atom       -0.273902      0.135720      0.138182
   32 Atom       -0.271221      0.134566      0.136655
   33 Atom       -0.267575      0.131165      0.136411
   34 Atom       -0.279980      0.138152      0.141828
   35 Atom       -0.280769      0.137210      0.143559
   36 Atom       -0.277991      0.136066      0.141925
   37 Atom       -0.284484      0.139450      0.145034
   38 Atom       -0.294020      0.145904      0.148116
   39 Atom       -0.287549      0.142610      0.144938
   40 Atom       -0.291772      0.144217      0.147555
   41 Atom       -0.288423      0.143432      0.144991
   42 Atom       -0.274060      0.130453      0.143607
   43 Atom       -0.293875      0.141935      0.151940
   44 Atom       -0.290663      0.139288      0.151375
   45 Atom       -0.293331      0.143592      0.149739
   46 Atom       -0.454005      0.199068      0.254937
 -----------------------------------------------------
 Unable to Open any file for archive entry.
 1\1\GINC-MIKE009\SP\RwB97XD\6-31G(d)\C18H26O2\ARKANIL\03-May-2026\0\\#
  wb97xd/6-31g(d) prop=efg\\None_sub_reg_combined_truncated\\0,1\C,0,1.
 961368,-1.64789,-0.894597\O,0,2.717026,-1.965443,-1.816835\C,0,2.11054
 7,-0.418978,-0.143278\C,0,1.172159,0.019019,0.727839\C,0,-0.120601,-0.
 742808,0.965809\C,0,-0.408441,-1.753274,-0.149765\C,0,0.837588,-2.5600
 31,-0.486498\C,0,1.438094,1.231585,1.563941\C,0,0.203354,2.06004,1.910
 838\C,0,-0.946592,1.17324,2.384725\C,0,-1.310938,0.19735,1.244483\C,0,
 -2.172996,1.970504,2.799941\C,0,-3.368746,1.085207,3.20242\C,0,-3.7800
 96,0.248597,1.98957\C,0,-2.606682,-0.600946,1.481792\C,0,-2.051559,2.9
 81156,3.950495\C,0,-3.517512,3.189128,4.419112\C,0,-4.363433,2.19028,3
 .605902\C,0,-3.09308,0.171848,4.408213\O,0,-5.49166,1.768471,4.359855\
 H,0,3.031692,0.140479,-0.295345\H,0,0.054832,-1.319809,1.888195\H,0,-0
 .76496,-1.225248,-1.045941\H,0,-1.211006,-2.435347,0.151797\H,0,1.1757
 42,-3.073172,0.424636\H,0,0.675709,-3.30634,-1.267627\H,0,2.198676,1.8
 57297,1.084764\H,0,1.912837,0.880636,2.495912\H,0,-0.130567,2.63122,1.
 034126\H,0,0.473374,2.793241,2.676389\H,0,-0.591551,0.589963,3.249237\
 H,0,-1.47263,0.814989,0.345602\H,0,-2.500233,2.537405,1.910733\H,0,-4.
 11359,0.920665,1.185525\H,0,-4.6277,-0.411558,2.22851\H,0,-2.404138,-1
 .412624,2.197418\H,0,-2.909689,-1.086968,0.546803\H,0,-1.568947,3.9106
 09,3.638919\H,0,-1.43088,2.571524,4.755892\H,0,-3.861954,4.214698,4.25
 9253\H,0,-3.640594,2.972249,5.485198\H,0,-4.702642,2.679719,2.682223\H
 ,0,-2.805108,0.740425,5.296958\H,0,-4.005343,-0.383001,4.655334\H,0,-2
 .2972,-0.553322,4.212528\H,0,-5.948831,1.096013,3.839105\\Version=ES64
 L-G16RevC.01\State=1-A\HF=-851.7947268\RMSD=8.593e-09\Dipole=-0.935060
 8,0.3984819,0.8346014\Quadrupole=-2.173138,8.3950312,-6.2218932,11.309
 936,18.2661015,-8.5672765\PG=C01 [X(C18H26O2)]\\@
 The archive entry for this job was punched.


 ASKING FOR EFFICIENCY AND ADAPTABILITY IN THE SAME PROGRAM IS LIKE
 ASKING FOR A BEAUTIFUL AND MODEST WIFE ...
 WE'LL PROBABLY HAVE TO SETTLE FOR ONE OR THE OTHER.

             -- THE PSYCHOLOGY OF COMPUTER PROGRAMMING
                GERALD M. WEINBERG
 Job cpu time:       0 days  0 hours 16 minutes 41.0 seconds.
 Elapsed time:       0 days  0 hours  0 minutes 15.9 seconds.
 File lengths (MBytes):  RWF=     71 Int=      0 D2E=      0 Chk=      8 Scr=      1
 Normal termination of Gaussian 16 at Sun May  3 12:41:19 2026.
