
Running Job 1 of 2 19nt_xstal_distance_cutoff4_optimized_spade_wb97x-v_631gd.in
qchem 19nt_xstal_distance_cutoff4_optimized_spade_wb97x-v_631gd.in_3956220.0 ./qchem3956220/ 1
srun -n 1 /cm/shared/apps/spack/0.17.3/cpu/b/opt/spack/linux-rocky8-zen2/gcc-10.2.0/qchem-6.0-rytxnwjazd34ekd2gqyi5ufsaimxsd3r/exe/qcprog.exe 19nt_xstal_distance_cutoff4_optimized_spade_wb97x-v_631gd.in_3956220.0 ./qchem3956220/

                  Welcome to Q-Chem
     A Quantum Leap Into The Future Of Chemistry


 Q-Chem 6.0, Q-Chem, Inc., Pleasanton, CA (2022)

 License issued to: University of California, San Diego (site)

 E. Epifanovsky,  A. T. B. Gilbert,  Xintian Feng,  Joonho Lee,  Yuezhi Mao,  
 N. Mardirossian,  P. Pokhilko,  A. White,  M. Wormit,  M. P. Coons,  
 A. L. Dempwolff,  Zhengting Gan,  D. Hait,  P. R. Horn,  L. D. Jacobson,  
 I. Kaliman,  J. Kussmann,  A. W. Lange,  Ka Un Lao,  D. S. Levine,  Jie Liu,  
 S. C. McKenzie,  A. F. Morrison,  K. Nanda,  F. Plasser,  D. R. Rehn,  
 M. L. Vidal,  Zhi-Qiang You,  Ying Zhu,  B. Alam,  B. Albrecht,  
 A. Aldossary,  E. Alguire,  J. H. Andersen,  V. Athavale,  D. Barton,  
 K. Begam,  A. Behn,  N. Bellonzi,  Y. A. Bernard,  E. J. Berquist,  
 H. Burton,  A. Carreras,  K. Carter-Fenk,  Romit Chakraborty,  
 Chandrima Chakravarty,  Junhan Chen,  A. D. Chien,  K. D. Closser,  
 V. Cofer-Shabica,  L. Cunha,  S. Dasgupta,  Jia Deng,  M. de Wergifosse,  
 M. Diedenhofen,  Hainam Do,  S. Ehlert,  Po-Tung Fang,  S. Fatehi,  
 Qingguo Feng,  T. Friedhoff,  B. Ganoe,  J. Gayvert,  Qinghui Ge,  
 G. Gidofalvi,  M. Goldey,  J. Gomes,  C. Gonzalez-Espinoza,  S. Gulania,  
 A. Gunina,  J. A. Gyamfi,  M. W. D. Hanson-Heine,  P. H. P. Harbach,  
 A. W. Hauser,  M. F. Herbst,  M. Hernandez Vera,  M. Hodecker,  
 Z. C. Holden,  S. Houck,  Xunkun Huang,  Kerwin Hui,  B. C. Huynh,  
 K. Ikeda,  M. Ivanov,  Hyunjun Ji,  Zuxin Jin,  Hanjie Jiang,  B. Kaduk,  
 S. Kaehler,  R. Kang,  K. Khistyaev,  Jaehoon Kim,  Yongbin Kim,  
 P. Klunzinger,  Z. Koczor-Benda,  Joong Hoon Koh,  D. Kosenkov,  
 Saikiran Kotaru,  L. Koulias,  T. Kowalczyk,  C. M. Krauter,  K. Kue,  
 A. Kunitsa,  T. Kus,  A. Landau,  K. V. Lawler,  D. Lefrancois,  S. Lehtola,  
 Rain Li,  Shaozhi Li,  Yi-Pei Li,  Jiashu Liang,  M. Liebenthal,  
 Hung-Hsuan Lin,  You-Sheng Lin,  Fenglai Liu,  Kuan-Yu Liu,  
 M. Loipersberger,  A. Luenser,  C. Malbon,  A. Manjanath,  P. Manohar,  
 E. Mansoor,  S. F. Manzer,  Shan-Ping Mao,  A. V. Marenich,  T. Markovich,  
 S. Mason,  F. Matz,  S. A. Maurer,  P. F. McLaughlin,  M. F. S. J. Menger,  
 J.-M. Mewes,  S. A. Mewes,  P. Morgante,  Mohammad Mostafanejad,  
 J. W. Mullinax,  K. J. Oosterbaan,  G. Paran,  V. Parravicini,  
 Alexander C. Paul,  Suranjan K. Paul,  F. Pavosevic,  Zheng Pei,  S. Prager,  
 E. I. Proynov,  E. Ramos,  B. Rana,  A. E. Rask,  A. Rettig,  R. M. Richard,  
 F. Rob,  E. Rossomme,  T. Scheele,  M. Scheurer,  M. Schneider,  
 P. E. Schneider,  N. Sergueev,  S. M. Sharada,  Hengyuan Shen,  
 W. Skomorowski,  D. W. Small,  C. J. Stein,  Yingli Su,  Yu-Chuan Su,  
 E. J. Sundstrom,  Zhen Tao,  J. Thirman,  Hung-Yi Tsai,  T. Tsuchimochi,  
 N. M. Tubman,  C. Utku,  S. P. Veccham,  O. Vydrov,  J. Wenzel,  
 Jonathan Wong,  J. Witte,  A. Yamada,  Chou-Hsun Yang,  Kun Yao,  
 S. Yeganeh,  S. R. Yost,  A. Zech,  F. Zeller,  Igor Ying Zhang,  
 Xing Zhang,  Yu Zhang,  D. Zuev,  A. Aspuru-Guzik,  A. T. Bell,  
 N. A. Besley,  K. B. Bravaya,  B. R. Brooks,  D. Casanova,  Jeng-Da Chai,  
 Hsing-Ta Chen,  S. Coriani,  C. J. Cramer,  A. E. DePrince, III,  
 R. A. DiStasio Jr.,  A. Dreuw,  B. D. Dunietz,  T. R. Furlani,  
 W. A. Goddard III,  S. Grimme,  S. Hammes-Schiffer,  T. Head-Gordon,  
 W. J. Hehre,  Chao-Ping Hsu,  T.-C. Jagau,  Yousung Jung,  A. Klamt,  
 Jing Kong,  D. S. Lambrecht,  Xiangyuan Li,  WanZhen Liang,  N. J. Mayhall,  
 C. W. McCurdy,  J. B. Neaton,  T. Neudecker,  C. Ochsenfeld,  
 J. A. Parkhill,  R. Peverati,  V. A. Rassolov,  Haisheng Ren,  Yihan Shao,  
 L. V. Slipchenko,  R. P. Steele,  J. E. Subotnik,  A. J. W. Thom,  
 A. Tkatchenko,  D. G. Truhlar,  T. Van Voorhis,  Fan Wang,  
 T. A. Wesolowski,  K. B. Whaley,  H. L. Woodcock III,  P. M. Zimmerman,  
 S. Faraji,  P. M. W. Gill,  M. Head-Gordon,  J. M. Herbert,  A. I. Krylov

 Contributors to earlier versions of Q-Chem not listed above: 
 R. D. Adamson,  B. Austin,  R. Baer,  J. Baker,  G. J. O. Beran,  
 K. Brandhorst,  S. T. Brown,  E. F. C. Byrd,  Arup K. Chakraborty,  
 G. K. L. Chan,  Chun-Min Chang,  Yunqing Chen,  C.-L. Cheng,  
 Siu Hung Chien,  D. M. Chipman,  D. L. Crittenden,  H. Dachsel,  
 R. J. Doerksen,  A. D. Dutoi,  R. G. Edgar,  J. Fosso-Tande,  
 L. Fusti-Molnar,  D. Ghosh,  A. Ghysels,  A. Golubeva-Zadorozhnaya,  
 J. Gonthier,  M. S. Gordon,  S. R. Gwaltney,  G. Hawkins,  J. E. Herr,  
 A. Heyden,  S. Hirata,  E. G. Hohenstein,  G. Kedziora,  F. J. Keil,  
 C. Kelley,  Jihan Kim,  R. A. King,  R. Z. Khaliullin,  P. P. Korambath,  
 W. Kurlancheek,  A. Laurent,  A. M. Lee,  M. S. Lee,  S. V. Levchenko,  
 Ching Yeh Lin,  D. Liotard,  E. Livshits,  R. C. Lochan,  I. Lotan,  
 L. A. Martinez-Martinez,  P. E. Maslen,  N. Nair,  D. P. O'Neill,  
 D. Neuhauser,  E. Neuscamman,  C. M. Oana,  R. Olivares-Amaya,  R. Olson,  
 T. M. Perrine,  B. Peters,  P. A. Pieniazek,  A. Prociuk,  Y. M. Rhee,  
 J. Ritchie,  M. A. Rohrdanz,  E. Rosta,  N. J. Russ,  H. F. Schaefer III,  
 M. W. Schmidt,  N. E. Schultz,  S. Sharma,  N. Shenvi,  C. D. Sherrill,  
 A. C. Simmonett,  A. Sodt,  T. Stein,  D. Stuck,  K. S. Thanthiriwatte,  
 V. Vanovschi,  L. Vogt,  Tao Wang,  A. Warshel,  M. A. Watson,  
 C. F. Williams,  Q. Wu,  X. Xu,  Jun Yang,  W. Zhang,  Yan Zhao

   Please cite Q-Chem as follows:
  "Software for the frontiers of quantum chemistry:
   An overview of developments in the Q-Chem 5 package"
   J. Chem. Phys. 155, 084801 (2021)
   https://doi.org/10.1063/5.0055522 (open access)

 Q-Chem 6.0.2 for Intel X86 EM64T Linux

 Parts of Q-Chem use Armadillo 9.900.5 (Nocturnal Misbehaviour).
 http://arma.sourceforge.net/

 Q-Chem begins on Tue Aug  6 12:59:09 2024  

 Host: 
0

     Scratch files written to ./qchem3956220//
 Dec722 |scratch|qcdevops|jenkins|workspace|build_RNUM    
 Processing $rem in /cm/shared/apps/spack/0.17.3/cpu/b/opt/spack/linux-rocky8-zen2/gcc-10.2.0/qchem-6.0-rytxnwjazd34ekd2gqyi5ufsaimxsd3r/config/preferences:
 Processing $rem in /home/hklem/.qchemrc:
 No nuclear gradient supported for projection-based embedding or EMFT. Set max ideriv = 0.

 Checking the input file for inconsistencies... 	...done.

--------------------------------------------------------------
User input:
--------------------------------------------------------------
$molecule
-1 1
--
0 1
C    -3.41500   -0.94700   -0.18800
O    -4.52200   -1.00400   0.39200
C    -2.65100   0.26600    -0.30900
C    -1.42900   0.26300    -0.90400
C    -0.71000   -1.00700   -1.29300
C    -1.37500   -2.25700   -0.72500
C    -2.88500   -2.17800   -0.85000
C    -0.75800   1.53900    -1.30400
C    0.75800    1.57000    -1.06600
C    1.43200    0.30400    -1.60200
C    0.79000    -0.93300   -0.93500
C    2.94000    0.27100    -1.38300
C    3.58700    -1.02000   -1.92600
C    3.01500    -2.20500   -1.15000
C    1.49100    -2.26100   -1.27500
C    3.81800    1.39400    -1.95200
C    5.23700    0.76800    -2.00800
C    5.06700    -0.72000   -1.63000
C    3.39200    -1.20800   -3.43800
O    6.01800    -1.50900   -2.32000
H    -3.13400   1.19000    -0.00000
H    -0.76800   -1.03800   -2.39300
H    -1.09900   -2.37300   0.33300
H    -1.02700   -3.15400   -1.24500
H    -3.16800   -2.11200   -1.91000
H    -3.36700   -3.06000   -0.43100
H    -1.25300   2.40000    -0.84400
H    -0.95100   1.61900    -2.38700
H    0.96900    1.67100    0.01000
H    1.16900    2.46100    -1.55300
H    1.22800    0.25000    -2.68100
H    0.87300    -0.78600   0.15700
H    3.10600    0.25900    -0.29200
H    3.29600    -2.09800   -0.09100
H    3.44900    -3.14800   -1.50200
H    1.22200    -2.56200   -2.29400
H    1.11300    -3.05000   -0.61100
H    3.78700    2.29200    -1.33100
H    3.47000    1.69300    -2.94700
H    5.92800    1.26800    -1.32300
H    5.67000    0.82300    -3.01100
H    5.21500    -0.83400   -0.54200
H    3.74800    -0.34200   -4.00500
H    3.97100    -2.07400   -3.77200
H    2.34900    -1.38200   -3.71200
H    5.72700    -2.43600   -2.31200
--
-1 1
H    -5.53600   -5.79300   7.53100
C    -5.69200   -5.35800   6.53700
H    -5.71700   -4.26800   6.64100
C    -4.58500   -5.78100   5.56200
H    -3.61100   -5.47100   5.96100
H    -4.55800   -6.87500   5.49000
C    -4.79200   -5.18200   4.19200
C    -5.49900   -5.86600   3.20200
H    -5.84900   -6.87800   3.39700
C    -5.77600   -5.28000   1.97200
H    -6.34100   -5.81200   1.21100
C    -5.34800   -3.97800   1.71300
O    -5.68000   -3.42200   0.51800
H    -5.29700   -2.50800   0.44800
C    -4.61000   -3.28700   2.67700
H    -4.26700   -2.27800   2.47500
C    -4.34600   -3.89200   3.90000
H    -3.78200   -3.33800   4.64800
H    -6.67200   -5.67900   6.17000
H    -0.17800   -6.95800   4.95800
C    0.16200    -6.08000   4.39500
H    0.90000    -6.41900   3.65700
C    -1.01100   -5.37800   3.69900
H    -1.71600   -5.04700   4.47400
C    -0.54700   -4.13700   2.93400
H    0.14900    -4.41100   2.13000
H    -1.40100   -3.62200   2.48000
H    -0.03200   -3.42700   3.59200
C    -1.76300   -6.33300   2.77000
H    -2.17500   -7.18600   3.32300
H    -2.59600   -5.82300   2.27400
H    -1.09200   -6.72600   1.99500
H    0.67200    -5.40500   5.09200
H    -4.89500   3.01700    -6.69000
C    -3.98400   2.53900    -6.31500
H    -3.20600   3.30100    -6.20800
C    -4.23700   1.85100    -4.97000
H    -4.60900   2.58900    -4.25000
H    -5.00500   1.07900    -5.07100
C    -2.96600   1.21200    -4.39300
O    -1.93900   1.94700    -4.29800
O    -3.01400   -0.00600   -4.08000
H    -3.64500   1.81600    -7.06600
H    -0.97300   -8.14600   -3.92600
C    -0.36600   -7.32700   -4.32800
H    -0.84400   -6.97800   -5.24900
C    -0.25000   -6.18400   -3.31200
H    0.25900    -6.54400   -2.41100
H    0.37600    -5.39300   -3.74000
C    -1.60700   -5.63400   -2.94000
C    -2.22000   -5.94800   -1.72600
H    -1.68600   -6.55200   -0.99600
C    -3.50600   -5.50500   -1.42400
H    -3.96000   -5.75100   -0.46600
C    -4.20700   -4.72400   -2.34500
O    -5.45200   -4.24400   -2.10500
H    -5.60600   -4.17800   -1.14300
C    -3.60400   -4.39000   -3.55900
H    -4.14000   -3.74600   -4.24900
C    -2.32400   -4.84300   -3.84700
H    -1.85600   -4.55500   -4.78600
H    0.62100    -7.72700   -4.59100
H    3.61900    -5.69000   -5.28800
C    3.85400    -4.82200   -4.66600
H    4.52900    -4.15800   -5.21000
H    2.92600    -4.26600   -4.47600
C    4.49500    -5.19600   -3.34900
O    5.12900    -4.39600   -2.66400
N    4.30800    -6.48700   -2.96800
H    3.71000    -7.06200   -3.54200
C    4.71400    -7.01700   -1.68100
H    5.31600    -6.24200   -1.20100
C    3.51100    -7.41600   -0.81600
H    2.93600    -8.18400   -1.35600
H    3.88600    -7.90000   0.09600
C    2.57100    -6.26400   -0.43100
H    2.30200    -5.72300   -1.35000
C    1.28100    -6.80400   0.19100
H    1.48300    -7.27700   1.16100
H    0.56200    -5.99400   0.35600
H    0.80000    -7.55300   -0.44900
C    3.24100    -5.27400   0.52200
H    4.12600    -4.81600   0.07500
H    2.55400    -4.46200   0.78500
H    3.54400    -5.77300   1.45200
H    5.36100    -7.88900   -1.83700
H    8.61200    -4.49900   2.21900
C    7.82200    -3.89700   2.68200
H    8.18100    -2.86200   2.75100
C    6.52400    -3.95600   1.86400
H    6.19000    -5.00400   1.83300
C    5.42300    -3.12600   2.52900
H    5.72800    -2.07400   2.59600
H    4.49300    -3.16700   1.95000
H    5.20800    -3.48200   3.54300
C    6.75100    -3.48800   0.42500
H    7.57300    -4.03100   -0.05600
H    5.85900    -3.62400   -0.19600
H    6.99400    -2.42100   0.40300
H    7.66600    -4.26500   3.70300
H    -1.56700   5.24600    7.02100
C    -0.64300   4.71300    7.27100
H    -0.34700   5.00000    8.28600
C    -0.84000   3.19500    7.16200
H    0.09100    2.68800    7.44500
H    -1.59900   2.88000    7.88900
C    -1.25500   2.74800    5.77700
C    -0.36700   2.07600    4.93500
H    0.63900    1.85400    5.28700
C    -0.75200   1.67500    3.65700
H    -0.04300   1.15900    3.01600
C    -2.04200   1.93400    3.20500
H    -2.36200   1.62000    2.21700
C    -2.93700   2.60900    4.03300
H    -3.93700   2.81900    3.66700
C    -2.54400   3.01200    5.30400
H    -3.25000   3.53500    5.94700
H    0.13200    5.05200    6.57600
H    4.20000    1.73900    5.07200
C    4.75400    1.94900    4.14800
H    5.48600    1.14400    4.00700
C    3.79500    2.04500    2.95700
H    4.38800    2.25000    2.05300
C    3.06100    0.72100    2.73200
H    2.47200    0.44600    3.61800
H    2.37300    0.79500    1.88200
H    3.76500    -0.09300   2.52400
C    2.80900    3.19700    3.15200
H    3.33200    4.15600    3.24500
H    2.11100    3.27200    2.31100
H    2.21000    3.05300    4.06000
H    5.30000    2.88900    4.29500
H    9.90800    0.17800    2.20100
C    10.40000   -0.03600   1.24600
H    11.29600   -0.63000   1.45500
C    9.45500    -0.77700   0.30800
H    9.97600    -1.02700   -0.62600
H    9.16400    -1.73200   0.76200
C    8.19400    0.00200    -0.06800
H    8.45400    0.93900    -0.57300
H    7.59400    -0.58100   -0.77400
S    7.11100    0.42800    1.34800
C    7.53400    2.17700    1.58700
H    7.27200    2.76500    0.70300
H    6.94300    2.54000    2.43200
H    8.59500    2.30800    1.81700
H    10.72400   0.91700    0.81000
H    6.53300    6.27300    1.90900
C    5.50300    6.56700    1.67700
H    5.54300    7.53700    1.17100
C    4.81100    5.50900    0.81700
H    5.32000    5.44000    -0.15600
H    4.92600    4.52400    1.29100
C    3.31600    5.75600    0.56700
H    2.80000    5.71600    1.53800
C    3.05300    7.13600    -0.03800
H    3.61800    7.26200    -0.97000
H    1.99100    7.24900    -0.27800
H    3.33200    7.94500    0.64500
C    2.74300    4.65100    -0.32100
H    2.85700    3.66900    0.15300
H    1.67900    4.80700    -0.52400
H    3.25100    4.62300    -1.29100
H    4.97400    6.70700    2.62700
H    0.20100    6.77900    2.55100
C    -0.85000   6.81800    2.24200
H    -0.89500   7.33900    1.27800
C    -1.44400   5.41000    2.12200
H    -1.39300   4.93000    3.10900
C    -2.91300   5.46200    1.69700
H    -3.00700   5.92000    0.70200
H    -3.35200   4.45900    1.64900
H    -3.51100   6.05900    2.39800
C    -0.63100   4.56000    1.14600
H    0.42100    4.50900    1.45100
H    -1.01700   3.53600    1.10700
H    -0.66900   4.97800    0.13100
H    -1.39800   7.42100    2.97600
H    -6.39200   4.20400    3.00600
C    -6.82300   4.20500    2.00000
H    -6.08000   4.64400    1.32800
C    -7.17800   2.79700    1.55500
H    -7.91300   2.32600    2.21700
H    -7.62800   2.80500    0.55300
C    -5.97000   1.89600    1.46100
O    -4.82300   2.29600    1.40300
O    -6.30900   0.61800    1.42200
H    -5.52100   0.09400    1.11800
H    -7.71000   4.84600    2.00800
H    -11.22700  -0.03100   -2.65100
C    -10.34100  0.33600    -2.12300
H    -10.67800  0.87100    -1.22600
C    -9.40300   -0.81300   -1.74800
H    -9.93600   -1.51700   -1.09500
H    -9.12300   -1.37600   -2.64700
C    -8.13700   -0.35800   -1.01700
H    -8.39300   0.32200    -0.19700
H    -7.62500   -1.21000   -0.55700
S    -6.91100   0.52900    -2.03800
C    -6.04100   -0.87600   -2.79200
H    -6.65400   -1.37200   -3.54900
H    -5.12200   -0.50200   -3.25800
H    -5.76800   -1.60800   -2.02700
H    -9.83000   1.05500    -2.77200
H    -5.81100   4.16700    -3.00400
C    -5.26900   4.53000    -2.12400
H    -6.01200   4.76800    -1.35500
C    -4.27900   3.48200    -1.61500
H    -3.52300   3.23500    -2.36800
H    -3.76000   3.82400    -0.71400
H    -4.79800   2.55300    -1.36200
H    -4.77400   5.46800    -2.40500
H    -1.56700   9.01600    -3.22200
C    -0.76900   9.01800    -2.47100
H    -0.88900   9.90500    -1.83900
C    -0.81600   7.73400    -1.63000
H    -0.04400   7.80100    -0.85100
H    -1.77400   7.69000    -1.09600
C    -0.63600   6.45900    -2.40200
C    -1.57900   5.48000    -2.59000
H    -2.60300   5.45700    -2.24600
N    -1.06000   4.42200    -3.29200
H    -1.55600   3.58700    -3.62800
C    0.25100    4.69500    -3.57300
C    1.20400    3.91000    -4.23000
H    0.94000    2.92700    -4.60900
C    2.47700    4.43500    -4.37700
H    3.24100    3.84900    -4.87900
C    2.79400    5.72000    -3.89300
H    3.80000    6.10800    -4.03500
C    1.85000    6.49000    -3.23600
H    2.10900    7.47600    -2.86100
C    0.55700    5.97600    -3.04800
H    0.18400    9.10400    -3.00400
O    -0.44700   -0.56100   -4.61400
H    -0.27200   0.39000    -4.63900
H    -1.41500   -0.54600   -4.39900
O    0.44100    -3.14200   -4.50700
H    -0.20100   -3.28400   -3.80000
H    0.29600    -2.19500   -4.72200
$end

$rem
JOBTYPE  SP
METHOD  WB97X-V
BASIS  6-31G(D)
SYMMETRY  FALSE
SYM_IGNORE  TRUE
MEM_TOTAL  12000
MEM_STATIC  4000
BASIS_LIN_DEP_THRESH  6
THRESH  14
SCF_CONVERGENCE  8
FD_MAT_VEC_PROD  FALSE
XC_GRID  000075000302
NL_GRID  1
MAX_SCF_CYCLES  200
ENV_METHOD  WB97X-V
GEN_SCFMAN_EMBED  TRUE
SPADE_PARTITION  TRUE
EMBEDDING_EARLY_STOP  TRUE
$end

--------------------------------------------------------------
 ----------------------------------------------------------------
             Standard Nuclear Orientation (Angstroms)
    I     Atom           X                Y                Z
 ----------------------------------------------------------------
    1      C      -3.4150000000    -0.9470000000    -0.1880000000
    2      O      -4.5220000000    -1.0040000000     0.3920000000
    3      C      -2.6510000000     0.2660000000    -0.3090000000
    4      C      -1.4290000000     0.2630000000    -0.9040000000
    5      C      -0.7100000000    -1.0070000000    -1.2930000000
    6      C      -1.3750000000    -2.2570000000    -0.7250000000
    7      C      -2.8850000000    -2.1780000000    -0.8500000000
    8      C      -0.7580000000     1.5390000000    -1.3040000000
    9      C       0.7580000000     1.5700000000    -1.0660000000
   10      C       1.4320000000     0.3040000000    -1.6020000000
   11      C       0.7900000000    -0.9330000000    -0.9350000000
   12      C       2.9400000000     0.2710000000    -1.3830000000
   13      C       3.5870000000    -1.0200000000    -1.9260000000
   14      C       3.0150000000    -2.2050000000    -1.1500000000
   15      C       1.4910000000    -2.2610000000    -1.2750000000
   16      C       3.8180000000     1.3940000000    -1.9520000000
   17      C       5.2370000000     0.7680000000    -2.0080000000
   18      C       5.0670000000    -0.7200000000    -1.6300000000
   19      C       3.3920000000    -1.2080000000    -3.4380000000
   20      O       6.0180000000    -1.5090000000    -2.3200000000
   21      H      -3.1340000000     1.1900000000     0.0000000000
   22      H      -0.7680000000    -1.0380000000    -2.3930000000
   23      H      -1.0990000000    -2.3730000000     0.3330000000
   24      H      -1.0270000000    -3.1540000000    -1.2450000000
   25      H      -3.1680000000    -2.1120000000    -1.9100000000
   26      H      -3.3670000000    -3.0600000000    -0.4310000000
   27      H      -1.2530000000     2.4000000000    -0.8440000000
   28      H      -0.9510000000     1.6190000000    -2.3870000000
   29      H       0.9690000000     1.6710000000     0.0100000000
   30      H       1.1690000000     2.4610000000    -1.5530000000
   31      H       1.2280000000     0.2500000000    -2.6810000000
   32      H       0.8730000000    -0.7860000000     0.1570000000
   33      H       3.1060000000     0.2590000000    -0.2920000000
   34      H       3.2960000000    -2.0980000000    -0.0910000000
   35      H       3.4490000000    -3.1480000000    -1.5020000000
   36      H       1.2220000000    -2.5620000000    -2.2940000000
   37      H       1.1130000000    -3.0500000000    -0.6110000000
   38      H       3.7870000000     2.2920000000    -1.3310000000
   39      H       3.4700000000     1.6930000000    -2.9470000000
   40      H       5.9280000000     1.2680000000    -1.3230000000
   41      H       5.6700000000     0.8230000000    -3.0110000000
   42      H       5.2150000000    -0.8340000000    -0.5420000000
   43      H       3.7480000000    -0.3420000000    -4.0050000000
   44      H       3.9710000000    -2.0740000000    -3.7720000000
   45      H       2.3490000000    -1.3820000000    -3.7120000000
   46      H       5.7270000000    -2.4360000000    -2.3120000000
   47      H      -5.5360000000    -5.7930000000     7.5310000000
   48      C      -5.6920000000    -5.3580000000     6.5370000000
   49      H      -5.7170000000    -4.2680000000     6.6410000000
   50      C      -4.5850000000    -5.7810000000     5.5620000000
   51      H      -3.6110000000    -5.4710000000     5.9610000000
   52      H      -4.5580000000    -6.8750000000     5.4900000000
   53      C      -4.7920000000    -5.1820000000     4.1920000000
   54      C      -5.4990000000    -5.8660000000     3.2020000000
   55      H      -5.8490000000    -6.8780000000     3.3970000000
   56      C      -5.7760000000    -5.2800000000     1.9720000000
   57      H      -6.3410000000    -5.8120000000     1.2110000000
   58      C      -5.3480000000    -3.9780000000     1.7130000000
   59      O      -5.6800000000    -3.4220000000     0.5180000000
   60      H      -5.2970000000    -2.5080000000     0.4480000000
   61      C      -4.6100000000    -3.2870000000     2.6770000000
   62      H      -4.2670000000    -2.2780000000     2.4750000000
   63      C      -4.3460000000    -3.8920000000     3.9000000000
   64      H      -3.7820000000    -3.3380000000     4.6480000000
   65      H      -6.6720000000    -5.6790000000     6.1700000000
   66      H      -0.1780000000    -6.9580000000     4.9580000000
   67      C       0.1620000000    -6.0800000000     4.3950000000
   68      H       0.9000000000    -6.4190000000     3.6570000000
   69      C      -1.0110000000    -5.3780000000     3.6990000000
   70      H      -1.7160000000    -5.0470000000     4.4740000000
   71      C      -0.5470000000    -4.1370000000     2.9340000000
   72      H       0.1490000000    -4.4110000000     2.1300000000
   73      H      -1.4010000000    -3.6220000000     2.4800000000
   74      H      -0.0320000000    -3.4270000000     3.5920000000
   75      C      -1.7630000000    -6.3330000000     2.7700000000
   76      H      -2.1750000000    -7.1860000000     3.3230000000
   77      H      -2.5960000000    -5.8230000000     2.2740000000
   78      H      -1.0920000000    -6.7260000000     1.9950000000
   79      H       0.6720000000    -5.4050000000     5.0920000000
   80      H      -4.8950000000     3.0170000000    -6.6900000000
   81      C      -3.9840000000     2.5390000000    -6.3150000000
   82      H      -3.2060000000     3.3010000000    -6.2080000000
   83      C      -4.2370000000     1.8510000000    -4.9700000000
   84      H      -4.6090000000     2.5890000000    -4.2500000000
   85      H      -5.0050000000     1.0790000000    -5.0710000000
   86      C      -2.9660000000     1.2120000000    -4.3930000000
   87      O      -1.9390000000     1.9470000000    -4.2980000000
   88      O      -3.0140000000    -0.0060000000    -4.0800000000
   89      H      -3.6450000000     1.8160000000    -7.0660000000
   90      H      -0.9730000000    -8.1460000000    -3.9260000000
   91      C      -0.3660000000    -7.3270000000    -4.3280000000
   92      H      -0.8440000000    -6.9780000000    -5.2490000000
   93      C      -0.2500000000    -6.1840000000    -3.3120000000
   94      H       0.2590000000    -6.5440000000    -2.4110000000
   95      H       0.3760000000    -5.3930000000    -3.7400000000
   96      C      -1.6070000000    -5.6340000000    -2.9400000000
   97      C      -2.2200000000    -5.9480000000    -1.7260000000
   98      H      -1.6860000000    -6.5520000000    -0.9960000000
   99      C      -3.5060000000    -5.5050000000    -1.4240000000
  100      H      -3.9600000000    -5.7510000000    -0.4660000000
  101      C      -4.2070000000    -4.7240000000    -2.3450000000
  102      O      -5.4520000000    -4.2440000000    -2.1050000000
  103      H      -5.6060000000    -4.1780000000    -1.1430000000
  104      C      -3.6040000000    -4.3900000000    -3.5590000000
  105      H      -4.1400000000    -3.7460000000    -4.2490000000
  106      C      -2.3240000000    -4.8430000000    -3.8470000000
  107      H      -1.8560000000    -4.5550000000    -4.7860000000
  108      H       0.6210000000    -7.7270000000    -4.5910000000
  109      H       3.6190000000    -5.6900000000    -5.2880000000
  110      C       3.8540000000    -4.8220000000    -4.6660000000
  111      H       4.5290000000    -4.1580000000    -5.2100000000
  112      H       2.9260000000    -4.2660000000    -4.4760000000
  113      C       4.4950000000    -5.1960000000    -3.3490000000
  114      O       5.1290000000    -4.3960000000    -2.6640000000
  115      N       4.3080000000    -6.4870000000    -2.9680000000
  116      H       3.7100000000    -7.0620000000    -3.5420000000
  117      C       4.7140000000    -7.0170000000    -1.6810000000
  118      H       5.3160000000    -6.2420000000    -1.2010000000
  119      C       3.5110000000    -7.4160000000    -0.8160000000
  120      H       2.9360000000    -8.1840000000    -1.3560000000
  121      H       3.8860000000    -7.9000000000     0.0960000000
  122      C       2.5710000000    -6.2640000000    -0.4310000000
  123      H       2.3020000000    -5.7230000000    -1.3500000000
  124      C       1.2810000000    -6.8040000000     0.1910000000
  125      H       1.4830000000    -7.2770000000     1.1610000000
  126      H       0.5620000000    -5.9940000000     0.3560000000
  127      H       0.8000000000    -7.5530000000    -0.4490000000
  128      C       3.2410000000    -5.2740000000     0.5220000000
  129      H       4.1260000000    -4.8160000000     0.0750000000
  130      H       2.5540000000    -4.4620000000     0.7850000000
  131      H       3.5440000000    -5.7730000000     1.4520000000
  132      H       5.3610000000    -7.8890000000    -1.8370000000
  133      H       8.6120000000    -4.4990000000     2.2190000000
  134      C       7.8220000000    -3.8970000000     2.6820000000
  135      H       8.1810000000    -2.8620000000     2.7510000000
  136      C       6.5240000000    -3.9560000000     1.8640000000
  137      H       6.1900000000    -5.0040000000     1.8330000000
  138      C       5.4230000000    -3.1260000000     2.5290000000
  139      H       5.7280000000    -2.0740000000     2.5960000000
  140      H       4.4930000000    -3.1670000000     1.9500000000
  141      H       5.2080000000    -3.4820000000     3.5430000000
  142      C       6.7510000000    -3.4880000000     0.4250000000
  143      H       7.5730000000    -4.0310000000    -0.0560000000
  144      H       5.8590000000    -3.6240000000    -0.1960000000
  145      H       6.9940000000    -2.4210000000     0.4030000000
  146      H       7.6660000000    -4.2650000000     3.7030000000
  147      H      -1.5670000000     5.2460000000     7.0210000000
  148      C      -0.6430000000     4.7130000000     7.2710000000
  149      H      -0.3470000000     5.0000000000     8.2860000000
  150      C      -0.8400000000     3.1950000000     7.1620000000
  151      H       0.0910000000     2.6880000000     7.4450000000
  152      H      -1.5990000000     2.8800000000     7.8890000000
  153      C      -1.2550000000     2.7480000000     5.7770000000
  154      C      -0.3670000000     2.0760000000     4.9350000000
  155      H       0.6390000000     1.8540000000     5.2870000000
  156      C      -0.7520000000     1.6750000000     3.6570000000
  157      H      -0.0430000000     1.1590000000     3.0160000000
  158      C      -2.0420000000     1.9340000000     3.2050000000
  159      H      -2.3620000000     1.6200000000     2.2170000000
  160      C      -2.9370000000     2.6090000000     4.0330000000
  161      H      -3.9370000000     2.8190000000     3.6670000000
  162      C      -2.5440000000     3.0120000000     5.3040000000
  163      H      -3.2500000000     3.5350000000     5.9470000000
  164      H       0.1320000000     5.0520000000     6.5760000000
  165      H       4.2000000000     1.7390000000     5.0720000000
  166      C       4.7540000000     1.9490000000     4.1480000000
  167      H       5.4860000000     1.1440000000     4.0070000000
  168      C       3.7950000000     2.0450000000     2.9570000000
  169      H       4.3880000000     2.2500000000     2.0530000000
  170      C       3.0610000000     0.7210000000     2.7320000000
  171      H       2.4720000000     0.4460000000     3.6180000000
  172      H       2.3730000000     0.7950000000     1.8820000000
  173      H       3.7650000000    -0.0930000000     2.5240000000
  174      C       2.8090000000     3.1970000000     3.1520000000
  175      H       3.3320000000     4.1560000000     3.2450000000
  176      H       2.1110000000     3.2720000000     2.3110000000
  177      H       2.2100000000     3.0530000000     4.0600000000
  178      H       5.3000000000     2.8890000000     4.2950000000
  179      H       9.9080000000     0.1780000000     2.2010000000
  180      C      10.4000000000    -0.0360000000     1.2460000000
  181      H      11.2960000000    -0.6300000000     1.4550000000
  182      C       9.4550000000    -0.7770000000     0.3080000000
  183      H       9.9760000000    -1.0270000000    -0.6260000000
  184      H       9.1640000000    -1.7320000000     0.7620000000
  185      C       8.1940000000     0.0020000000    -0.0680000000
  186      H       8.4540000000     0.9390000000    -0.5730000000
  187      H       7.5940000000    -0.5810000000    -0.7740000000
  188      S       7.1110000000     0.4280000000     1.3480000000
  189      C       7.5340000000     2.1770000000     1.5870000000
  190      H       7.2720000000     2.7650000000     0.7030000000
  191      H       6.9430000000     2.5400000000     2.4320000000
  192      H       8.5950000000     2.3080000000     1.8170000000
  193      H      10.7240000000     0.9170000000     0.8100000000
  194      H       6.5330000000     6.2730000000     1.9090000000
  195      C       5.5030000000     6.5670000000     1.6770000000
  196      H       5.5430000000     7.5370000000     1.1710000000
  197      C       4.8110000000     5.5090000000     0.8170000000
  198      H       5.3200000000     5.4400000000    -0.1560000000
  199      H       4.9260000000     4.5240000000     1.2910000000
  200      C       3.3160000000     5.7560000000     0.5670000000
  201      H       2.8000000000     5.7160000000     1.5380000000
  202      C       3.0530000000     7.1360000000    -0.0380000000
  203      H       3.6180000000     7.2620000000    -0.9700000000
  204      H       1.9910000000     7.2490000000    -0.2780000000
  205      H       3.3320000000     7.9450000000     0.6450000000
  206      C       2.7430000000     4.6510000000    -0.3210000000
  207      H       2.8570000000     3.6690000000     0.1530000000
  208      H       1.6790000000     4.8070000000    -0.5240000000
  209      H       3.2510000000     4.6230000000    -1.2910000000
  210      H       4.9740000000     6.7070000000     2.6270000000
  211      H       0.2010000000     6.7790000000     2.5510000000
  212      C      -0.8500000000     6.8180000000     2.2420000000
  213      H      -0.8950000000     7.3390000000     1.2780000000
  214      C      -1.4440000000     5.4100000000     2.1220000000
  215      H      -1.3930000000     4.9300000000     3.1090000000
  216      C      -2.9130000000     5.4620000000     1.6970000000
  217      H      -3.0070000000     5.9200000000     0.7020000000
  218      H      -3.3520000000     4.4590000000     1.6490000000
  219      H      -3.5110000000     6.0590000000     2.3980000000
  220      C      -0.6310000000     4.5600000000     1.1460000000
  221      H       0.4210000000     4.5090000000     1.4510000000
  222      H      -1.0170000000     3.5360000000     1.1070000000
  223      H      -0.6690000000     4.9780000000     0.1310000000
  224      H      -1.3980000000     7.4210000000     2.9760000000
  225      H      -6.3920000000     4.2040000000     3.0060000000
  226      C      -6.8230000000     4.2050000000     2.0000000000
  227      H      -6.0800000000     4.6440000000     1.3280000000
  228      C      -7.1780000000     2.7970000000     1.5550000000
  229      H      -7.9130000000     2.3260000000     2.2170000000
  230      H      -7.6280000000     2.8050000000     0.5530000000
  231      C      -5.9700000000     1.8960000000     1.4610000000
  232      O      -4.8230000000     2.2960000000     1.4030000000
  233      O      -6.3090000000     0.6180000000     1.4220000000
  234      H      -5.5210000000     0.0940000000     1.1180000000
  235      H      -7.7100000000     4.8460000000     2.0080000000
  236      H     -11.2270000000    -0.0310000000    -2.6510000000
  237      C     -10.3410000000     0.3360000000    -2.1230000000
  238      H     -10.6780000000     0.8710000000    -1.2260000000
  239      C      -9.4030000000    -0.8130000000    -1.7480000000
  240      H      -9.9360000000    -1.5170000000    -1.0950000000
  241      H      -9.1230000000    -1.3760000000    -2.6470000000
  242      C      -8.1370000000    -0.3580000000    -1.0170000000
  243      H      -8.3930000000     0.3220000000    -0.1970000000
  244      H      -7.6250000000    -1.2100000000    -0.5570000000
  245      S      -6.9110000000     0.5290000000    -2.0380000000
  246      C      -6.0410000000    -0.8760000000    -2.7920000000
  247      H      -6.6540000000    -1.3720000000    -3.5490000000
  248      H      -5.1220000000    -0.5020000000    -3.2580000000
  249      H      -5.7680000000    -1.6080000000    -2.0270000000
  250      H      -9.8300000000     1.0550000000    -2.7720000000
  251      H      -5.8110000000     4.1670000000    -3.0040000000
  252      C      -5.2690000000     4.5300000000    -2.1240000000
  253      H      -6.0120000000     4.7680000000    -1.3550000000
  254      C      -4.2790000000     3.4820000000    -1.6150000000
  255      H      -3.5230000000     3.2350000000    -2.3680000000
  256      H      -3.7600000000     3.8240000000    -0.7140000000
  257      H      -4.7980000000     2.5530000000    -1.3620000000
  258      H      -4.7740000000     5.4680000000    -2.4050000000
  259      H      -1.5670000000     9.0160000000    -3.2220000000
  260      C      -0.7690000000     9.0180000000    -2.4710000000
  261      H      -0.8890000000     9.9050000000    -1.8390000000
  262      C      -0.8160000000     7.7340000000    -1.6300000000
  263      H      -0.0440000000     7.8010000000    -0.8510000000
  264      H      -1.7740000000     7.6900000000    -1.0960000000
  265      C      -0.6360000000     6.4590000000    -2.4020000000
  266      C      -1.5790000000     5.4800000000    -2.5900000000
  267      H      -2.6030000000     5.4570000000    -2.2460000000
  268      N      -1.0600000000     4.4220000000    -3.2920000000
  269      H      -1.5560000000     3.5870000000    -3.6280000000
  270      C       0.2510000000     4.6950000000    -3.5730000000
  271      C       1.2040000000     3.9100000000    -4.2300000000
  272      H       0.9400000000     2.9270000000    -4.6090000000
  273      C       2.4770000000     4.4350000000    -4.3770000000
  274      H       3.2410000000     3.8490000000    -4.8790000000
  275      C       2.7940000000     5.7200000000    -3.8930000000
  276      H       3.8000000000     6.1080000000    -4.0350000000
  277      C       1.8500000000     6.4900000000    -3.2360000000
  278      H       2.1090000000     7.4760000000    -2.8610000000
  279      C       0.5570000000     5.9760000000    -3.0480000000
  280      H       0.1840000000     9.1040000000    -3.0040000000
  281      O      -0.4470000000    -0.5610000000    -4.6140000000
  282      H      -0.2720000000     0.3900000000    -4.6390000000
  283      H      -1.4150000000    -0.5460000000    -4.3990000000
  284      O       0.4410000000    -3.1420000000    -4.5070000000
  285      H      -0.2010000000    -3.2840000000    -3.8000000000
  286      H       0.2960000000    -2.1950000000    -4.7220000000
 ----------------------------------------------------------------
 Nuclear Repulsion Energy =       28784.70846006 hartrees
 There are      443 alpha and      443 beta electrons
 Requested basis set is 6-31G(d)
 There are 796 shells and 2023 basis functions

 Total QAlloc Memory Limit  12000 MB
 Mega-Array Size      3911 MB
 MEM_STATIC part      4000 MB

 A cutoff of  1.0D-14 yielded  92352 shell pairs
 There are    584826 function pairs
 Smallest overlap matrix eigenvalue = 3.52E-04

 Scale SEOQF with 1.000000e-02/1.000000e-02/1.000000e-02

 Standard Electronic Orientation quadrupole field applied
 Nucleus-field energy     =     0.0000000859 hartrees
 Guess from superposition of atomic densities
 Warning:  Energy on first SCF cycle will be non-variational
 SAD guess density has 885.000003 electrons

 -----------------------------------------------------------------------
  General SCF calculation program by
  Eric Jon Sundstrom, Paul Horn, Yuezhi Mao, Dmitri Zuev, Alec White,
  David Stuck, Shaama M.S., Shane Yost, Joonho Lee, David Small,
  Daniel Levine, Susi Lehtola, Hugh Burton, Evgeny Epifanovsky,
  Bang C. Huynh
 -----------------------------------------------------------------------
=================================================
        Doing projection-based embedding         
      F. Manby et al. JCTC, 8, 2564 (2012)       
=================================================

****************************************************
   Low-level SCF calculation for the whole system   
****************************************************
----------------------------------------------
 Summary of the low-level theory: 
 Exchange:     0.1670 Hartree-Fock + 1.0000 wB97X-V + LR-HF
 Correlation:  1.0000 wB97X-V
 Using Euler-Maclaurin-Lebedev (75,302) quadrature formula
 Nonlocal Correlation:  VV10 with C = 0.0100 and b = 6.00 and scale = 1.00000
 Grid used for NLC:  SG-1 standard quadrature
----------------------------------------------
 using 8 threads for integral computing
 -------------------------------------------------------
 OpenMP Integral computing Module                
 Release: version 1.0, May 2013, Q-Chem Inc. Pittsburgh 
 -------------------------------------------------------
 A restricted SCF calculation will be
 performed using DIIS
 SCF converges when DIIS error is below 1.0e-08
 ---------------------------------------
  Cycle       Energy         DIIS error
 ---------------------------------------
    1   -5526.1081942956      1.71e-02  
    2   -5494.8377362062      1.48e-03  
    3   -5495.2026990171      1.38e-03  
    4   -5495.8908682782      2.39e-04  
    5   -5495.9106739590      1.12e-04  
    6   -5495.9155995855      2.87e-05  
    7   -5495.9159440534      6.65e-06  
    8   -5495.9159722350      2.30e-06  
    9   -5495.9159764156      1.06e-06  
   10   -5495.9159774895      4.00e-07  
   11   -5495.9159776815      1.98e-07  
   12   -5495.9159777302      7.98e-08  
   13   -5495.9159777379      2.95e-08  
   14   -5495.9159777395      1.24e-08  
   15   -5495.9159777397      6.06e-09  Convergence criterion met
 ---------------------------------------
 SCF time:   CPU 56196.87s  wall 7124.00s 
 SCF   energy in the final basis set =    -5495.9159777397
 Total energy in the final basis set =    -5495.9159777397

****************************************************
             Start embedding calculation            
****************************************************
----------------------------------------------
 Summary of the high-level theory: 
 Exchange:     0.1670 Hartree-Fock + 1.0000 wB97X-V + LR-HF
 Correlation:  1.0000 wB97X-V
 Using Euler-Maclaurin-Lebedev (75,302) quadrature formula
 Nonlocal Correlation:  VV10 with C = 0.0100 and b = 6.00 and scale = 1.00000
 Grid used for NLC:  SG-1 standard quadrature
----------------------------------------------
Doing R-in-R Embedding Calculation
Number of fragments: 2
Embedded fragment(s): 1 
NOcc for each fragment
           75
          368
NBasis for each fragment
          352
         1671
Variational space of the embedded problem: 
NOcc (active)  = 75
NOcc (fixed)   = 368
NVir (total)   = 1580
Read converged orbitals from disk
=========================================================
       Doing SPADE partition for the orbital space       
     D. Claudino and N. Mayhall JCTC 15, 1053 (2019)     
=========================================================
SPADE singular values:
 1.0000 1.0000 1.0000 1.0000 1.0000 1.0000 1.0000 1.0000 1.0000 1.0000
 1.0000 1.0000 1.0000 1.0000 1.0000 1.0000 1.0000 1.0000 1.0000 1.0000
 1.0000 1.0000 1.0000 1.0000 1.0000 1.0000 1.0000 1.0000 1.0000 1.0000
 1.0000 1.0000 1.0000 1.0000 1.0000 1.0000 1.0000 1.0000 1.0000 1.0000
 1.0000 0.9999 0.9999 0.9999 0.9999 0.9998 0.9998 0.9997 0.9997 0.9997
 0.9996 0.9995 0.9995 0.9994 0.9992 0.9992 0.9991 0.9990 0.9989 0.9988
 0.9987 0.9985 0.9984 0.9982 0.9981 0.9980 0.9976 0.9976 0.9975 0.9972
 0.9964 0.9956 0.9943 0.9730 0.9714 0.1591 0.1576 0.1338 0.1148 0.1004
 0.0981 0.0826 0.0782 0.0777 0.0760 0.0675 0.0664 0.0641 0.0618 0.0596
 0.0558 0.0524 0.0490 0.0478 0.0447 0.0427 0.0422 0.0395 0.0377 0.0370
 0.0340 0.0323 0.0308 0.0303 0.0300 0.0246 0.0235 0.0228 0.0212 0.0198
 0.0196 0.0184 0.0174 0.0167 0.0146 0.0143 0.0133 0.0117 0.0116 0.0112
 0.0110 0.0102 0.0096 0.0087 0.0082 0.0080 0.0074 0.0073 0.0066 0.0065
 0.0062 0.0061 0.0058 0.0054 0.0052 0.0052 0.0049 0.0047 0.0042 0.0039
 0.0038 0.0036 0.0034 0.0032 0.0031 0.0030 0.0028 0.0027 0.0026 0.0024
 0.0023 0.0023 0.0022 0.0021 0.0021 0.0020 0.0019 0.0018 0.0018 0.0017
 0.0016 0.0015 0.0015 0.0015 0.0014 0.0014 0.0013 0.0013 0.0012 0.0011
 0.0011 0.0011 0.0010 0.0010 0.0009 0.0009 0.0009 0.0009 0.0009 0.0008
 0.0008 0.0008 0.0008 0.0007 0.0007 0.0007 0.0007 0.0007 0.0006 0.0006
 0.0006 0.0006 0.0006 0.0006 0.0006 0.0005 0.0005 0.0005 0.0005 0.0005
 0.0005 0.0005 0.0004 0.0004 0.0004 0.0004 0.0004 0.0004 0.0004 0.0004
 0.0004 0.0003 0.0003 0.0003 0.0003 0.0003 0.0003 0.0003 0.0003 0.0003
 0.0003 0.0003 0.0002 0.0002 0.0002 0.0002 0.0002 0.0002 0.0002 0.0002
 0.0002 0.0002 0.0002 0.0002 0.0002 0.0002 0.0002 0.0001 0.0001 0.0001
 0.0001 0.0001 0.0001 0.0001 0.0001 0.0001 0.0001 0.0001 0.0001 0.0001
 0.0001 0.0001 0.0001 0.0001 0.0001 0.0001 0.0001 0.0001 0.0001 0.0001
 0.0001 0.0001 0.0001 0.0001 0.0001 0.0001 0.0001 0.0001 0.0001 0.0001
 0.0001 0.0001 0.0001 0.0001 0.0001 0.0001 0.0001 0.0000 0.0000 0.0000
 0.0000 0.0000 0.0000 0.0000 0.0000 0.0000 0.0000 0.0000 0.0000 0.0000
 0.0000 0.0000 0.0000 0.0000 0.0000 0.0000 0.0000 0.0000 0.0000 0.0000
 0.0000 0.0000 0.0000 0.0000 0.0000 0.0000 0.0000 0.0000 0.0000 0.0000
 0.0000 0.0000 0.0000 0.0000 0.0000 0.0000 0.0000 0.0000 0.0000 0.0000
 0.0000 0.0000 0.0000 0.0000 0.0000 0.0000 0.0000 0.0000 0.0000 0.0000
 0.0000 0.0000 0.0000 0.0000 0.0000 0.0000 0.0000 0.0000 0.0000 0.0000
 0.0000 0.0000 0.0000 0.0000 0.0000 0.0000 0.0000 0.0000 0.0000 0.0000
 0.0000 0.0000
Early stop requested; no embedded SCF will be performed

 368 environment occs will be part of frozen-core in future post-HF calculations
 
 --------------------------------------------------------------
 
                    Orbital Energies (a.u.)
 --------------------------------------------------------------
 
 Alpha MOs
 -- Occupied --
-88.8055 -88.7810 -19.1961 -19.1830 -19.1722 -19.1498 -19.1436 -19.1299
-19.1193 -19.0829 -19.0816 -14.4043 -14.3636 -10.3379 -10.3362 -10.2865
-10.2734 -10.2692 -10.2667 -10.2457 -10.2401 -10.2338 -10.2321 -10.2316
-10.2309 -10.2291 -10.2279 -10.2273 -10.2260 -10.2251 -10.2243 -10.2242
-10.2239 -10.2234 -10.2231 -10.2223 -10.2221 -10.2215 -10.2214 -10.2200
-10.2189 -10.2178 -10.2177 -10.2177 -10.2162 -10.2158 -10.2153 -10.2149
-10.2140 -10.2138 -10.2136 -10.2135 -10.2122 -10.2121 -10.2119 -10.2100
-10.2099 -10.2089 -10.2086 -10.2085 -10.2081 -10.2080 -10.2077 -10.2074
-10.2067 -10.2064 -10.2058 -10.2051 -10.2046 -10.2041 -10.2007 -10.1999
-10.1998 -10.1996 -10.1988 -10.1987 -10.1984 -10.1980 -10.1965 -10.1949
-10.1949 -10.1910 -10.1908 -10.1908 -10.1868 -10.1832 -10.1823 -10.1809
-10.1786 -10.1785 -10.1765  -7.9705  -7.9467  -5.9287  -5.9244  -5.9172
 -5.9047  -5.9005  -5.8934  -1.1517  -1.1242  -1.1143  -1.1026  -1.0615
 -1.0572  -1.0327  -1.0183  -1.0147  -1.0064  -0.9642  -0.9340  -0.9231
 -0.9198  -0.8947  -0.8881  -0.8860  -0.8759  -0.8743  -0.8712  -0.8706
 -0.8680  -0.8620  -0.8559  -0.8536  -0.8518  -0.8486  -0.8486  -0.8363
 -0.8320  -0.8214  -0.8102  -0.8073  -0.8035  -0.8022  -0.7999  -0.7986
 -0.7951  -0.7922  -0.7906  -0.7859  -0.7773  -0.7751  -0.7635  -0.7577
 -0.7567  -0.7519  -0.7470  -0.7468  -0.7466  -0.7429  -0.7413  -0.7394
 -0.7346  -0.7301  -0.7247  -0.7228  -0.7126  -0.7032  -0.6953  -0.6914
 -0.6868  -0.6834  -0.6814  -0.6791  -0.6698  -0.6675  -0.6659  -0.6566
 -0.6551  -0.6551  -0.6526  -0.6446  -0.6333  -0.6306  -0.6284  -0.6276
 -0.6225  -0.6212  -0.6195  -0.6156  -0.6146  -0.6079  -0.6033  -0.5972
 -0.5961  -0.5884  -0.5846  -0.5616  -0.5583  -0.5575  -0.5448  -0.5418
 -0.5387  -0.5366  -0.5324  -0.5286  -0.5269  -0.5240  -0.5232  -0.5218
 -0.5196  -0.5181  -0.5171  -0.5134  -0.5133  -0.5124  -0.5110  -0.5105
 -0.5093  -0.5079  -0.5050  -0.5017  -0.5013  -0.4985  -0.4959  -0.4948
 -0.4942  -0.4937  -0.4873  -0.4872  -0.4840  -0.4839  -0.4827  -0.4820
 -0.4809  -0.4806  -0.4783  -0.4775  -0.4761  -0.4760  -0.4757  -0.4729
 -0.4726  -0.4709  -0.4704  -0.4695  -0.4681  -0.4671  -0.4648  -0.4646
 -0.4627  -0.4622  -0.4600  -0.4595  -0.4578  -0.4574  -0.4572  -0.4554
 -0.4550  -0.4541  -0.4533  -0.4530  -0.4515  -0.4499  -0.4492  -0.4448
 -0.4436  -0.4427  -0.4392  -0.4387  -0.4380  -0.4368  -0.4355  -0.4351
 -0.4345  -0.4326  -0.4314  -0.4305  -0.4287  -0.4280  -0.4262  -0.4241
 -0.4230  -0.4223  -0.4198  -0.4193  -0.4188  -0.4174  -0.4135  -0.4129
 -0.4125  -0.4113  -0.4098  -0.4097  -0.4071  -0.4058  -0.4058  -0.4042
 -0.4034  -0.4001  -0.3996  -0.3992  -0.3960  -0.3959  -0.3956  -0.3941
 -0.3913  -0.3903  -0.3891  -0.3882  -0.3868  -0.3859  -0.3856  -0.3851
 -0.3846  -0.3834  -0.3828  -0.3817  -0.3812  -0.3790  -0.3782  -0.3770
 -0.3763  -0.3750  -0.3736  -0.3728  -0.3725  -0.3677  -0.3667  -0.3659
 -0.3654  -0.3639  -0.3632  -0.3628  -0.3621  -0.3614  -0.3611  -0.3603
 -0.3593  -0.3590  -0.3586  -0.3576  -0.3563  -0.3557  -0.3554  -0.3547
 -0.3539  -0.3480  -0.3463  -0.3438  -0.3434  -0.3420  -0.3400  -0.3384
 -0.3376  -0.3325  -0.3324  -0.3316  -0.3166  -0.3113  -0.3081  -0.3054
 -0.3018  -0.2993  -0.2867  -0.2840  -0.2743  -0.2695  -0.2598  -0.2568
 -0.2551  -0.2460  -0.2457  -0.2393  -0.2328  -0.2304  -0.2201  -0.1972
-10.1654 -12.2412 -10.2765 -10.1477 -11.0693 -10.1342 -10.1174  -9.9077
-10.0047 -10.2420  -9.8546 -11.6683 -12.7279 -10.0911  -9.8872  -9.9197
 -9.9503  -9.9102 -10.4786  -1.2667  -1.6736  -1.2679  -1.1124  -1.3337
 -0.8609 -13.9951  -0.8400  -0.8983  -0.8042  -0.7885  -1.2146  -0.7969
 -0.9440  -1.0855  -0.9644  -0.9718  -1.3480  -1.2674  -0.7330  -0.6259
 -0.9033  -0.5314  -0.5296  -0.5115  -0.6900  -0.5159  -0.4976  -1.7029
 -0.4754  -0.5017  -0.4694  -0.4934  -0.4371  -0.4658  -0.4278  -0.4333
 -0.4022  -0.4750  -0.4382  -0.3998  -0.4725  -0.3981  -0.3982  -0.4004
 -0.4148  -0.4552  -0.4076  -0.4003  -0.4298  -0.4060  -0.3910  -0.3381
 -0.4139  -0.4315  -0.5673
 -- Virtual --
  0.0974   0.1360   0.1473   0.1519   0.1534   0.1546   0.1549   0.1639
  0.1723   0.1789   0.1852   0.1871   0.1897   0.1938   0.1977   0.2062
  0.2088   0.2107   0.2121   0.2157   0.2165   0.2218   0.2250   0.2264
  0.2294   0.2300   0.2339   0.2358   0.2361   0.2378   0.2407   0.2414
  0.2436   0.2458   0.2463   0.2492   0.2505   0.2517   0.2536   0.2542
  0.2564   0.2586   0.2592   0.2596   0.2605   0.2639   0.2648   0.2664
  0.2677   0.2684   0.2699   0.2716   0.2740   0.2747   0.2756   0.2775
  0.2781   0.2793   0.2814   0.2835   0.2855   0.2866   0.2873   0.2892
  0.2899   0.2918   0.2920   0.2932   0.2950   0.2960   0.2968   0.2975
  0.2994   0.3007   0.3015   0.3025   0.3033   0.3035   0.3051   0.3064
  0.3070   0.3074   0.3091   0.3099   0.3104   0.3117   0.3119   0.3127
  0.3134   0.3157   0.3163   0.3174   0.3187   0.3189   0.3193   0.3199
  0.3207   0.3213   0.3230   0.3236   0.3247   0.3262   0.3266   0.3273
  0.3278   0.3289   0.3305   0.3309   0.3314   0.3323   0.3329   0.3332
  0.3342   0.3348   0.3351   0.3365   0.3372   0.3387   0.3388   0.3392
  0.3396   0.3408   0.3424   0.3425   0.3438   0.3441   0.3458   0.3466
  0.3482   0.3489   0.3491   0.3503   0.3511   0.3524   0.3528   0.3537
  0.3541   0.3556   0.3563   0.3571   0.3581   0.3585   0.3605   0.3614
  0.3616   0.3625   0.3630   0.3641   0.3649   0.3673   0.3685   0.3700
  0.3712   0.3716   0.3723   0.3728   0.3749   0.3762   0.3771   0.3773
  0.3785   0.3790   0.3801   0.3818   0.3824   0.3828   0.3835   0.3851
  0.3868   0.3875   0.3886   0.3898   0.3908   0.3923   0.3926   0.3931
  0.3942   0.3947   0.3969   0.3972   0.3977   0.3998   0.4006   0.4012
  0.4022   0.4036   0.4044   0.4050   0.4059   0.4072   0.4089   0.4095
  0.4106   0.4117   0.4137   0.4144   0.4150   0.4155   0.4168   0.4189
  0.4193   0.4194   0.4212   0.4220   0.4231   0.4235   0.4248   0.4272
  0.4284   0.4299   0.4311   0.4317   0.4324   0.4345   0.4354   0.4359
  0.4366   0.4397   0.4408   0.4429   0.4439   0.4447   0.4458   0.4473
  0.4477   0.4484   0.4495   0.4511   0.4516   0.4536   0.4547   0.4577
  0.4587   0.4603   0.4616   0.4631   0.4661   0.4678   0.4693   0.4710
  0.4718   0.4736   0.4742   0.4777   0.4798   0.4836   0.4847   0.4855
  0.4897   0.4908   0.4912   0.4944   0.4953   0.4972   0.4985   0.5012
  0.5030   0.5048   0.5055   0.5080   0.5087   0.5128   0.5134   0.5154
  0.5184   0.5228   0.5237   0.5257   0.5288   0.5297   0.5332   0.5349
  0.5378   0.5403   0.5465   0.5515   0.5538   0.5592   0.5626   0.5651
  0.5769   0.5834   0.5854   0.5910   0.5963   0.5983   0.6053   0.6098
  0.6161   0.6184   0.6290   0.6305   0.6340   0.6365   0.6381   0.6393
  0.6412   0.6484   0.6504   0.6517   0.6568   0.6601   0.6604   0.6629
  0.6649   0.6659   0.6689   0.6697   0.6716   0.6732   0.6742   0.6748
  0.6765   0.6774   0.6790   0.6826   0.6833   0.6842   0.6860   0.6871
  0.6881   0.6890   0.6903   0.6916   0.6931   0.6950   0.6959   0.6973
  0.6990   0.6997   0.6998   0.7014   0.7029   0.7033   0.7059   0.7086
  0.7102   0.7112   0.7121   0.7125   0.7145   0.7162   0.7178   0.7186
  0.7196   0.7201   0.7207   0.7232   0.7249   0.7252   0.7284   0.7289
  0.7301   0.7311   0.7330   0.7349   0.7357   0.7378   0.7393   0.7394
  0.7411   0.7439   0.7451   0.7468   0.7487   0.7514   0.7520   0.7529
  0.7545   0.7560   0.7572   0.7579   0.7600   0.7604   0.7615   0.7628
  0.7650   0.7664   0.7676   0.7690   0.7700   0.7710   0.7718   0.7725
  0.7759   0.7775   0.7781   0.7801   0.7821   0.7831   0.7846   0.7857
  0.7866   0.7872   0.7881   0.7897   0.7916   0.7924   0.7929   0.7944
  0.7964   0.7972   0.7996   0.8004   0.8010   0.8021   0.8033   0.8055
  0.8084   0.8095   0.8113   0.8122   0.8134   0.8146   0.8160   0.8170
  0.8175   0.8210   0.8214   0.8235   0.8256   0.8260   0.8287   0.8291
  0.8301   0.8313   0.8332   0.8345   0.8355   0.8381   0.8407   0.8418
  0.8429   0.8437   0.8444   0.8452   0.8458   0.8491   0.8497   0.8514
  0.8525   0.8535   0.8551   0.8569   0.8593   0.8600   0.8617   0.8630
  0.8642   0.8650   0.8664   0.8674   0.8687   0.8704   0.8711   0.8730
  0.8741   0.8747   0.8767   0.8772   0.8790   0.8809   0.8827   0.8845
  0.8859   0.8875   0.8880   0.8894   0.8925   0.8935   0.8940   0.8963
  0.8978   0.8998   0.9011   0.9027   0.9034   0.9052   0.9085   0.9089
  0.9095   0.9111   0.9123   0.9148   0.9156   0.9173   0.9195   0.9198
  0.9228   0.9231   0.9242   0.9274   0.9295   0.9300   0.9310   0.9342
  0.9355   0.9373   0.9386   0.9400   0.9411   0.9434   0.9465   0.9480
  0.9497   0.9525   0.9543   0.9570   0.9583   0.9594   0.9604   0.9614
  0.9624   0.9628   0.9657   0.9675   0.9691   0.9696   0.9712   0.9739
  0.9741   0.9755   0.9778   0.9819   0.9829   0.9847   0.9857   0.9868
  0.9886   0.9902   0.9919   0.9926   0.9973   0.9990   0.9999   1.0008
  1.0050   1.0061   1.0065   1.0087   1.0098   1.0118   1.0119   1.0135
  1.0159   1.0171   1.0175   1.0191   1.0203   1.0218   1.0238   1.0243
  1.0250   1.0278   1.0284   1.0297   1.0312   1.0334   1.0339   1.0354
  1.0361   1.0385   1.0393   1.0413   1.0416   1.0422   1.0436   1.0445
  1.0450   1.0463   1.0479   1.0492   1.0505   1.0527   1.0539   1.0543
  1.0559   1.0575   1.0586   1.0597   1.0606   1.0612   1.0625   1.0640
  1.0644   1.0653   1.0660   1.0666   1.0681   1.0699   1.0709   1.0726
  1.0729   1.0735   1.0743   1.0749   1.0758   1.0768   1.0774   1.0787
  1.0801   1.0806   1.0818   1.0823   1.0842   1.0846   1.0854   1.0867
  1.0872   1.0883   1.0887   1.0896   1.0910   1.0920   1.0934   1.0944
  1.0952   1.0956   1.0963   1.0989   1.1002   1.1004   1.1016   1.1022
  1.1041   1.1056   1.1058   1.1076   1.1079   1.1094   1.1114   1.1116
  1.1128   1.1137   1.1151   1.1157   1.1173   1.1184   1.1192   1.1208
  1.1211   1.1216   1.1223   1.1232   1.1237   1.1247   1.1256   1.1275
  1.1287   1.1297   1.1307   1.1326   1.1346   1.1354   1.1364   1.1376
  1.1385   1.1393   1.1405   1.1422   1.1428   1.1432   1.1457   1.1462
  1.1479   1.1480   1.1491   1.1499   1.1514   1.1532   1.1543   1.1549
  1.1578   1.1598   1.1599   1.1607   1.1637   1.1644   1.1651   1.1675
  1.1680   1.1691   1.1705   1.1708   1.1722   1.1736   1.1755   1.1773
  1.1811   1.1817   1.1819   1.1841   1.1847   1.1875   1.1882   1.1884
  1.1907   1.1922   1.1945   1.1956   1.1979   1.1992   1.2014   1.2021
  1.2048   1.2051   1.2068   1.2083   1.2097   1.2104   1.2123   1.2135
  1.2148   1.2159   1.2172   1.2204   1.2214   1.2239   1.2266   1.2281
  1.2293   1.2318   1.2343   1.2349   1.2364   1.2394   1.2406   1.2430
  1.2443   1.2460   1.2476   1.2490   1.2510   1.2531   1.2541   1.2569
  1.2592   1.2610   1.2649   1.2662   1.2687   1.2700   1.2707   1.2725
  1.2750   1.2778   1.2802   1.2812   1.2820   1.2855   1.2858   1.2889
  1.2924   1.2959   1.2964   1.2974   1.3015   1.3018   1.3035   1.3050
  1.3104   1.3117   1.3146   1.3153   1.3162   1.3193   1.3204   1.3224
  1.3246   1.3251   1.3311   1.3340   1.3350   1.3364   1.3404   1.3422
  1.3469   1.3505   1.3512   1.3533   1.3553   1.3618   1.3634   1.3662
  1.3688   1.3718   1.3740   1.3749   1.3788   1.3813   1.3835   1.3869
  1.3896   1.3902   1.3933   1.3951   1.3991   1.4014   1.4040   1.4079
  1.4097   1.4120   1.4159   1.4167   1.4194   1.4205   1.4242   1.4255
  1.4267   1.4274   1.4298   1.4353   1.4377   1.4394   1.4401   1.4429
  1.4464   1.4497   1.4501   1.4533   1.4553   1.4597   1.4614   1.4687
  1.4752   1.4773   1.4827   1.4864   1.4900   1.4937   1.4974   1.5014
  1.5046   1.5089   1.5137   1.5144   1.5175   1.5225   1.5248   1.5278
  1.5294   1.5333   1.5385   1.5399   1.5436   1.5447   1.5487   1.5490
  1.5528   1.5547   1.5584   1.5608   1.5629   1.5642   1.5667   1.5719
  1.5768   1.5811   1.5857   1.5878   1.5907   1.5914   1.5926   1.5940
  1.5962   1.5985   1.6004   1.6027   1.6035   1.6059   1.6096   1.6107
  1.6119   1.6140   1.6149   1.6156   1.6179   1.6190   1.6206   1.6219
  1.6241   1.6252   1.6252   1.6263   1.6295   1.6318   1.6326   1.6343
  1.6360   1.6375   1.6386   1.6400   1.6407   1.6418   1.6439   1.6464
  1.6484   1.6513   1.6532   1.6549   1.6581   1.6591   1.6609   1.6647
  1.6652   1.6671   1.6697   1.6710   1.6750   1.6758   1.6776   1.6783
  1.6804   1.6806   1.6817   1.6840   1.6865   1.6890   1.6919   1.6930
  1.6971   1.6982   1.6993   1.7022   1.7026   1.7033   1.7077   1.7106
  1.7114   1.7156   1.7179   1.7209   1.7220   1.7243   1.7257   1.7284
  1.7297   1.7354   1.7443   1.7547   1.7594   1.7626   1.7658   1.7729
  1.7760   1.7830   1.7913   1.7978   1.7981   1.8044   1.8065   1.8118
  1.8177   1.8200   1.8238   1.8252   1.8375   1.8411   1.8470   1.8496
  1.8505   1.8593   1.8634   1.8660   1.8679   1.8695   1.8748   1.8773
  1.8796   1.8830   1.8873   1.8891   1.8916   1.8923   1.8946   1.8956
  1.8969   1.9008   1.9019   1.9024   1.9036   1.9066   1.9072   1.9083
  1.9094   1.9117   1.9146   1.9250   1.9256   1.9264   1.9288   1.9297
  1.9320   1.9336   1.9357   1.9407   1.9436   1.9458   1.9481   1.9497
  1.9522   1.9556   1.9582   1.9652   1.9658   1.9710   1.9733   1.9742
  1.9755   1.9775   1.9805   1.9815   1.9829   1.9840   1.9856   1.9873
  1.9889   1.9923   1.9924   1.9939   1.9948   1.9963   1.9992   2.0010
  2.0045   2.0051   2.0069   2.0086   2.0110   2.0126   2.0147   2.0158
  2.0177   2.0195   2.0207   2.0221   2.0232   2.0271   2.0288   2.0296
  2.0332   2.0384   2.0398   2.0435   2.0458   2.0469   2.0531   2.0540
  2.0557   2.0587   2.0644   2.0668   2.0716   2.0725   2.0750   2.0767
  2.0787   2.0805   2.0851   2.0888   2.0891   2.0951   2.0965   2.1002
  2.1036   2.1059   2.1072   2.1084   2.1099   2.1118   2.1137   2.1167
  2.1178   2.1193   2.1203   2.1225   2.1240   2.1243   2.1260   2.1277
  2.1282   2.1304   2.1328   2.1331   2.1340   2.1348   2.1354   2.1364
  2.1375   2.1378   2.1396   2.1410   2.1420   2.1446   2.1452   2.1469
  2.1481   2.1488   2.1503   2.1512   2.1520   2.1528   2.1574   2.1599
  2.1634   2.1654   2.1674   2.1684   2.1691   2.1724   2.1734   2.1736
  2.1746   2.1766   2.1784   2.1817   2.1843   2.1844   2.1863   2.1894
  2.1909   2.1931   2.1948   2.1978   2.1984   2.1992   2.2004   2.2010
  2.2023   2.2044   2.2051   2.2071   2.2081   2.2113   2.2142   2.2162
  2.2185   2.2199   2.2206   2.2239   2.2269   2.2291   2.2293   2.2319
  2.2338   2.2342   2.2379   2.2411   2.2422   2.2455   2.2509   2.2542
  2.2557   2.2598   2.2621   2.2642   2.2657   2.2673   2.2692   2.2727
  2.2742   2.2763   2.2811   2.2821   2.2849   2.2871   2.2879   2.2903
  2.2940   2.2975   2.3044   2.3062   2.3065   2.3075   2.3092   2.3103
  2.3144   2.3200   2.3210   2.3219   2.3231   2.3278   2.3287   2.3309
  2.3320   2.3335   2.3345   2.3373   2.3398   2.3420   2.3432   2.3472
  2.3483   2.3508   2.3535   2.3544   2.3579   2.3620   2.3652   2.3659
  2.3717   2.3735   2.3747   2.3769   2.3820   2.3891   2.3916   2.3955
  2.3960   2.3969   2.4015   2.4071   2.4089   2.4113   2.4158   2.4162
  2.4195   2.4207   2.4240   2.4245   2.4278   2.4283   2.4295   2.4307
  2.4329   2.4332   2.4352   2.4374   2.4379   2.4388   2.4399   2.4405
  2.4415   2.4446   2.4452   2.4475   2.4478   2.4496   2.4516   2.4540
  2.4556   2.4577   2.4592   2.4610   2.4637   2.4643   2.4650   2.4678
  2.4703   2.4715   2.4724   2.4740   2.4766   2.4782   2.4798   2.4815
  2.4834   2.4839   2.4846   2.4869   2.4886   2.4906   2.4961   2.4971
  2.4977   2.4986   2.5005   2.5012   2.5028   2.5034   2.5089   2.5102
  2.5137   2.5141   2.5155   2.5181   2.5187   2.5210   2.5212   2.5237
  2.5279   2.5297   2.5306   2.5338   2.5377   2.5381   2.5436   2.5464
  2.5476   2.5498   2.5505   2.5532   2.5537   2.5555   2.5557   2.5564
  2.5588   2.5655   2.5673   2.5711   2.5731   2.5771   2.5792   2.5842
  2.5929   2.5958   2.5990   2.6046   2.6060   2.6088   2.6133   2.6140
  2.6175   2.6205   2.6232   2.6266   2.6309   2.6400   2.6435   2.6536
  2.6558   2.6604   2.6625   2.6633   2.6685   2.6742   2.6750   2.6812
  2.6855   2.6863   2.6888   2.6919   2.6939   2.6976   2.6987   2.7000
  2.7032   2.7050   2.7077   2.7100   2.7105   2.7163   2.7179   2.7184
  2.7190   2.7234   2.7275   2.7328   2.7404   2.7455   2.7483   2.7528
  2.7558   2.7588   2.7663   2.7673   2.7679   2.7713   2.7738   2.7741
  2.7771   2.7827   2.7852   2.7875   2.7897   2.7925   2.8020   2.8056
  2.8122   2.8152   2.8168   2.8198   2.8230   2.8264   2.8303   2.8315
  2.8330   2.8380   2.8422   2.8459   2.8461   2.8520   2.8551   2.8628
  2.8671   2.8707   2.8736   2.8743   2.8808   2.8818   2.8829   2.8871
  2.8887   2.8898   2.8931   2.8938   2.8975   2.8985   2.9010   2.9034
  2.9055   2.9094   2.9133   2.9176   2.9198   2.9248   2.9328   2.9344
  2.9361   2.9369   2.9403   2.9408   2.9451   2.9478   2.9494   2.9507
  2.9560   2.9611   2.9618   2.9716   2.9746   2.9765   2.9785   2.9884
  2.9894   2.9953   3.0191   3.0202   3.0477   3.0539   3.0674   3.0720
  3.0753   3.0768   3.0801   3.0835   3.0890   3.0923   3.0967   3.0995
  3.1112   3.1234   3.1353   3.1439   3.1506   3.1786   3.2011   3.2048
  3.2200   3.2208   3.2300   3.2434   3.2457   3.2567   3.2606   3.2797
  3.3004   3.3126   3.3175   3.3195   3.3295   3.3547   3.3672   3.3839
  3.4628   3.6083   3.6101   3.6167   3.6604   3.9909   4.1053   4.1274
  4.1467   4.1541   4.1942   4.2260   4.2655   4.3003   4.3157   4.3190
  4.3233   4.3335   4.3347   4.3376   4.3393   4.3456   4.3494   4.3514
  4.3522   4.3607   4.3634   4.3638   4.3673   4.3731   4.3757   4.3764
  4.3802   4.3857   4.3883   4.3925   4.3955   4.4034   4.4068   4.4090
  4.4104   4.4168   4.4237   4.4284   4.4386   4.4500   4.4572   4.4642
  4.4729   4.4835   4.4845   4.4894   4.4946   4.5056   4.5093   4.5097
  4.5129   4.5163   4.5217   4.5244   4.5271   4.5331   4.5381   4.5394
  4.5446   4.5461   4.5476   4.5489   4.5569   4.5678   4.5718   4.5841
  4.5849   4.5898   4.5926   4.5988   4.6031   4.6149   4.6331   4.6341
  4.6392   4.6463   4.6522   4.6620   4.6660   4.6671   4.6753   4.6814
  4.6898   4.6975   4.7034   4.7144   4.7218   4.7339   4.7453   4.7478
  4.7565   4.7834   4.7873   4.7919   4.8005   4.8084   4.8161   4.8205
  4.8332   4.8445   4.8795   4.9096   4.9141   4.9478   4.9623   4.9783
  4.9906   5.0284   5.0389   5.0605
 --------------------------------------------------------------
 
          Ground-State Mulliken Net Atomic Charges

     Atom                 Charge (a.u.)
  ----------------------------------------
      1 C                     0.491618
      2 O                    -0.604534
      3 C                    -0.285006
      4 C                     0.174780
      5 C                    -0.199258
      6 C                    -0.323831
      7 C                    -0.401179
      8 C                    -0.394124
      9 C                    -0.304532
     10 C                    -0.132127
     11 C                    -0.119122
     12 C                    -0.130743
     13 C                    -0.024791
     14 C                    -0.303485
     15 C                    -0.327109
     16 C                    -0.309842
     17 C                    -0.320503
     18 C                     0.148490
     19 C                    -0.488942
     20 O                    -0.692943
     21 H                     0.210172
     22 H                     0.201013
     23 H                     0.151791
     24 H                     0.167951
     25 H                     0.227529
     26 H                     0.163748
     27 H                     0.173029
     28 H                     0.227065
     29 H                     0.132032
     30 H                     0.183259
     31 H                     0.150240
     32 H                     0.120107
     33 H                     0.132008
     34 H                     0.128929
     35 H                     0.156720
     36 H                     0.163411
     37 H                     0.136108
     38 H                     0.155680
     39 H                     0.147578
     40 H                     0.148539
     41 H                     0.155142
     42 H                     0.126633
     43 H                     0.146557
     44 H                     0.149717
     45 H                     0.177728
     46 H                     0.443812
     47 H                     0.145579
     48 C                    -0.455413
     49 H                     0.160534
     50 C                    -0.348239
     51 H                     0.156796
     52 H                     0.149181
     53 C                     0.111298
     54 C                    -0.199389
     55 H                     0.143151
     56 C                    -0.200220
     57 H                     0.160017
     58 C                     0.347774
     59 O                    -0.737644
     60 H                     0.483961
     61 C                    -0.224347
     62 H                     0.182598
     63 C                    -0.196346
     64 H                     0.154668
     65 H                     0.155829
     66 H                     0.141643
     67 C                    -0.457538
     68 H                     0.145302
     69 C                    -0.113597
     70 H                     0.138055
     71 C                    -0.467639
     72 H                     0.148666
     73 H                     0.161027
     74 H                     0.150626
     75 C                    -0.461833
     76 H                     0.137504
     77 H                     0.168302
     78 H                     0.144932
     79 H                     0.148364
     80 H                     0.134304
     81 C                    -0.465273
     82 H                     0.166539
     83 C                    -0.367885
     84 H                     0.164402
     85 H                     0.152210
     86 C                     0.605593
     87 O                    -0.618395
     88 O                    -0.606702
     89 H                     0.148600
     90 H                     0.150724
     91 C                    -0.449643
     92 H                     0.164137
     93 C                    -0.377050
     94 H                     0.150857
     95 H                     0.189312
     96 C                     0.092306
     97 C                    -0.203218
     98 H                     0.143577
     99 C                    -0.228100
    100 H                     0.154917
    101 C                     0.336468
    102 O                    -0.689307
    103 H                     0.452193
    104 C                    -0.191924
    105 H                     0.176412
    106 C                    -0.221858
    107 H                     0.177519
    108 H                     0.126530
    109 H                     0.152492
    110 C                    -0.583437
    111 H                     0.198038
    112 H                     0.250101
    113 C                     0.592580
    114 O                    -0.516852
    115 N                    -0.606565
    116 H                     0.337593
    117 C                    -0.161360
    118 H                     0.205954
    119 C                    -0.289274
    120 H                     0.133172
    121 H                     0.146283
    122 C                    -0.124081
    123 H                     0.156045
    124 C                    -0.475207
    125 H                     0.147834
    126 H                     0.172578
    127 H                     0.149115
    128 C                    -0.482569
    129 H                     0.181161
    130 H                     0.169931
    131 H                     0.140249
    132 H                     0.156621
    133 H                     0.140085
    134 C                    -0.461978
    135 H                     0.159798
    136 C                    -0.111065
    137 H                     0.125386
    138 C                    -0.480948
    139 H                     0.175052
    140 H                     0.165052
    141 H                     0.138660
    142 C                    -0.480419
    143 H                     0.141169
    144 H                     0.177448
    145 H                     0.161570
    146 H                     0.141541
    147 H                     0.156138
    148 C                    -0.457488
    149 H                     0.144328
    150 C                    -0.346777
    151 H                     0.150164
    152 H                     0.152610
    153 C                     0.116647
    154 C                    -0.204473
    155 H                     0.139609
    156 C                    -0.152603
    157 H                     0.154303
    158 C                    -0.166188
    159 H                     0.181589
    160 C                    -0.155453
    161 H                     0.169433
    162 C                    -0.197443
    163 H                     0.135071
    164 H                     0.163476
    165 H                     0.141141
    166 C                    -0.468712
    167 H                     0.164445
    168 C                    -0.121392
    169 H                     0.154017
    170 C                    -0.474588
    171 H                     0.138783
    172 H                     0.168392
    173 H                     0.166375
    174 C                    -0.470584
    175 H                     0.145638
    176 H                     0.172796
    177 H                     0.145306
    178 H                     0.141016
    179 H                     0.170706
    180 C                    -0.470966
    181 H                     0.148353
    182 C                    -0.274273
    183 H                     0.151149
    184 H                     0.164008
    185 C                    -0.494055
    186 H                     0.171712
    187 H                     0.248776
    188 S                     0.089650
    189 C                    -0.632395
    190 H                     0.189732
    191 H                     0.196350
    192 H                     0.178439
    193 H                     0.140685
    194 H                     0.142619
    195 C                    -0.469587
    196 H                     0.152019
    197 C                    -0.276701
    198 H                     0.137306
    199 H                     0.143591
    200 C                    -0.113359
    201 H                     0.133603
    202 C                    -0.472359
    203 H                     0.143016
    204 H                     0.168857
    205 H                     0.139805
    206 C                    -0.477801
    207 H                     0.147347
    208 H                     0.175199
    209 H                     0.165026
    210 H                     0.146077
    211 H                     0.142616
    212 C                    -0.462412
    213 H                     0.148277
    214 C                    -0.107612
    215 H                     0.146957
    216 C                    -0.476465
    217 H                     0.135827
    218 H                     0.189478
    219 H                     0.128861
    220 C                    -0.482780
    221 H                     0.153705
    222 H                     0.155449
    223 H                     0.164029
    224 H                     0.135051
    225 H                     0.157417
    226 C                    -0.471462
    227 H                     0.189326
    228 C                    -0.386221
    229 H                     0.172947
    230 H                     0.195543
    231 C                     0.597939
    232 O                    -0.473654
    233 O                    -0.603444
    234 H                     0.463678
    235 H                     0.145645
    236 H                     0.143000
    237 C                    -0.467810
    238 H                     0.139027
    239 C                    -0.271881
    240 H                     0.141544
    241 H                     0.156120
    242 C                    -0.442429
    243 H                     0.177608
    244 H                     0.180902
    245 S                     0.053335
    246 C                    -0.643806
    247 H                     0.171732
    248 H                     0.246787
    249 H                     0.173324
    250 H                     0.177322
    251 H                     0.161513
    252 C                    -0.475728
    253 H                     0.141927
    254 C                    -0.497823
    255 H                     0.158611
    256 H                     0.161295
    257 H                     0.189745
    258 H                     0.143768
    259 H                     0.153294
    260 C                    -0.456152
    261 H                     0.138787
    262 C                    -0.357247
    263 H                     0.164128
    264 H                     0.151088
    265 C                     0.013735
    266 C                     0.000767
    267 H                     0.176396
    268 N                    -0.730488
    269 H                     0.421080
    270 C                     0.277549
    271 C                    -0.177903
    272 H                     0.163916
    273 C                    -0.180488
    274 H                     0.139334
    275 C                    -0.180547
    276 H                     0.127513
    277 C                    -0.198955
    278 H                     0.135565
    279 C                     0.019520
    280 H                     0.153797
    281 O                    -0.866681
    282 H                     0.415076
    283 H                     0.444117
    284 O                    -0.838992
    285 H                     0.397523
    286 H                     0.457472
  ----------------------------------------
  Sum of atomic charges =    -1.000000

 -----------------------------------------------------------------
                    Cartesian Multipole Moments
 -----------------------------------------------------------------
    Charge (ESU x 10^10)
                -4.8032
    Dipole Moment (Debye)
         X       5.0568      Y      -6.0519      Z      10.1630
       Tot      12.8641
    Quadrupole Moments (Debye-Ang)
        XX    -818.2549     XY      -9.0538     YY    -766.6125
        XZ     -23.9805     YZ      17.7147     ZZ    -789.0827
    Octopole Moments (Debye-Ang^2)
       XXX     390.1520    XXY     240.4688    XYY     251.8707
       YYY    -136.7194    XXZ     208.8316    XYZ      49.6643
       YYZ     175.4116    XZZ     179.4626    YZZ       7.9347
       ZZZ     529.4804
    Hexadecapole Moments (Debye-Ang^3)
      XXXX  -90413.5222   XXXY      43.7498   XXYY  -27251.2622
      XYYY   -1430.8879   YYYY  -77432.5660   XXXZ    -976.4442
      XXYZ     172.4839   XYYZ    -837.1452   YYYZ    1038.9103
      XXZZ  -22008.1487   XYZZ    -271.3100   YYZZ  -20070.8119
      XZZZ    -641.9820   YZZZ     776.6187   ZZZZ  -41064.4322
 -----------------------------------------------------------------
 Total job time:  7258.42s(wall), 56853.61s(cpu) 
 Tue Aug  6 15:00:08 2024

        *************************************************************
        *                                                           *
        *  Thank you very much for using Q-Chem.  Have a nice day.  *
        *                                                           *
        *************************************************************



Running Job 2 of 2 19nt_xstal_distance_cutoff4_optimized_spade_wb97x-v_631gd.in
qchem 19nt_xstal_distance_cutoff4_optimized_spade_wb97x-v_631gd.in_3956220.1 ./qchem3956220/ 1
srun -n 1 /cm/shared/apps/spack/0.17.3/cpu/b/opt/spack/linux-rocky8-zen2/gcc-10.2.0/qchem-6.0-rytxnwjazd34ekd2gqyi5ufsaimxsd3r/exe/qcprog.exe 19nt_xstal_distance_cutoff4_optimized_spade_wb97x-v_631gd.in_3956220.1 ./qchem3956220/

                  Welcome to Q-Chem
     A Quantum Leap Into The Future Of Chemistry


 Q-Chem 6.0, Q-Chem, Inc., Pleasanton, CA (2022)

 License issued to: University of California, San Diego (site)

 E. Epifanovsky,  A. T. B. Gilbert,  Xintian Feng,  Joonho Lee,  Yuezhi Mao,  
 N. Mardirossian,  P. Pokhilko,  A. White,  M. Wormit,  M. P. Coons,  
 A. L. Dempwolff,  Zhengting Gan,  D. Hait,  P. R. Horn,  L. D. Jacobson,  
 I. Kaliman,  J. Kussmann,  A. W. Lange,  Ka Un Lao,  D. S. Levine,  Jie Liu,  
 S. C. McKenzie,  A. F. Morrison,  K. Nanda,  F. Plasser,  D. R. Rehn,  
 M. L. Vidal,  Zhi-Qiang You,  Ying Zhu,  B. Alam,  B. Albrecht,  
 A. Aldossary,  E. Alguire,  J. H. Andersen,  V. Athavale,  D. Barton,  
 K. Begam,  A. Behn,  N. Bellonzi,  Y. A. Bernard,  E. J. Berquist,  
 H. Burton,  A. Carreras,  K. Carter-Fenk,  Romit Chakraborty,  
 Chandrima Chakravarty,  Junhan Chen,  A. D. Chien,  K. D. Closser,  
 V. Cofer-Shabica,  L. Cunha,  S. Dasgupta,  Jia Deng,  M. de Wergifosse,  
 M. Diedenhofen,  Hainam Do,  S. Ehlert,  Po-Tung Fang,  S. Fatehi,  
 Qingguo Feng,  T. Friedhoff,  B. Ganoe,  J. Gayvert,  Qinghui Ge,  
 G. Gidofalvi,  M. Goldey,  J. Gomes,  C. Gonzalez-Espinoza,  S. Gulania,  
 A. Gunina,  J. A. Gyamfi,  M. W. D. Hanson-Heine,  P. H. P. Harbach,  
 A. W. Hauser,  M. F. Herbst,  M. Hernandez Vera,  M. Hodecker,  
 Z. C. Holden,  S. Houck,  Xunkun Huang,  Kerwin Hui,  B. C. Huynh,  
 K. Ikeda,  M. Ivanov,  Hyunjun Ji,  Zuxin Jin,  Hanjie Jiang,  B. Kaduk,  
 S. Kaehler,  R. Kang,  K. Khistyaev,  Jaehoon Kim,  Yongbin Kim,  
 P. Klunzinger,  Z. Koczor-Benda,  Joong Hoon Koh,  D. Kosenkov,  
 Saikiran Kotaru,  L. Koulias,  T. Kowalczyk,  C. M. Krauter,  K. Kue,  
 A. Kunitsa,  T. Kus,  A. Landau,  K. V. Lawler,  D. Lefrancois,  S. Lehtola,  
 Rain Li,  Shaozhi Li,  Yi-Pei Li,  Jiashu Liang,  M. Liebenthal,  
 Hung-Hsuan Lin,  You-Sheng Lin,  Fenglai Liu,  Kuan-Yu Liu,  
 M. Loipersberger,  A. Luenser,  C. Malbon,  A. Manjanath,  P. Manohar,  
 E. Mansoor,  S. F. Manzer,  Shan-Ping Mao,  A. V. Marenich,  T. Markovich,  
 S. Mason,  F. Matz,  S. A. Maurer,  P. F. McLaughlin,  M. F. S. J. Menger,  
 J.-M. Mewes,  S. A. Mewes,  P. Morgante,  Mohammad Mostafanejad,  
 J. W. Mullinax,  K. J. Oosterbaan,  G. Paran,  V. Parravicini,  
 Alexander C. Paul,  Suranjan K. Paul,  F. Pavosevic,  Zheng Pei,  S. Prager,  
 E. I. Proynov,  E. Ramos,  B. Rana,  A. E. Rask,  A. Rettig,  R. M. Richard,  
 F. Rob,  E. Rossomme,  T. Scheele,  M. Scheurer,  M. Schneider,  
 P. E. Schneider,  N. Sergueev,  S. M. Sharada,  Hengyuan Shen,  
 W. Skomorowski,  D. W. Small,  C. J. Stein,  Yingli Su,  Yu-Chuan Su,  
 E. J. Sundstrom,  Zhen Tao,  J. Thirman,  Hung-Yi Tsai,  T. Tsuchimochi,  
 N. M. Tubman,  C. Utku,  S. P. Veccham,  O. Vydrov,  J. Wenzel,  
 Jonathan Wong,  J. Witte,  A. Yamada,  Chou-Hsun Yang,  Kun Yao,  
 S. Yeganeh,  S. R. Yost,  A. Zech,  F. Zeller,  Igor Ying Zhang,  
 Xing Zhang,  Yu Zhang,  D. Zuev,  A. Aspuru-Guzik,  A. T. Bell,  
 N. A. Besley,  K. B. Bravaya,  B. R. Brooks,  D. Casanova,  Jeng-Da Chai,  
 Hsing-Ta Chen,  S. Coriani,  C. J. Cramer,  A. E. DePrince, III,  
 R. A. DiStasio Jr.,  A. Dreuw,  B. D. Dunietz,  T. R. Furlani,  
 W. A. Goddard III,  S. Grimme,  S. Hammes-Schiffer,  T. Head-Gordon,  
 W. J. Hehre,  Chao-Ping Hsu,  T.-C. Jagau,  Yousung Jung,  A. Klamt,  
 Jing Kong,  D. S. Lambrecht,  Xiangyuan Li,  WanZhen Liang,  N. J. Mayhall,  
 C. W. McCurdy,  J. B. Neaton,  T. Neudecker,  C. Ochsenfeld,  
 J. A. Parkhill,  R. Peverati,  V. A. Rassolov,  Haisheng Ren,  Yihan Shao,  
 L. V. Slipchenko,  R. P. Steele,  J. E. Subotnik,  A. J. W. Thom,  
 A. Tkatchenko,  D. G. Truhlar,  T. Van Voorhis,  Fan Wang,  
 T. A. Wesolowski,  K. B. Whaley,  H. L. Woodcock III,  P. M. Zimmerman,  
 S. Faraji,  P. M. W. Gill,  M. Head-Gordon,  J. M. Herbert,  A. I. Krylov

 Contributors to earlier versions of Q-Chem not listed above: 
 R. D. Adamson,  B. Austin,  R. Baer,  J. Baker,  G. J. O. Beran,  
 K. Brandhorst,  S. T. Brown,  E. F. C. Byrd,  Arup K. Chakraborty,  
 G. K. L. Chan,  Chun-Min Chang,  Yunqing Chen,  C.-L. Cheng,  
 Siu Hung Chien,  D. M. Chipman,  D. L. Crittenden,  H. Dachsel,  
 R. J. Doerksen,  A. D. Dutoi,  R. G. Edgar,  J. Fosso-Tande,  
 L. Fusti-Molnar,  D. Ghosh,  A. Ghysels,  A. Golubeva-Zadorozhnaya,  
 J. Gonthier,  M. S. Gordon,  S. R. Gwaltney,  G. Hawkins,  J. E. Herr,  
 A. Heyden,  S. Hirata,  E. G. Hohenstein,  G. Kedziora,  F. J. Keil,  
 C. Kelley,  Jihan Kim,  R. A. King,  R. Z. Khaliullin,  P. P. Korambath,  
[...]
          193         194         195         196         197         198
    1   2.5718016   3.0988009   1.7747372   1.6105280   1.8641746   2.6449460
    2   1.8724755   0.9060531   1.7381471   3.1149466   0.6821505   0.7135116
    3  -0.5362474   0.9290760   0.8846166  -0.2759521   0.0398572  -1.8901032
          199         200         201         202         203         204
    1   1.7848511   0.7478422  -0.1541413   0.7807430   2.0337367  -0.7601600
    2  -0.6669798   1.1816427   1.3118506   2.4428386   2.2345470   2.3575833
    3   0.8870333   0.5563688   2.3570330  -0.0948779  -1.7336966  -0.1030811
          205         206         207         208         209         210
    1   1.0848046   0.7245785   0.9284698  -0.7599491   2.0062186   0.5487842
    2   3.4052047  -0.0097458  -1.3811646   0.5129260   0.0824500   1.7832282
    3   1.2181018  -0.4994760   0.2179154  -0.3590007  -1.9530162   2.5016023
          211         212         213         214         215         216
    1   1.8160506   0.1570741  -0.1705527  -0.2398122  -0.0473883  -1.4890038
    2   2.0087761   2.5026078   3.0665285   1.2975493   0.7356708   1.6126410
    3   1.6229165   1.0939565  -0.5475151   1.1878541   2.6969443   0.5087909
          217         218         219         220         221         222
    1  -1.3857146  -1.5882124  -2.1064476   0.4243110   1.8099792  -0.2888894
    2   2.3912894   0.0169046   2.6348309   0.3945296   0.5379732  -1.2089261
    3  -1.1069551   0.4499563   1.8258276   0.0283013   0.8607813  -0.0974356
          223         224         225         226         227         228
    1   0.0491871  -0.9572077  -0.9060389  -1.6341422  -0.5016937  -2.5373824
    2   1.2100433   3.0455239   1.4680341   1.9429372   2.5258426   0.9170164
    3  -1.2086579   2.1718017   2.7722087   0.9908570  -0.3815200   0.7017445
          229         230         231         232         233         234
    1  -3.3603530  -2.9385567  -1.6985743   0.4700009  -1.8132230   0.9211059
    2  -0.0765589   1.1225388   0.5420153   0.8373533  -1.1247182  -1.8682195
    3   2.0892897  -1.2419833   0.8800846   0.5251767   1.0697190   0.0404379
          235         236         237         238         239         240
    1  -2.9083514  -3.2585527  -2.4862179  -2.7233118  -2.3223260  -2.9049539
    2   2.4186943  -0.4057977   0.5441494   1.2701196  -0.9766813  -1.8771735
    3   0.7071128  -1.3885120  -0.6666989   1.1507019  -0.4834319   0.9111159
          241         242         243         244         245         246
    1  -1.6669523  -2.0745496  -2.6207301  -1.1860556  -1.2976638  -0.6837054
    2  -1.7521613  -0.5250563   0.9652131  -2.0322779   0.7799981  -1.0539004
    3  -2.2979775   0.6324463   1.8222482   1.1019875  -0.8684972  -1.5060956
          247         248         249         250         251         252
    1  -2.1147245   0.3600237  -0.4201477  -1.4646632  -2.3890008  -1.6991221
    2  -1.5243162  -0.1481350  -1.6716009   1.6913022   0.9869976   1.7884659
    3  -2.7942534  -1.8452324   0.2188878  -1.8871486  -2.2744258  -0.8548367
          253         254         255         256         257         258
    1  -2.6714986  -0.6356242   0.2877036   0.0421639  -1.3596577  -0.8016412
    2   2.0338724   0.6656782   0.3346163   1.3088261  -0.5888406   3.0617566
    3   0.5183408  -0.2971455  -1.3723730   1.0231311  -0.0774634  -1.1952598
          259         260         261         262         263         264
    1  -1.7048546  -0.2673640  -0.4041373  -0.4625302   1.0923242  -2.2331187
    2   2.1870811   2.6963572   3.5254464   2.2871289   2.3613194   2.1342202
    3  -2.0492177  -0.8295707   0.5673996   0.2990324   1.4273494   0.8917998
          265         266         267         268         269         270
    1  -0.3644750  -1.6888887  -2.5325850  -0.7816131  -1.0852161   0.4949882
    2   2.0677402   1.3541720   1.5084887  -0.0794971  -0.7319587   0.2587182
    3  -0.4335680  -0.4442829  -0.1327261  -1.3204423  -1.6976594  -1.5730363
          271         272         273         274         275         276
    1   0.7615562   0.5515898   1.8929461   2.5987349   2.1688111   3.1520265
    2  -0.6942879  -1.6662224  -0.1124948  -0.8017121   1.2931393   1.7003002
    3  -1.9653272  -2.3136534  -2.0023312  -2.4098207  -1.5603191  -1.5417750
          277         278         279         280         281         282
    1   1.2725322   1.4934159   0.5725569   1.4816553   0.9594948   1.5646933
    2   2.3228915   3.5280547   1.7085222   2.5415888  -0.4529840   1.9966869
    3  -0.9472747  -0.4267396  -0.9726225  -1.6591427  -1.4872304  -1.5636940
          283         284         285         286
    1  -1.2400465   0.8345407  -0.9761179   0.5482014
    2  -0.7802931  -0.4746706  -0.4931818   1.5321196
    3  -0.9457619  -1.6040305   0.6457060  -2.0483632
 EField
            1           2           3           4           5           6
    1   0.0241494   0.0455616   0.0093137   0.0031812   0.0010548   0.0042383
    2   0.0085404   0.0140334   0.0084866   0.0034792   0.0051335   0.0024953
    3  -0.0200626  -0.0290005  -0.0143700  -0.0149793  -0.0141622  -0.0097609
            7           8           9          10          11          12
    1   0.0142190  -0.0019065  -0.0037066  -0.0047845  -0.0013435  -0.0030822
    2  -0.0002586   0.0006391   0.0012579  -0.0004743   0.0019711  -0.0009306
    3  -0.0167253  -0.0140864  -0.0079096  -0.0071674  -0.0094374  -0.0031153
           13          14          15          16          17          18
    1  -0.0026901   0.0012469  -0.0000962  -0.0051609  -0.0064016  -0.0066505
    2  -0.0031744  -0.0004133   0.0034232  -0.0003217  -0.0016269  -0.0038305
    3  -0.0025664  -0.0069211  -0.0090381  -0.0003409   0.0014737  -0.0007081
           19          20          21          22          23          24
    1  -0.0055204  -0.0120005   0.0028914   0.0030569   0.0051427  -0.0010154
    2  -0.0037134  -0.0128850   0.0129279   0.0114488   0.0009620   0.0015102
    3   0.0019199  -0.0032204  -0.0078682  -0.0166903  -0.0078526  -0.0052671
           25          26          27          28          29          30
    1   0.0104773   0.0198143   0.0020200  -0.0091182  -0.0026591  -0.0039736
    2   0.0046226  -0.0091998  -0.0005234  -0.0029459   0.0018577   0.0014780
    3  -0.0167506  -0.0157146  -0.0112558  -0.0199582  -0.0091987  -0.0060648
           31          32          33          34          35          36
    1  -0.0093747   0.0003012   0.0000595   0.0004855   0.0082302   0.0020184
    2  -0.0051787   0.0009807  -0.0009345   0.0020441   0.0014175   0.0054465
    3  -0.0040841  -0.0079317  -0.0041829  -0.0073086  -0.0092802  -0.0126600
           37          38          39          40          41          42
    1   0.0005126  -0.0053091  -0.0064036  -0.0081712  -0.0064100  -0.0066602
    2   0.0057030  -0.0002580   0.0004625  -0.0025554  -0.0019412   0.0013937
    3  -0.0076370  -0.0024691   0.0019197   0.0031173   0.0010954   0.0009654
           43          44          45          46          47          48
    1  -0.0057647  -0.0016872  -0.0094903  -0.0132292   0.0041850   0.0001622
    2  -0.0032165  -0.0029656  -0.0037558  -0.0237637  -0.0130857  -0.0002703
    3   0.0035531   0.0079402   0.0016666  -0.0064585   0.0305329  -0.0000584
           49          50          51          52          53          54
    1  -0.0019009   0.0013064   0.0312115   0.0032818  -0.0005258   0.0042238
    2   0.0318967  -0.0011638   0.0069075  -0.0344183   0.0003936   0.0057769
    3   0.0042275   0.0009423   0.0123200  -0.0015780  -0.0030518   0.0005664
           55          56          57          58          59          60
    1  -0.0111452   0.0037760  -0.0197345   0.0077497  -0.0626920  -0.0004537
    2  -0.0357614  -0.0028636  -0.0212511  -0.0245285  -0.0554151  -0.0120605
    3   0.0068006   0.0062952  -0.0258931   0.0307865  -0.0745354  -0.0100823
           61          62          63          64          65          66
    1   0.0029641   0.0212523  -0.0019309   0.0214593  -0.0304457  -0.0088367
    2  -0.0138176   0.0260857  -0.0089456   0.0171058  -0.0094145  -0.0260601
    3   0.0106530   0.0084653  -0.0017366   0.0278791  -0.0100393   0.0162044
           67          68          69          70          71          72
    1  -0.0019704   0.0234402   0.0006694  -0.0207936   0.0009845   0.0222858
    2   0.0020078  -0.0098660   0.0000777   0.0095125  -0.0025079  -0.0061239
    3  -0.0032166  -0.0228149  -0.0005233   0.0228103  -0.0005014  -0.0267624
           73          74          75          76          77          78
    1  -0.0219056   0.0171848   0.0022731  -0.0124688  -0.0245644   0.0204541
    2   0.0156278   0.0222745   0.0023785  -0.0258052   0.0139573  -0.0120123
    3  -0.0165879   0.0171577   0.0000473   0.0152270  -0.0151701  -0.0248865
           79          80          81          82          83          84
    1   0.0164624  -0.0260058   0.0044885   0.0270442   0.0041914  -0.0090718
    2   0.0197994   0.0143870   0.0000476   0.0197543  -0.0038972   0.0207793
    3   0.0199933  -0.0110884   0.0020873   0.0058458   0.0020340   0.0228548
           85          86          87          88          89          90
    1  -0.0191587   0.0020935   0.0821178  -0.0059949   0.0126771  -0.0185422
    2  -0.0260246   0.0000521   0.0468584  -0.0924519  -0.0216851  -0.0231555
    3  -0.0013828   0.0015281   0.0113727   0.0257197  -0.0207912   0.0112736
           91          92          93          94          95          96
    1  -0.0011564  -0.0139926   0.0032134   0.0169595   0.0206996  -0.0035436
    2   0.0030236   0.0118960   0.0044779  -0.0066480   0.0292220   0.0043508
    3   0.0009029  -0.0271285  -0.0002304   0.0272613  -0.0130708   0.0007004
           97          98          99         100         101         102
    1  -0.0004104   0.0202907   0.0075735  -0.0111868   0.0317821  -0.0744353
    2   0.0075461  -0.0187772   0.0030429  -0.0091996  -0.0065640   0.0300463
    3  -0.0083096   0.0240237  -0.0076985   0.0308009  -0.0075955  -0.0773423
          103         104         105         106         107         108
    1  -0.0079969   0.0082147  -0.0146600   0.0001539   0.0184509   0.0291997
    2   0.0025568   0.0018408   0.0257746   0.0018214   0.0131601  -0.0110145
    3   0.0433564   0.0035005  -0.0223831   0.0069663  -0.0302941  -0.0089740
          109         110         111         112         113         114
    1  -0.0088400  -0.0022481   0.0186632  -0.0303328  -0.0011776   0.0569243
    2  -0.0218762   0.0072595   0.0235355   0.0214440   0.0165891   0.0843524
    3  -0.0227971   0.0009288  -0.0133522   0.0056959  -0.0017477   0.0617917
          115         116         117         118         119         120
    1   0.0119174  -0.0265297   0.0051823   0.0187321  -0.0022254  -0.0186973
    2   0.0058389  -0.0231532  -0.0010444   0.0289389   0.0057928  -0.0224881
    3  -0.0016627  -0.0254475   0.0180143   0.0127055   0.0003684  -0.0138900
          121         122         123         124         125         126
    1   0.0103129   0.0004981  -0.0074284   0.0029798   0.0050612  -0.0214216
    2  -0.0142909   0.0034393   0.0209686   0.0031100  -0.0128511   0.0255898
    3   0.0276731  -0.0020252  -0.0296709  -0.0023277   0.0289045   0.0033512
          127         128         129         130         131         132
    1  -0.0149751   0.0004461   0.0268963  -0.0195615   0.0100921   0.0213515
    2  -0.0213390   0.0011204   0.0177121   0.0266111  -0.0121819  -0.0240301
    3  -0.0193451  -0.0043405  -0.0177477   0.0056527   0.0280366  -0.0050302
          133         134         135         136         137         138
    1   0.0235934  -0.0044249   0.0098047  -0.0015721  -0.0116242   0.0014723
    2  -0.0181619   0.0009998   0.0310716   0.0002796  -0.0318944   0.0003087
    3  -0.0139778  -0.0027106   0.0025039  -0.0016316  -0.0022332  -0.0031869
          139         140         141         142         143         144
    1   0.0072918  -0.0284855  -0.0078693  -0.0049002   0.0215428  -0.0291854
    2   0.0324965   0.0003158  -0.0097087  -0.0008612  -0.0169781  -0.0036487
    3   0.0004768  -0.0187897   0.0299085  -0.0000133  -0.0181634  -0.0283506
          145         146         147         148         149         150
    1   0.0030907  -0.0047410  -0.0261459   0.0005325   0.0094805   0.0009015
    2   0.0292156  -0.0106988   0.0171429   0.0001295   0.0098031  -0.0003221
    3  -0.0011265   0.0301124  -0.0088224  -0.0018317   0.0299442  -0.0001583
          151         152         153         154         155         156
    1   0.0276867  -0.0220102  -0.0004979  -0.0065953   0.0344311  -0.0038231
    2  -0.0157905  -0.0110416  -0.0004342   0.0025506  -0.0072285   0.0053459
    3   0.0090961   0.0225222  -0.0067405  -0.0035709   0.0106040   0.0027438
          157         158         159         160         161         162
    1   0.0272617   0.0048954  -0.0091008   0.0082880  -0.0313039   0.0070777
    2  -0.0169271   0.0053480  -0.0049076   0.0015019   0.0098421  -0.0034546
    3  -0.0248286   0.0036646  -0.0367331   0.0008530  -0.0155868  -0.0064006
          163         164         165         166         167         168
    1  -0.0232010   0.0232523  -0.0161322  -0.0031330   0.0209582  -0.0007788
    2   0.0185181   0.0111793  -0.0065099  -0.0009690  -0.0246753  -0.0002069
    3   0.0212576  -0.0221046   0.0273141  -0.0041932  -0.0048397  -0.0026699
          169         170         171         172         173         174
    1   0.0168234   0.0019652  -0.0177600  -0.0205501   0.0211228   0.0004586
    2   0.0045113   0.0019881  -0.0098858   0.0006845  -0.0253576  -0.0029891
    3  -0.0302626  -0.0020975   0.0243966  -0.0297208  -0.0099230  -0.0020361
          175         176         177         178         179         180
    1   0.0141068  -0.0218018  -0.0196055   0.0156821  -0.0163478  -0.0017941
    2   0.0294095   0.0029120  -0.0027857   0.0280691   0.0055680  -0.0004098
    3   0.0009676  -0.0261162   0.0246253   0.0049511   0.0290712   0.0007918
          181         182         183         184         185         186
    1   0.0270192   0.0007172   0.0173214  -0.0085067   0.0075144   0.0069548
    2  -0.0174123  -0.0016051  -0.0095995  -0.0299696  -0.0034328   0.0310523
    3   0.0071796   0.0025145  -0.0269939   0.0144812  -0.0088398  -0.0163768
          187         188         189         190         191         192
    1  -0.0166586  -0.0320475   0.0019246  -0.0112903  -0.0190754   0.0322832
    2  -0.0106747  -0.0270644   0.0120260   0.0179106   0.0121480   0.0032069
    3  -0.0133869   0.0201270   0.0009600  -0.0279488   0.0251474   0.0074972
          193         194         195         196         197         198
    1   0.0109686   0.0301692  -0.0020474   0.0005036  -0.0050753   0.0133865
    2   0.0290265  -0.0086693  -0.0015429   0.0286205  -0.0010974  -0.0041760
    3  -0.0120765   0.0069081  -0.0019689  -0.0153823  -0.0021892  -0.0300014
          199         200         201         202         203         204
    1   0.0019017  -0.0005404  -0.0171053  -0.0012550   0.0148366  -0.0317058
    2  -0.0310814  -0.0019089  -0.0025331  -0.0044965   0.0026084   0.0015122
    3   0.0117680  -0.0010661   0.0287197  -0.0005223  -0.0293911  -0.0088084
          205         206         207         208         209         210
    1   0.0073837  -0.0017163   0.0020194  -0.0334673   0.0108400  -0.0162207
    2   0.0242744  -0.0001980  -0.0332220   0.0008145  -0.0044482   0.0044369
    3   0.0201602  -0.0028514   0.0094284  -0.0110234  -0.0330959   0.0285946
          211         212         213         214         215         216
    1   0.0323957  -0.0015604  -0.0005671   0.0009720   0.0019541   0.0044561
    2  -0.0017757  -0.0048213   0.0146635  -0.0019876  -0.0169637  -0.0030972
    3   0.0080444  -0.0027064  -0.0299784  -0.0007006   0.0293194  -0.0011204
          217         218         219         220         221         222
    1  -0.0020006  -0.0122050  -0.0174643  -0.0012198   0.0312793  -0.0106121
    2   0.0120025  -0.0302271   0.0173840   0.0006908  -0.0034497  -0.0325730
    3  -0.0314437  -0.0040918   0.0196778  -0.0022911   0.0056655  -0.0065021
          223         224         225         226         227         228
    1  -0.0004421  -0.0157898   0.0154869   0.0034171   0.0260008  -0.0024260
    2   0.0084535   0.0177845   0.0039294   0.0050007   0.0144863   0.0070919
    3  -0.0351764   0.0212285   0.0301286  -0.0009643  -0.0196561   0.0012320
          229         230         231         232         233         234
    1  -0.0255221  -0.0157134   0.0009853   0.1073660  -0.1050615   0.0049031
    2  -0.0107856   0.0048663   0.0312716   0.0473070  -0.0308023   0.0134623
    3   0.0210240  -0.0320602   0.0011438  -0.0078174   0.0263038   0.0021426
          235         236         237         238         239         240
    1  -0.0257949  -0.0274984   0.0016094  -0.0116848  -0.0013474  -0.0186172
    2   0.0228793  -0.0100590   0.0007117   0.0173041   0.0002477  -0.0228462
    3   0.0001999  -0.0173055  -0.0019619   0.0247280  -0.0031531   0.0171163
          241         242         243         244         245         246
    1   0.0073890  -0.0130986  -0.0097921   0.0062003   0.0065324   0.0142102
    2  -0.0175156  -0.0046761   0.0215523  -0.0252972   0.0463426  -0.0098987
    3  -0.0296747   0.0023628   0.0249212   0.0093801  -0.0089507  -0.0145215
          247         248         249         250         251         252
    1  -0.0161710   0.0383519   0.0131434   0.0166391  -0.0148125   0.0022734
    2  -0.0158837   0.0086286  -0.0259081   0.0217117  -0.0115171  -0.0012581
    3  -0.0281768  -0.0199144   0.0059485  -0.0208595  -0.0266841  -0.0010611
          253         254         255         256         257         258
    1  -0.0211976   0.0061261   0.0291834   0.0201423  -0.0087335   0.0152615
    2   0.0077821  -0.0036205  -0.0127442   0.0055328  -0.0268010   0.0272923
    3   0.0221863   0.0003110  -0.0218232   0.0285791   0.0060779  -0.0094593
          259         260         261         262         263         264
    1  -0.0227587  -0.0002185  -0.0034543   0.0004862   0.0222303  -0.0275824
    2  -0.0015635  -0.0032339   0.0262693  -0.0000755  -0.0006189  -0.0028724
    3  -0.0228749  -0.0007864   0.0184161   0.0011247   0.0237679   0.0171875
          265         266         267         268         269         270
    1  -0.0027733   0.0063102  -0.0342955  -0.0039623  -0.0173557   0.0171011
    2  -0.0077857   0.0145991  -0.0032976  -0.0155854  -0.0460884   0.0028966
    3  -0.0020587   0.0086594   0.0128622   0.0005490  -0.0133443  -0.0005245
          271         272         273         274         275         276
    1   0.0048267  -0.0113316  -0.0087040   0.0241886  -0.0099969   0.0322771
    2   0.0017663  -0.0370727   0.0015551  -0.0220746  -0.0036955   0.0119332
    3   0.0033746  -0.0101310   0.0053041  -0.0159005   0.0034789  -0.0045159
          277         278         279         280         281         282
    1   0.0010925   0.0091503   0.0006446   0.0280402   0.0508757   0.0060505
    2  -0.0106043   0.0321034  -0.0031632   0.0012597  -0.0776390   0.0488945
    3  -0.0031047   0.0128385   0.0008498  -0.0171602  -0.0055575   0.0081551
          283         284         285         286
    1  -0.0416622   0.0707707  -0.0306990  -0.0057148
    2   0.0025877  -0.0603855  -0.0034115   0.0512416
    3   0.0203401  -0.0452310   0.0402453  -0.0032259
  --- DONE ESP SUMMARY ---
 Total job time:  9.31s(wall), 35.50s(cpu) 
 Tue Aug  6 15:00:18 2024

        *************************************************************
        *                                                           *
        *  Thank you very much for using Q-Chem.  Have a nice day.  *
        *                                                           *
        *************************************************************


