
Running Job 1 of 2 cutoff8_elecfield_qchem.in
qchem cutoff8_elecfield_qchem.in_826819.0 /media/work/klemlab/arkanil/qchem_scratch/qchem826819/ 1
/home/klemlab/Desktop/software/QChem/exe/qcprog.exe_s cutoff8_elecfield_qchem.in_826819.0 /media/work/klemlab/arkanil/qchem_scratch/qchem826819/
                  Welcome to Q-Chem
     A Quantum Leap Into The Future Of Chemistry


 Q-Chem 6.4, Q-Chem, Inc., Pleasanton, CA (2025)

 E. Epifanovsky,  A. T. B. Gilbert,  Xintian Feng,  Joonho Lee,  Yuezhi Mao,  
 N. Mardirossian,  P. Pokhilko,  A. White,  M. Wormit,  M. P. Coons,  
 A. L. Dempwolff,  Zhengting Gan,  D. Hait,  P. R. Horn,  L. D. Jacobson,  
 I. Kaliman,  J. Kussmann,  A. W. Lange,  Ka Un Lao,  D. S. Levine,  Jie Liu,  
 S. C. McKenzie,  A. F. Morrison,  K. D. Nanda,  F. Plasser,  D. R. Rehn,  
 M. L. Vidal,  Zhi-Qiang You,  Ying Zhu,  Huseyin Aksu,  B. Alam,  
 B. Albrecht,  A. Aldossary,  E. Alguire,  J. H. Andersen,  
 J. E. Arias-Martinez,  V. Athavale,  F. Ballesteros,  D. Barton,  K. Begam,  
 A. Behn,  N. Bellonzi,  Y. A. Bernard,  E. J. Berquist,  H. Burton,  
 S. Camps,  A. Carreras,  K. Carter-Fenk,  Mathew Chow,  Jeng-Da Chai,  
 Arnab Chakraborty,  Romit Chakraborty,  Chandrima Chakravarty,  Junhan Chen,  
 A. D. Chien,  K. D. Closser,  V. Cofer-Shabica,  L. Cunha,  S. Dasgupta,  
 Jia Deng,  Joseph Dickinson,  M. de Wergifosse,  M. Diedenhofen,  
 L. B. Dittmer,  Hainam Do,  Wenjie Dou,  S. Ehlert,  Po-Tung Fang,  
 Anthuan Ferino-Pérez,  S. Fatehi,  Qingguo Feng,  Jonathan Fetherolf,  
 T. Friedhoff,  Thomas Froitzheim,  Sarai Folkestad,  B. Ganoe,  J. Gayvert,  
 Qinghui Ge,  G. Gidofalvi,  M. Gimferrer,  G. Giudetti,  M. Goldey,  
 Montgomery Gray,  J. Gomes,  C. Gonzalez-Espinoza,  S. Gulania,  A. Gunina,  
 J. A. Gyamfi,  M. W. D. Hanson-Heine,  P. H. P. Harbach,  A. W. Hauser,  
 M. F. Herbst,  M. Hernandez Vera,  M. Hodecker,  Z. C. Holden,  S. Houck,  
 Xunkun Huang,  Kerwin Hui,  B. C. Huynh,  K. Ikeda,  M. Ivanov,  
 Nayanthara K. Jayadev,  Hyunjun Ji,  Zuxin Jin,  Hanjie Jiang,  
 Subrata Jana,  B. Kaduk,  S. Kaehler,  Richard Kang,  K. Khistyaev,  
 Jaehoon Kim,  Yongbin Kim,  P. Klunzinger,  Z. Koczor-Benda,  
 Joong Hoon Koh,  Elena Kolodzeiski,  D. Kosenkov,  Saikiran Kotaru,  
 L. Koulias,  T. Kowalczyk,  C. M. Krauter,  K. Kue,  A. Kunitsa,  T. Kus,  
 A. Landau,  C. W. Lander,  K. V. Lawler,  D. Lefrancois,  S. Lehtola,  
 Rain Li,  Shaozhi Li,  Tao E. Li,  Yi-Pei Li,  Jiashu Liang,  M. Liebenthal,  
 Hung-Hsuan Lin,  You-Sheng Lin,  Fenglai Liu,  Kuan-Yu Liu,  Xiao Liu,  
 M. Loipersberger,  A. Luenser,  C. Malbon,  Aniket Mandal,  Manisha,  
 A. Manjanath,  P. Manohar,  E. Mansoor,  S. F. Manzer,  Shan-Ping Mao,  
 A. V. Marenich,  T. Markovich,  S. Mason,  F. Matz,  S. A. Maurer,  
 Samuel May,  Alexandra McIsaac,  P. F. McLaughlin,  M. F. S. J. Menger,  
 J.-M. Mewes,  S. A. Mewes,  R. E. Moorby,  P. Morgante,  
 Mohammad Mostafanejad,  Madhubani Mukherjee,  J. W. Mullinax,  Quyen Nguyen,  
 Avik Kumar Ojha,  K. J. Oosterbaan,  Eno Paenurk,  Xiaoliang Pan,  G. Paran,  
 V. Parravicini,  R. L. Patterson,  Alexander C. Paul,  Suranjan K. Paul,  
 F. Pavosevic,  Zheng Pei,  P. Pokhilko,  S. Prager,  E. I. Proynov,  
 E. Ramos,  B. Rana,  A. E. Rask,  A. Rettig,  R. M. Richard,  F. Rob,  
 E. Rossomme,  S. Roy,  T. Scheele,  M. Scheurer,  M. Schneider,  
 P. E. Schneider,  Tim K. Schramm,  N. Sergueev,  S. M. Sharada,  
 Hengyuan Shen,  W. Skomorowski,  D. W. Small,  C. J. Stein,  
 Alistair J. Sterling,  Yingli Su,  Yu-Chuan Su,  E. J. Sundstrom,  
 J. Talbot,  J. A. Tan,  Zhen Tao,  Hung-Hsuan Teh,  J. Thirman,  C. Titeca,  
 N. Tkachenko,  Hung-Yi Tsai,  T. Tsuchimochi,  N. M. Tubman,  C. Utku,  
 S. P. Veccham,  O. Vydrov,  Z. Wang,  Markus G. S. Weiss,  Rahel Weiss,  
 J. Wenzel,  Jonathan Wong,  J. Witte,  H. Wu,  Yanze Wu,  A. Yamada,  
 Chou-Hsun Yang,  Kun Yao,  S. Yeganeh,  S. R. Yost,  Qi Yu,  A. Zech,  
 F. Zeller,  Chongxiao Zhao,  T. Zhao,  Igor Ying Zhang,  Xing Zhang,  
 Yu Zhang,  Zeyi Zhang,  D. Zuev,  A. Aspuru-Guzik,  A. T. Bell,  
 N. A. Besley,  K. B. Bravaya,  B. R. Brooks,  D. Casanova,  Jeng-Da Chai,  
 Hsing-Ta Chen,  S. Coriani,  C. J. Cramer,  A. E. DePrince, III,  
 R. A. DiStasio Jr.,  A. Dreuw,  B. D. Dunietz,  T. R. Furlani,  
 W. A. Goddard III,  S. Grimme,  S. Hammes-Schiffer,  T. Head-Gordon,  
 W. J. Hehre,  Chao-Ping Hsu,  T.-C. Jagau,  Yousung Jung,  A. Klamt,  
 Jing Kong,  D. S. Lambrecht,  Xiangyuan Li,  WanZhen Liang,  N. J. Mayhall,  
 C. W. McCurdy,  J. B. Neaton,  T. Neudecker,  C. Ochsenfeld,  
 J. A. Parkhill,  R. Peverati,  V. A. Rassolov,  Haisheng Ren,  Yihan Shao,  
 L. V. Slipchenko,  R. P. Steele,  J. E. Subotnik,  A. J. W. Thom,  
 A. Tkatchenko,  D. G. Truhlar,  T. Van Voorhis,  Fan Wang,  
 T. A. Wesolowski,  K. B. Whaley,  H. L. Woodcock III,  P. M. Zimmerman,  
 S. Faraji,  P. M. W. Gill,  M. Head-Gordon,  J. M. Herbert,  A. I. Krylov

 Contributors to earlier versions of Q-Chem not listed above: 
 R. D. Adamson,  B. Austin,  R. Baer,  J. Baker,  G. J. O. Beran,  
 K. Brandhorst,  S. T. Brown,  E. F. C. Byrd,  Arup K. Chakraborty,  
 G. K. L. Chan,  Chun-Min Chang,  Yunqing Chen,  C.-L. Cheng,  
 Siu Hung Chien,  D. M. Chipman,  D. L. Crittenden,  H. Dachsel,  
 R. J. Doerksen,  A. D. Dutoi,  R. G. Edgar,  J. Fosso-Tande,  
 L. Fusti-Molnar,  D. Ghosh,  A. Ghysels,  A. Golubeva-Zadorozhnaya,  
 J. Gonthier,  M. S. Gordon,  S. R. Gwaltney,  G. Hawkins,  J. E. Herr,  
 A. Heyden,  S. Hirata,  E. G. Hohenstein,  G. Kedziora,  F. J. Keil,  
 C. Kelley,  Jihan Kim,  R. A. King,  R. Z. Khaliullin,  P. P. Korambath,  
 W. Kurlancheek,  A. Laurent,  A. M. Lee,  M. S. Lee,  S. V. Levchenko,  
 Ching Yeh Lin,  D. Liotard,  E. Livshits,  R. C. Lochan,  I. Lotan,  
 L. A. Martinez-Martinez,  P. E. Maslen,  N. Nair,  D. P. O'Neill,  
 D. Neuhauser,  E. Neuscamman,  C. M. Oana,  R. Olivares-Amaya,  R. Olson,  
 T. M. Perrine,  B. Peters,  P. A. Pieniazek,  A. Prociuk,  Y. M. Rhee,  
 J. Ritchie,  M. A. Rohrdanz,  E. Rosta,  N. J. Russ,  H. F. Schaefer III,  
 M. W. Schmidt,  N. E. Schultz,  S. Sharma,  N. Shenvi,  C. D. Sherrill,  
 A. C. Simmonett,  A. Sodt,  T. Stein,  D. Stuck,  K. S. Thanthiriwatte,  
 V. Vanovschi,  L. Vogt,  Tao Wang,  A. Warshel,  M. A. Watson,  
 C. F. Williams,  Q. Wu,  X. Xu,  Jun Yang,  W. Zhang,  Yan Zhao

   Please cite Q-Chem as follows:
  "Software for the frontiers of quantum chemistry:
   An overview of developments in the Q-Chem 5 package"
   J. Chem. Phys. 155, 084801 (2021)
   https://doi.org/10.1063/5.0055522 (open access)

 Q-Chem 6.4.0 for Intel X86 EM64T Linux

 Parts of Q-Chem use Armadillo 12.8.2 (Cortisol Injector).
 http://arma.sourceforge.net/

 Q-Chem begins on Sun May  3 11:38:15 2026  

 Host: 
0

 Scratch files written to /media/work/klemlab/arkanil/qchem_scratch/qchem826819//
 Executable: /home/klemlab/Desktop/software/QChem/exe/qcprog.exe_s
 Number of threads = 3
 Dec1625 |scratch|qcdevops|jenkins|workspace|build_RNUM -1
 Processing $rem in /home/klemlab/Desktop/software/QChem/config/preferences:
 Processing $rem in /home/klemlab/.qchemrc:
 No nuclear gradient supported for projection-based embedding or EMFT. Set max ideriv = 0.

 Checking the input file for inconsistencies... 	...done.

--------------------------------------------------------------
User input:
--------------------------------------------------------------
$molecule
-2 1
--
0 1
C         1.961000       -1.648000       -0.895000
O         2.717000       -1.965000       -1.817000
C         2.111000       -0.419000       -0.143000
C         1.172000        0.019000        0.728000
C        -0.121000       -0.743000        0.966000
C        -0.408000       -1.753000       -0.150000
C         0.838000       -2.560000       -0.486000
C         1.438000        1.232000        1.564000
C         0.203000        2.060000        1.911000
C        -0.947000        1.173000        2.385000
C        -1.311000        0.197000        1.244000
C        -2.173000        1.971000        2.800000
C        -3.369000        1.085000        3.202000
C        -3.780000        0.249000        1.990000
C        -2.607000       -0.601000        1.482000
C        -2.052000        2.981000        3.950000
C        -3.518000        3.189000        4.419000
C        -4.363000        2.190000        3.606000
C        -3.093000        0.172000        4.408000
O        -5.492000        1.768000        4.360000
H         3.032000        0.140000       -0.295000
H         0.055000       -1.320000        1.888000
H        -0.765000       -1.225000       -1.046000
H        -1.211000       -2.435000        0.152000
H         1.176000       -3.073000        0.425000
H         0.676000       -3.306000       -1.268000
H         2.199000        1.857000        1.085000
H         1.913000        0.881000        2.496000
H        -0.131000        2.631000        1.034000
H         0.473000        2.793000        2.676000
H        -0.592000        0.590000        3.249000
H        -1.473000        0.815000        0.346000
H        -2.500000        2.537000        1.911000
H        -4.114000        0.921000        1.186000
H        -4.628000       -0.412000        2.229000
H        -2.404000       -1.413000        2.197000
H        -2.910000       -1.087000        0.547000
H        -1.569000        3.911000        3.639000
H        -1.431000        2.572000        4.756000
H        -3.862000        4.215000        4.259000
H        -3.641000        2.972000        5.485000
H        -4.703000        2.680000        2.682000
H        -2.805000        0.740000        5.297000
H        -4.005000       -0.383000        4.655000
H        -2.297000       -0.553000        4.213000
H        -5.949000        1.096000        3.839000
--
-2 1
H         7.543000       -6.790000       -9.464000
C         6.876000       -6.210000       -8.815000
H         6.742000       -6.778000       -7.886000
C         7.450000       -4.819000       -8.528000
H         7.571000       -4.261000       -9.464000
H         6.739000       -4.248000       -7.919000
C         8.796000       -4.908000       -7.810000
H         8.691000       -5.455000       -6.868000
H         9.518000       -5.453000       -8.430000
S         9.593000       -3.307000       -7.452000
C         8.435000       -2.630000       -6.230000
H         8.332000       -3.316000       -5.385000
H         8.843000       -1.673000       -5.890000
H         7.454000       -2.458000       -6.680000
H         5.902000       -6.140000       -9.314000
H         3.024000       -8.398000       -7.459000
C         2.843000       -8.037000       -6.439000
H         2.568000       -8.903000       -5.832000
C         4.125000       -7.384000       -5.883000
H         4.886000       -8.168000       -5.793000
H         4.526000       -6.666000       -6.610000
C         3.930000       -6.679000       -4.558000
C         3.690000       -7.373000       -3.372000
H         3.641000       -8.461000       -3.380000
C         3.500000       -6.695000       -2.165000
H         3.263000       -7.243000       -1.255000
C         3.544000       -5.296000       -2.128000
O         3.366000       -4.587000       -0.998000
H         3.522000       -5.124000       -0.199000
C         3.775000       -4.590000       -3.312000
H         3.812000       -3.510000       -3.273000
C         3.967000       -5.281000       -4.495000
H         4.179000       -4.714000       -5.399000
C         1.613000       -7.141000       -6.448000
O         0.548000       -7.532000       -5.966000
N         1.731000       -5.929000       -7.031000
H         2.609000       -5.662000       -7.451000
C         0.570000       -5.079000       -7.230000
H        -0.059000       -5.184000       -6.341000
C         0.876000       -3.600000       -7.468000
H         1.503000       -3.517000       -8.369000
C        -0.445000       -2.875000       -7.753000
H        -1.158000       -3.004000       -6.932000
H        -0.277000       -1.800000       -7.878000
H        -0.929000       -3.254000       -8.660000
C         1.655000       -2.953000       -6.315000
H         2.646000       -3.419000       -6.271000
H         1.825000       -1.898000       -6.563000
C         1.005000       -3.058000       -4.937000
H         0.951000       -4.100000       -4.609000
H         1.585000       -2.511000       -4.186000
H        -0.008000       -2.638000       -4.931000
H        -0.021000       -5.468000       -8.071000
H        -1.648000       -8.952000       -6.622000
C        -2.044000       -9.537000       -5.784000
H        -2.804000      -10.228000       -6.154000
C        -0.883000      -10.283000       -5.099000
H        -0.299000       -9.555000       -4.525000
H        -1.295000      -11.005000       -4.378000
C         0.076000      -10.994000       -6.057000
H         0.477000      -10.225000       -6.733000
C         1.245000      -11.592000       -5.272000
H         0.894000      -12.367000       -4.577000
H         1.985000      -12.050000       -5.939000
H         1.754000      -10.824000       -4.676000
C        -0.622000      -12.065000       -6.897000
H        -1.413000      -11.638000       -7.522000
H         0.089000      -12.572000       -7.560000
H        -1.079000      -12.826000       -6.251000
C        -2.705000       -8.619000       -4.768000
O        -3.720000       -8.923000       -4.156000
N        -2.057000       -7.436000       -4.563000
H        -1.166000       -7.283000       -5.031000
C        -2.513000       -6.490000       -3.559000
H        -2.638000       -6.996000       -2.594000
C        -1.464000       -5.360000       -3.424000
H        -1.235000       -5.023000       -4.446000
C        -1.977000       -4.141000       -2.655000
H        -2.235000       -4.400000       -1.623000
H        -1.198000       -3.371000       -2.631000
H        -2.867000       -3.705000       -3.117000
C        -0.179000       -5.900000       -2.787000
H         0.246000       -6.741000       -3.346000
H         0.589000       -5.122000       -2.735000
H        -0.381000       -6.236000       -1.763000
C        -3.901000       -5.943000       -3.907000
O        -4.697000       -5.624000       -3.024000
N        -4.113000       -5.766000       -5.222000
H        -3.436000       -6.183000       -5.844000
C        -5.375000       -5.324000       -5.782000
H        -5.700000       -4.439000       -5.227000
C        -5.211000       -4.974000       -7.257000
H        -4.458000       -4.189000       -7.378000
H        -4.912000       -5.857000       -7.829000
C        -6.538000       -4.453000       -7.806000
O        -6.966000       -3.355000       -7.362000
O        -7.151000       -5.205000       -8.621000
H        -6.147000       -6.089000       -5.637000
H        -5.458000       -8.968000       -2.391000
C        -6.225000       -8.988000       -1.612000
H        -6.029000       -8.190000       -0.890000
H        -7.204000       -8.805000       -2.060000
H        -6.224000       -9.964000       -1.114000
H        -1.823000      -11.723000        0.665000
C        -2.623000      -12.147000        1.282000
H        -2.333000      -12.032000        2.334000
C        -3.962000      -11.460000        0.986000
H        -4.191000      -11.625000       -0.074000
C        -5.093000      -12.090000        1.805000
H        -4.855000      -12.068000        2.879000
H        -6.044000      -11.565000        1.636000
H        -5.246000      -13.141000        1.539000
C        -3.890000       -9.937000        1.181000
H        -3.040000       -9.556000        0.606000
H        -4.778000       -9.473000        0.736000
C        -3.768000       -9.468000        2.630000
H        -2.997000      -10.016000        3.187000
H        -3.521000       -8.406000        2.684000
H        -4.714000       -9.577000        3.178000
H        -2.677000      -13.221000        1.072000
H         0.954000      -12.517000       -1.558000
C         1.751000      -11.843000       -1.223000
H         2.249000      -11.449000       -2.118000
C         1.195000      -10.698000       -0.370000
H         0.721000      -11.135000        0.523000
C         2.329000       -9.785000        0.094000
H         2.789000       -9.300000       -0.777000
H         1.981000       -9.000000        0.771000
H         3.115000      -10.345000        0.612000
C         0.113000       -9.916000       -1.132000
H         0.547000       -9.509000       -2.057000
H        -0.673000      -10.614000       -1.450000
C        -0.516000       -8.777000       -0.328000
H         0.190000       -7.958000       -0.159000
H        -1.384000       -8.361000       -0.851000
H        -0.847000       -9.128000        0.658000
H         2.484000      -12.435000       -0.663000
H         8.300000      -12.480000       -0.519000
C         8.580000      -12.483000        0.540000
H         9.474000      -11.858000        0.644000
C         7.437000      -11.946000        1.406000
H         6.568000      -12.609000        1.315000
H         7.738000      -11.966000        2.461000
C         7.050000      -10.541000        1.013000
C         6.091000      -10.313000        0.025000
H         5.585000      -11.156000       -0.441000
C         5.763000       -9.023000       -0.381000
H         5.022000       -8.862000       -1.159000
C         6.401000       -7.938000        0.210000
O         6.080000       -6.639000       -0.092000
H         5.546000       -6.611000       -0.904000
C         7.374000       -8.139000        1.185000
H         7.873000       -7.280000        1.620000
C         7.688000       -9.433000        1.578000
H         8.448000       -9.582000        2.341000
H         8.846000      -13.508000        0.822000
H         9.524000       -5.128000        6.069000
C         9.029000       -4.383000        5.436000
H         9.644000       -4.208000        4.547000
C         7.643000       -4.897000        5.008000
H         7.091000       -5.158000        5.920000
C         6.856000       -3.816000        4.262000
H         7.440000       -3.406000        3.428000
H         5.911000       -4.212000        3.870000
H         6.608000       -2.982000        4.925000
C         7.801000       -6.150000        4.147000
H         8.328000       -6.949000        4.683000
H         6.827000       -6.542000        3.824000
H         8.385000       -5.910000        3.249000
C         8.885000       -3.100000        6.255000
O         8.365000       -3.111000        7.368000
N         9.326000       -1.981000        5.635000
H         9.670000       -2.043000        4.679000
C         9.245000       -0.652000        6.218000
H         8.979000       -0.780000        7.270000
C        10.582000        0.093000        6.069000
H        10.797000        0.201000        5.000000
H        10.439000        1.106000        6.470000
C        11.789000       -0.571000        6.732000
H        11.699000       -0.541000        7.823000
H        11.836000       -1.619000        6.411000
C        13.099000        0.142000        6.295000
O        13.366000        0.025000        5.059000
O        13.733000        0.775000        7.155000
C         8.171000        0.118000        5.466000
O         8.321000        0.404000        4.274000
N         7.060000        0.430000        6.152000
H         6.940000        0.071000        7.089000
C         5.878000        0.897000        5.454000
H         6.225000        1.542000        4.647000
C         5.153000       -0.324000        4.863000
H         5.850000       -0.838000        4.191000
H         4.924000       -1.021000        5.677000
C         3.859000       -0.062000        4.084000
O         3.478000        1.119000        3.938000
O         3.282000       -1.100000        3.640000
C         4.982000        1.657000        6.435000
O         4.317000        1.031000        7.265000
N         4.976000        3.000000        6.367000
C         4.209000        3.782000        7.337000
H         4.377000        3.388000        8.342000
H         3.140000        3.697000        7.109000
C         4.720000        5.213000        7.150000
H         5.549000        5.400000        7.838000
H         3.938000        5.956000        7.327000
C         5.225000        5.237000        5.705000
H         5.954000        6.028000        5.511000
H         4.400000        5.380000        5.003000
C         5.825000        3.832000        5.517000
H         5.749000        3.529000        4.470000
C         7.285000        3.802000        5.990000
O         7.587000        3.645000        7.168000
N         8.154000        4.024000        4.986000
H         7.788000        4.076000        4.042000
C         9.574000        4.191000        5.160000
H         9.829000        3.855000        6.169000
C        10.376000        3.407000        4.115000
H        10.177000        2.338000        4.245000
H        10.024000        3.681000        3.110000
C        11.846000        3.719000        4.246000
C        12.594000        3.198000        5.303000
H        12.148000        2.508000        6.011000
C        13.931000        3.538000        5.472000
H        14.479000        3.056000        6.276000
C        14.540000        4.419000        4.580000
H        15.587000        4.688000        4.706000
C        13.809000        4.939000        3.514000
H        14.277000        5.600000        2.790000
C        12.471000        4.590000        3.353000
H        11.901000        5.004000        2.526000
H         9.843000        5.255000        5.094000
H         0.572000       -7.530000        8.845000
C         0.522000       -6.493000        8.486000
H         0.130000       -5.876000        9.300000
C         1.935000       -6.017000        8.092000
H         2.603000       -6.277000        8.920000
H         2.303000       -6.580000        7.224000
C         2.036000       -4.534000        7.816000
C         1.974000       -3.624000        8.877000
H         1.800000       -3.990000        9.888000
C         2.181000       -2.265000        8.658000
H         2.175000       -1.574000        9.496000
C         2.458000       -1.794000        7.373000
H         2.706000       -0.747000        7.212000
C         2.487000       -2.689000        6.306000
H         2.727000       -2.321000        5.311000
C         2.266000       -4.048000        6.528000
H         2.319000       -4.743000        5.691000
C        -0.482000       -6.445000        7.366000
O        -1.510000       -5.758000        7.422000
N        -0.269000       -7.263000        6.308000
H         0.659000       -7.648000        6.184000
C        -1.119000       -7.184000        5.131000
H        -1.157000       -6.148000        4.765000
C        -0.566000       -8.088000        4.012000
H        -0.372000       -9.091000        4.415000
H        -1.353000       -8.193000        3.261000
C         0.667000       -7.515000        3.352000
C         1.944000       -8.033000        3.556000
H         2.083000       -8.896000        4.206000
C         3.061000       -7.489000        2.918000
H         4.051000       -7.908000        3.079000
C         2.885000       -6.418000        2.049000
O         3.897000       -5.814000        1.373000
H         4.747000       -6.284000        1.375000
C         1.612000       -5.885000        1.832000
H         1.496000       -5.061000        1.136000
C         0.520000       -6.424000        2.487000
H        -0.460000       -5.983000        2.334000
C        -2.562000       -7.540000        5.438000
O        -3.467000       -7.082000        4.749000
N        -2.805000       -8.411000        6.452000
H        -2.032000       -8.723000        7.022000
C        -4.170000       -8.730000        6.796000
H        -4.715000       -8.556000        5.859000
C        -4.382000      -10.206000        7.189000
H        -3.421000      -10.663000        7.447000
H        -5.012000      -10.264000        8.083000
C        -5.032000      -11.001000        6.041000
H        -4.516000      -10.738000        5.110000
H        -4.889000      -12.077000        6.185000
C        -6.534000      -10.687000        5.930000
H        -7.090000      -11.415000        6.532000
H        -6.736000       -9.690000        6.344000
N        -7.004000      -10.730000        4.536000
H        -6.310000      -10.819000        3.804000
C        -8.229000      -10.359000        4.147000
N        -9.284000      -10.460000        4.961000
H        -9.164000      -10.900000        5.861000
H        -9.989000       -9.705000        4.902000
N        -8.414000       -9.879000        2.905000
H        -7.728000       -9.224000        2.539000
H        -9.361000       -9.607000        2.673000
C        -4.893000       -7.725000        7.705000
O        -6.105000       -7.856000        7.858000
N        -4.156000       -6.717000        8.201000
H        -3.181000       -6.660000        7.925000
C        -4.758000       -5.487000        8.708000
H        -5.686000       -5.745000        9.217000
C        -3.809000       -4.728000        9.656000
H        -3.095000       -4.143000        9.069000
H        -4.430000       -4.014000       10.205000
C        -3.058000       -5.636000       10.631000
H        -3.751000       -6.167000       11.287000
H        -2.490000       -6.389000       10.070000
C        -2.064000       -4.913000       11.537000
O        -2.057000       -5.097000       12.743000
N        -1.139000       -4.128000       10.910000
H        -0.543000       -3.594000       11.526000
H        -1.231000       -3.780000        9.953000
C        -5.098000       -4.600000        7.499000
O        -6.235000       -4.150000        7.301000
N        -4.071000       -4.356000        6.667000
H        -3.149000       -4.710000        6.893000
C        -4.141000       -3.336000        5.646000
H        -4.374000       -2.361000        6.081000
H        -3.158000       -3.274000        5.164000
C        -5.195000       -3.605000        4.579000
O        -5.890000       -2.698000        4.126000
N        -5.293000       -4.894000        4.176000
H        -4.594000       -5.559000        4.502000
C        -6.135000       -5.306000        3.076000
H        -6.647000       -4.410000        2.711000
C        -5.340000       -5.969000        1.925000
H        -5.089000       -6.991000        2.233000
H        -6.010000       -6.056000        1.061000
C        -4.051000       -5.250000        1.515000
H        -3.410000       -5.168000        2.405000
C        -3.302000       -6.087000        0.471000
H        -3.857000       -6.128000       -0.475000
H        -2.318000       -5.651000        0.262000
H        -3.138000       -7.115000        0.818000
C        -4.328000       -3.848000        0.972000
H        -4.798000       -3.196000        1.716000
H        -3.399000       -3.363000        0.650000
H        -4.986000       -3.907000        0.096000
C        -7.207000       -6.299000        3.532000
O        -7.864000       -6.969000        2.726000
N        -7.392000       -6.444000        4.861000
H        -6.933000       -5.807000        5.499000
C        -8.397000       -7.363000        5.336000
H        -8.145000       -8.357000        4.996000
H        -8.357000       -7.368000        6.430000
C        -9.815000       -7.049000        4.888000
O       -10.635000       -7.964000        4.721000
N       -10.096000       -5.746000        4.756000
H        -9.362000       -5.045000        4.928000
C       -11.430000       -5.255000        4.497000
H       -12.161000       -5.836000        5.068000
H       -11.483000       -4.221000        4.845000
C       -11.900000       -5.283000        3.061000
O       -13.034000       -4.890000        2.793000
N       -11.044000       -5.742000        2.132000
H       -10.104000       -6.021000        2.390000
C       -11.504000       -5.989000        0.786000
H       -10.851000       -6.727000        0.319000
H       -12.521000       -6.396000        0.835000
C       -11.515000       -4.783000       -0.141000
O       -11.052000       -4.862000       -1.276000
N       -12.082000       -3.667000        0.361000
H       -12.565000       -3.736000        1.253000
C       -12.249000       -2.482000       -0.461000
H       -12.396000       -2.835000       -1.490000
C       -13.462000       -1.660000       -0.022000
H       -14.215000       -2.361000        0.359000
H       -13.167000       -1.009000        0.808000
C       -14.139000       -0.822000       -1.122000
H       -14.442000       -1.492000       -1.940000
H       -15.073000       -0.449000       -0.687000
C       -13.367000        0.383000       -1.703000
H       -14.083000        1.195000       -1.891000
H       -12.645000        0.754000       -0.969000
C       -12.647000        0.098000       -3.028000
H       -11.876000       -0.670000       -2.888000
H       -13.365000       -0.309000       -3.751000
N       -12.000000        1.269000       -3.644000
H       -11.172000        1.512000       -3.101000
H       -11.339000        1.667000       -5.542000
H       -12.620000        2.074000       -3.563000
C       -10.954000       -1.634000       -0.453000
O       -10.906000       -0.499000        0.010000
N        -9.906000       -2.268000       -1.018000
H       -10.044000       -3.209000       -1.385000
C        -8.629000       -1.628000       -1.248000
H        -8.789000       -0.547000       -1.183000
C        -7.513000       -2.014000       -0.251000
H        -7.295000       -3.082000       -0.389000
C        -6.253000       -1.200000       -0.573000
H        -6.462000       -0.125000       -0.532000
H        -5.459000       -1.418000        0.147000
H        -5.865000       -1.420000       -1.574000
C        -7.967000       -1.795000        1.192000
H        -8.837000       -2.416000        1.432000
H        -7.160000       -2.047000        1.890000
H        -8.248000       -0.749000        1.360000
C        -8.238000       -2.026000       -2.659000
O        -8.173000       -3.228000       -2.953000
N        -8.045000       -1.038000       -3.536000
H        -7.954000       -0.086000       -3.177000
C        -7.678000       -1.307000       -4.912000
H        -7.610000       -2.390000       -5.029000
C        -8.720000       -0.765000       -5.900000
H        -8.663000        0.328000       -5.940000
H        -8.458000       -1.150000       -6.891000
C       -10.151000       -1.145000       -5.513000
H       -10.345000       -0.820000       -4.488000
H       -10.849000       -0.573000       -6.138000
C       -10.499000       -2.630000       -5.629000
H        -9.783000       -3.252000       -5.085000
H       -11.486000       -2.819000       -5.191000
N       -10.504000       -3.011000       -7.039000
H       -10.780000       -2.274000       -7.671000
C        -9.795000       -4.000000       -7.609000
N        -9.449000       -5.098000       -6.955000
H        -9.472000       -5.189000       -5.936000
H        -8.681000       -5.608000       -7.394000
N        -9.514000       -3.925000       -8.930000
H        -9.435000       -2.976000       -9.270000
H        -8.632000       -4.456000       -9.118000
C        -6.286000       -0.714000       -5.140000
O        -5.890000        0.212000       -4.420000
N        -5.549000       -1.260000       -6.108000
H        -5.911000       -2.079000       -6.630000
C        -4.160000       -0.854000       -6.264000
H        -4.070000        0.202000       -6.005000
C        -3.262000       -1.697000       -5.346000
H        -3.309000       -2.753000       -5.635000
H        -2.221000       -1.359000       -5.397000
H        -3.607000       -1.607000       -4.313000
C        -3.741000       -1.087000       -7.708000
O        -3.982000       -2.141000       -8.288000
N        -3.039000       -0.086000       -8.285000
H        -2.937000        0.798000       -7.790000
C        -2.608000       -0.231000       -9.660000
H        -2.228000       -1.248000       -9.793000
C        -3.729000       -0.002000      -10.673000
H        -3.328000       -0.125000      -11.683000
H        -4.518000       -0.739000      -10.507000
S        -4.405000        1.695000      -10.494000
H        -5.006000        1.745000      -11.694000
H        -1.788000        0.472000       -9.838000
H         8.413000        1.255000       -7.983000
C         7.634000        1.310000       -8.751000
H         8.123000        1.384000       -9.728000
C         6.722000        0.086000       -8.682000
H         5.933000        0.164000       -9.441000
H         7.296000       -0.822000       -8.908000
C         6.096000       -0.058000       -7.300000
H         6.884000       -0.247000       -6.562000
H         5.576000        0.865000       -7.013000
S         4.885000       -1.425000       -7.256000
C         4.749000       -1.616000       -5.458000
H         4.853000       -0.641000       -4.984000
H         3.756000       -1.980000       -5.198000
H         5.503000       -2.303000       -5.066000
H         7.065000        2.234000       -8.590000
H         2.464000        3.423000       -7.606000
C         1.448000        3.081000       -7.816000
H         1.248000        3.268000       -8.879000
C         1.322000        1.575000       -7.527000
H         0.309000        1.213000       -7.748000
H         1.992000        1.041000       -8.212000
C         1.688000        1.240000       -6.102000
C         0.768000        0.685000       -5.211000
H        -0.248000        0.481000       -5.545000
C         1.138000        0.419000       -3.892000
H         0.418000       -0.013000       -3.202000
C         2.422000        0.721000       -3.454000
H         2.718000        0.540000       -2.430000
C         3.338000        1.287000       -4.335000
H         4.332000        1.546000       -3.982000
C         2.974000        1.537000       -5.648000
H         3.685000        2.014000       -6.315000
C         0.530000        3.968000       -7.002000
O         0.922000        4.908000       -6.326000
N        -0.783000        3.666000       -7.131000
H        -1.067000        2.826000       -7.614000
C        -1.792000        4.294000       -6.324000
H        -1.292000        4.877000       -5.546000
C        -2.658000        5.244000       -7.170000
H        -1.992000        6.050000       -7.494000
H        -3.006000        4.704000       -8.061000
C        -3.859000        5.817000       -6.418000
H        -4.585000        5.024000       -6.209000
H        -3.541000        6.217000       -5.447000
C        -4.576000        6.917000       -7.202000
H        -4.683000        6.622000       -8.255000
H        -5.585000        7.038000       -6.789000
N        -3.850000        8.174000       -7.099000
H        -2.817000        8.153000       -6.811000
C        -4.384000        9.372000       -7.233000
N        -5.664000        9.525000       -7.700000
H        -6.231000        8.694000       -7.766000
H        -6.165000       10.335000       -7.367000
N        -3.679000       10.459000       -6.939000
H        -2.679000       10.395000       -6.560000
H        -4.025000       11.358000       -7.234000
C        -2.629000        3.191000       -5.694000
O        -2.932000        2.179000       -6.343000
N        -3.016000        3.429000       -4.434000
H        -2.728000        4.307000       -3.995000
C        -4.025000        2.636000       -3.769000
H        -4.301000        1.827000       -4.447000
C        -3.527000        1.992000       -2.457000
H        -4.397000        1.489000       -2.014000
C        -2.462000        0.945000       -2.778000
H        -1.578000        1.417000       -3.224000
H        -2.145000        0.434000       -1.862000
H        -2.842000        0.196000       -3.477000
C        -2.987000        3.016000       -1.463000
H        -3.729000        3.785000       -1.248000
H        -2.727000        2.535000       -0.515000
H        -2.088000        3.510000       -1.849000
C        -5.260000        3.525000       -3.573000
O        -5.170000        4.729000       -3.323000
N        -6.445000        2.901000       -3.726000
H        -6.429000        1.888000       -3.853000
C        -7.685000        3.499000       -3.295000
H        -7.543000        4.570000       -3.150000
C        -8.883000        3.201000       -4.212000
H        -9.034000        2.117000       -4.193000
H        -9.749000        3.650000       -3.708000
C        -8.942000        3.633000       -5.682000
H        -8.806000        4.709000       -5.806000
H        -8.206000        3.088000       -6.282000
C       -10.368000        3.255000       -6.043000
O       -10.526000        1.911000       -6.043000
O       -11.287000        4.028000       -6.150000
C        -8.172000        2.800000       -2.025000
O        -8.076000        1.570000       -1.925000
N        -8.849000        3.565000       -1.165000
H        -9.011000        4.552000       -1.366000
C        -9.500000        2.989000       -0.008000
H       -10.164000        2.175000       -0.338000
C        -8.493000        2.360000        0.973000
H        -9.039000        1.925000        1.817000
H        -8.032000        1.515000        0.456000
C        -7.401000        3.295000        1.506000
H        -7.793000        4.300000        1.697000
H        -7.038000        2.916000        2.466000
S        -5.941000        3.446000        0.404000
C        -6.012000        5.181000       -0.108000
H        -5.828000        5.855000        0.733000
H        -5.225000        5.324000       -0.850000
H        -6.971000        5.423000       -0.571000
C       -10.407000        4.074000        0.577000
O       -10.877000        4.950000       -0.142000
N       -10.679000        3.966000        1.897000
H       -10.319000        3.200000        2.465000
C       -11.727000        4.758000        2.496000
H       -12.035000        5.476000        1.730000
C       -12.947000        3.892000        2.881000
H       -12.617000        3.212000        3.676000
C       -14.075000        4.769000        3.430000
H       -14.407000        5.492000        2.675000
H       -14.938000        4.156000        3.708000
H       -13.761000        5.325000        4.320000
C       -13.422000        3.059000        1.689000
H       -12.657000        2.346000        1.364000
H       -14.318000        2.489000        1.956000
H       -13.668000        3.701000        0.835000
C       -11.207000        5.505000        3.723000
O       -10.918000        4.921000        4.772000
N       -11.164000        6.844000        3.599000
H       -11.158000        7.210000        2.658000
C       -10.658000        7.692000        4.661000
H       -11.097000        7.333000        5.595000
C        -9.125000        7.703000        4.791000
H        -8.766000        6.672000        4.681000
H        -8.692000        8.286000        3.973000
C        -8.675000        8.257000        6.105000
C        -7.991000        9.417000        6.335000
H        -7.631000       10.155000        5.632000
N        -7.767000        9.574000        7.687000
H        -7.200000       10.297000        8.097000
C        -8.291000        8.493000        8.358000
C        -8.299000        8.185000        9.720000
H        -7.836000        8.842000       10.452000
C        -8.911000        7.003000       10.102000
H        -8.929000        6.730000       11.153000
C        -9.501000        6.143000        9.155000
H        -9.963000        5.221000        9.493000
C        -9.490000        6.451000        7.806000
H        -9.935000        5.782000        7.073000
C        -8.879000        7.645000        7.393000
H       -11.033000        8.706000        4.494000
H       -10.494000        7.841000       -0.896000
C        -9.588000        8.445000       -0.993000
H        -9.850000        9.393000       -1.477000
C        -8.982000        8.736000        0.382000
H        -8.029000        9.266000        0.294000
H        -9.662000        9.361000        0.967000
S        -8.685000        7.150000        1.243000
H        -7.706000        7.584000        2.051000
C        -8.624000        7.662000       -1.888000
O        -8.859000        6.521000       -2.280000
N        -7.506000        8.342000       -2.221000
H        -7.267000        9.208000       -1.751000
C        -6.394000        7.754000       -2.932000
H        -6.540000        6.673000       -2.972000
C        -6.279000        8.310000       -4.354000
H        -6.180000        9.401000       -4.328000
H        -5.387000        7.901000       -4.835000
H        -7.167000        8.042000       -4.936000
C        -5.113000        8.079000       -2.167000
O        -5.058000        9.106000       -1.489000
N        -4.112000        7.212000       -2.368000
H        -4.301000        6.328000       -2.840000
C        -2.784000        7.394000       -1.816000
H        -2.678000        8.457000       -1.580000
C        -2.575000        6.541000       -0.558000
H        -3.356000        6.812000        0.164000
H        -2.745000        5.500000       -0.842000
C        -1.195000        6.664000        0.106000
H        -0.422000        6.642000       -0.673000
C        -1.048000        7.977000        0.875000
H        -1.711000        7.984000        1.750000
H        -0.029000        8.121000        1.242000
H        -1.298000        8.842000        0.251000
C        -0.969000        5.458000        1.019000
H        -1.039000        4.526000        0.447000
H         0.014000        5.491000        1.498000
H        -1.727000        5.424000        1.812000
C        -1.773000        7.001000       -2.889000
O        -1.856000        5.901000       -3.454000
N        -0.811000        7.897000       -3.133000
H        -0.843000        8.792000       -2.642000
C         0.252000        7.661000       -4.098000
H        -0.099000        6.870000       -4.763000
C         0.448000        8.906000       -4.959000
H         0.662000        9.793000       -4.355000
H         1.293000        8.739000       -5.637000
C        -0.817000        9.140000       -5.799000
O        -1.352000        8.109000       -6.299000
O        -1.229000       10.318000       -5.926000
C         1.506000        7.180000       -3.364000
O         1.920000        7.778000       -2.367000
N         2.074000        6.063000       -3.857000
H         1.692000        5.615000       -4.689000
C         3.116000        5.349000       -3.143000
H         3.551000        6.046000       -2.418000
C         2.542000        4.117000       -2.387000
H         2.193000        3.414000       -3.154000
C         3.627000        3.439000       -1.544000
H         4.127000        4.174000       -0.902000
H         3.181000        2.674000       -0.901000
H         4.395000        2.944000       -2.143000
C         1.344000        4.487000       -1.510000
H         0.528000        4.924000       -2.095000
H         0.957000        3.582000       -1.026000
H         1.623000        5.190000       -0.718000
C         4.181000        4.878000       -4.133000
O         3.881000        4.461000       -5.246000
N         5.462000        4.896000       -3.673000
H         5.667000        5.263000       -2.743000
C         6.514000        4.209000       -4.398000
H         6.040000        3.795000       -5.294000
C         7.666000        5.145000       -4.821000
H         8.066000        5.598000       -3.903000
C         8.787000        4.345000       -5.492000
H         8.418000        3.830000       -6.390000
H         9.608000        4.999000       -5.796000
H         9.212000        3.588000       -4.825000
C         7.125000        6.264000       -5.720000
H         6.771000        5.826000       -6.663000
H         6.246000        6.702000       -5.235000
C         8.138000        7.372000       -6.006000
H         8.993000        7.011000       -6.588000
H         7.672000        8.183000       -6.575000
H         8.524000        7.797000       -5.073000
C         7.053000        3.099000       -3.509000
O         7.458000        3.366000       -2.383000
N         7.081000        1.836000       -4.008000
H         6.988000        1.713000       -5.008000
C         7.816000        0.827000       -3.276000
H         7.973000        1.232000       -2.275000
C         7.127000       -0.521000       -3.130000
H         6.979000       -1.002000       -4.101000
H         7.791000       -1.178000       -2.554000
C         5.814000       -0.480000       -2.386000
O         5.344000        0.499000       -1.847000
O         5.228000       -1.672000       -2.417000
H         4.309000       -1.609000       -2.035000
C         9.171000        0.574000       -3.941000
O         9.271000        0.482000       -5.168000
N        10.181000        0.408000       -3.069000
H         9.982000        0.479000       -2.065000
C        11.508000       -0.048000       -3.446000
H        11.556000       -0.046000       -4.540000
C        12.595000        0.877000       -2.855000
H        12.470000        0.866000       -1.764000
C        13.997000        0.351000       -3.166000
H        14.175000        0.316000       -4.249000
H        14.745000        1.011000       -2.718000
H        14.159000       -0.652000       -2.756000
C        12.412000        2.310000       -3.355000
H        11.423000        2.701000       -3.102000
H        13.152000        2.968000       -2.888000
H        12.537000        2.362000       -4.444000
C        11.647000       -1.454000       -2.878000
O        11.456000       -1.681000       -1.686000
N        11.991000       -2.426000       -3.747000
H        12.087000       -2.199000       -4.726000
C        12.238000       -3.783000       -3.316000
H        12.226000       -3.776000       -2.225000
C        11.224000       -4.786000       -3.871000
H        11.156000       -4.670000       -4.961000
H        11.596000       -5.800000       -3.677000
C         9.839000       -4.633000       -3.251000
H         9.881000       -4.837000       -2.176000
H         9.466000       -3.611000       -3.387000
S         8.697000       -5.815000       -4.034000
C         7.207000       -5.523000       -3.050000
H         6.845000       -4.496000       -3.155000
H         6.434000       -6.201000       -3.421000
H         7.397000       -5.738000       -1.995000
H        13.245000       -4.075000       -3.636000
H        11.458000      -11.178000       -2.017000
C        11.499000      -10.123000       -1.721000
H        12.147000       -9.598000       -2.434000
C        10.098000       -9.497000       -1.706000
H         9.471000      -10.076000       -1.011000
C        10.153000       -8.055000       -1.189000
H        10.793000       -7.439000       -1.833000
H         9.161000       -7.592000       -1.165000
H        10.558000       -8.016000       -0.171000
C         9.456000       -9.581000       -3.100000
H         9.942000       -8.847000       -3.758000
H         9.664000      -10.572000       -3.528000
C         7.947000       -9.350000       -3.110000
H         7.685000       -8.383000       -2.671000
H         7.554000       -9.364000       -4.134000
H         7.430000      -10.125000       -2.533000
H        11.972000      -10.064000       -0.734000
H        10.928000       -4.474000        1.433000
C        10.401000       -3.711000        0.854000
H        10.963000       -3.515000       -0.066000
C         8.990000       -4.218000        0.495000
H         9.094000       -5.163000       -0.059000
H         8.443000       -4.455000        1.415000
C         8.172000       -3.229000       -0.353000
H         8.842000       -2.667000       -1.014000
H         7.460000       -3.761000       -0.990000
S         7.220000       -1.982000        0.574000
C         5.725000       -2.936000        0.947000
H         5.977000       -3.880000        1.440000
H         5.120000       -2.342000        1.640000
H         5.146000       -3.133000        0.040000
C        10.319000       -2.460000        1.712000
O        10.064000       -2.552000        2.911000
N        10.485000       -1.302000        1.048000
H        10.731000       -1.326000        0.063000
C        10.265000        0.009000        1.626000
H         9.981000       -0.126000        2.672000
C        11.506000        0.889000        1.484000
H        11.641000        1.112000        0.422000
H        11.314000        1.845000        1.986000
C        12.780000        0.257000        2.026000
H        12.661000       -0.087000        3.059000
H        13.056000       -0.601000        1.402000
C        13.886000        1.290000        1.939000
O        14.090000        1.904000        0.871000
N        14.579000        1.474000        3.059000
H        15.201000        2.269000        3.100000
H        14.265000        1.024000        3.947000
C         9.154000        0.691000        0.839000
O         9.185000        0.703000       -0.403000
N         8.215000        1.304000        1.560000
H         8.187000        1.153000        2.571000
C         7.109000        1.987000        0.929000
H         7.221000        1.856000       -0.148000
C         5.763000        1.405000        1.365000
H         5.596000        1.541000        2.436000
H         4.949000        1.900000        0.824000
H         5.722000        0.341000        1.124000
C         7.163000        3.466000        1.284000
O         7.013000        3.859000        2.441000
N         7.375000        4.292000        0.255000
H         7.391000        3.924000       -0.691000
C         7.577000        5.714000        0.420000
H         7.936000        5.881000        1.438000
C         8.621000        6.202000       -0.605000
H         8.259000        5.903000       -1.596000
H         8.612000        7.297000       -0.593000
C        10.037000        5.714000       -0.376000
C        10.416000        4.373000       -0.523000
H         9.686000        3.622000       -0.812000
C        11.730000        3.968000       -0.317000
H        12.010000        2.926000       -0.419000
C        12.719000        4.893000        0.032000
O        14.003000        4.548000        0.249000
H        14.070000        3.588000        0.481000
C        12.360000        6.238000        0.153000
H        13.122000        6.961000        0.428000
C        11.039000        6.628000       -0.039000
H        10.781000        7.679000        0.080000
C         6.252000        6.437000        0.186000
O         5.734000        6.449000       -0.938000
N         5.741000        7.049000        1.262000
H         6.106000        6.863000        2.190000
C         4.500000        7.785000        1.241000
H         4.550000        8.543000        0.452000
C         3.282000        6.867000        0.940000
H         2.392000        7.505000        0.889000
H         3.434000        6.465000       -0.064000
C         3.073000        5.764000        1.933000
C         3.684000        4.535000        1.952000
H         4.433000        4.138000        1.283000
N         3.235000        3.782000        3.007000
H         3.503000        2.828000        3.250000
C         2.309000        4.517000        3.701000
C         1.556000        4.168000        4.827000
H         1.662000        3.182000        5.272000
C         0.691000        5.124000        5.332000
H         0.090000        4.890000        6.207000
C         0.579000        6.398000        4.735000
H        -0.097000        7.130000        5.168000
C         1.321000        6.737000        3.617000
H         1.239000        7.728000        3.177000
C         2.194000        5.780000        3.072000
C         4.304000        8.451000        2.599000
O         4.824000        7.977000        3.607000
N         3.440000        9.483000        2.579000
H         3.295000        9.999000        1.712000
C         3.022000       10.152000        3.790000
H         2.965000        9.385000        4.574000
C         4.061000       11.210000        4.223000
H         3.821000       11.610000        5.216000
H         5.015000       10.672000        4.308000
O         4.172000       12.230000        3.271000
H         3.844000       13.070000        3.667000
C         1.613000       10.714000        3.575000
O         0.892000       10.369000        2.633000
N         1.194000       11.583000        4.507000
H         1.830000       11.953000        5.219000
C        -0.023000       12.341000        4.305000
H        -0.885000       11.660000        4.349000
C        -0.185000       13.458000        5.341000
H        -1.221000       13.818000        5.281000
H        -0.042000       13.037000        6.343000
C         0.788000       14.630000        5.160000
H         0.620000       15.129000        4.199000
H         0.610000       15.363000        5.958000
C         2.260000       14.150000        5.231000
O         2.525000       13.368000        6.185000
O         3.015000       14.513000        4.303000
H        -0.016000       12.767000        3.290000
H         0.501000       12.590000       -0.138000
C         0.311000       11.795000       -0.865000
H         0.555000       12.162000       -1.867000
C         1.161000       10.542000       -0.531000
H         1.043000       10.305000        0.530000
H         0.797000        9.701000       -1.127000
C         2.643000       10.714000       -0.797000
O         3.428000       11.105000        0.056000
N         3.038000       10.426000       -2.078000
H         4.045000       10.388000       -2.180000
H         2.550000        9.645000       -2.509000
C        -1.136000       11.330000       -0.876000
O        -1.532000       10.485000       -1.683000
N        -1.938000       11.863000        0.075000
H        -1.482000       12.431000        0.776000
C        -3.250000       11.332000        0.417000
H        -3.438000       10.476000       -0.235000
C        -3.274000       10.954000        1.902000
H        -2.439000       10.271000        2.106000
H        -3.073000       11.860000        2.492000
C        -4.587000       10.332000        2.396000
H        -5.417000       10.973000        2.058000
C        -4.811000        8.925000        1.834000
H        -4.009000        8.252000        2.159000
H        -5.755000        8.510000        2.212000
H        -4.845000        8.914000        0.741000
C        -4.605000       10.298000        3.928000
H        -4.531000       11.306000        4.353000
H        -5.522000        9.829000        4.306000
H        -3.757000        9.715000        4.307000
H        -4.024000       12.081000        0.204000
O         1.341000       -2.815000        3.125000
H         2.027000       -3.488000        3.050000
H         1.881000       -1.994000        3.298000
O        -1.158000       -3.828000        3.838000
H        -1.557000       -3.539000        3.009000
H        -0.253000       -3.439000        3.790000
O        -1.201000       -3.035000        8.171000
H        -0.917000       -3.821000        7.685000
H        -0.457000       -2.421000        8.084000
O        -7.209000       -3.969000        9.982000
H        -7.101000       -3.967000        9.017000
H        -7.036000       -3.057000       10.241000
O        -7.309000       -5.724000       -1.824000
H        -7.615000       -4.809000       -1.932000
H        -6.438000       -5.730000       -2.263000
O        -8.321000       -3.576000        5.315000
H        -7.755000       -3.611000        6.104000
H        -7.756000       -3.109000        4.676000
O        -8.458000       -5.523000       -4.436000
H        -8.125000       -4.637000       -4.221000
H        -8.350000       -5.971000       -3.576000
O       -10.029000        2.357000        4.132000
H       -10.646000        1.701000        4.473000
H       -10.266000        3.192000        4.585000
$end

$rem
JOBTYPE  SP
METHOD  WB97X-V
BASIS  6-31G(D)
SYMMETRY  FALSE
SYM_IGNORE  TRUE
MEM_TOTAL  10000
MEM_STATIC  2000
BASIS_LIN_DEP_THRESH  6
THRESH  14
SCF_CONVERGENCE  8
FD_MAT_VEC_PROD  FALSE
XC_GRID  000075000302
NL_GRID  1
MAX_SCF_CYCLES  200
ENV_METHOD  WB97X-V
GEN_SCFMAN_EMBED  TRUE
SPADE_PARTITION  TRUE
EMBEDDING_EARLY_STOP  TRUE
$end

--------------------------------------------------------------
 ----------------------------------------------------------------
             Standard Nuclear Orientation (Angstroms)
    I     Atom           X                Y                Z
 ----------------------------------------------------------------
    1      C       1.9610000000    -1.6480000000    -0.8950000000
    2      O       2.7170000000    -1.9650000000    -1.8170000000
    3      C       2.1110000000    -0.4190000000    -0.1430000000
    4      C       1.1720000000     0.0190000000     0.7280000000
    5      C      -0.1210000000    -0.7430000000     0.9660000000
    6      C      -0.4080000000    -1.7530000000    -0.1500000000
    7      C       0.8380000000    -2.5600000000    -0.4860000000
    8      C       1.4380000000     1.2320000000     1.5640000000
    9      C       0.2030000000     2.0600000000     1.9110000000
   10      C      -0.9470000000     1.1730000000     2.3850000000
   11      C      -1.3110000000     0.1970000000     1.2440000000
   12      C      -2.1730000000     1.9710000000     2.8000000000
   13      C      -3.3690000000     1.0850000000     3.2020000000
   14      C      -3.7800000000     0.2490000000     1.9900000000
   15      C      -2.6070000000    -0.6010000000     1.4820000000
   16      C      -2.0520000000     2.9810000000     3.9500000000
   17      C      -3.5180000000     3.1890000000     4.4190000000
   18      C      -4.3630000000     2.1900000000     3.6060000000
   19      C      -3.0930000000     0.1720000000     4.4080000000
   20      O      -5.4920000000     1.7680000000     4.3600000000
   21      H       3.0320000000     0.1400000000    -0.2950000000
   22      H       0.0550000000    -1.3200000000     1.8880000000
   23      H      -0.7650000000    -1.2250000000    -1.0460000000
   24      H      -1.2110000000    -2.4350000000     0.1520000000
   25      H       1.1760000000    -3.0730000000     0.4250000000
   26      H       0.6760000000    -3.3060000000    -1.2680000000
   27      H       2.1990000000     1.8570000000     1.0850000000
   28      H       1.9130000000     0.8810000000     2.4960000000
   29      H      -0.1310000000     2.6310000000     1.0340000000
   30      H       0.4730000000     2.7930000000     2.6760000000
   31      H      -0.5920000000     0.5900000000     3.2490000000
   32      H      -1.4730000000     0.8150000000     0.3460000000
   33      H      -2.5000000000     2.5370000000     1.9110000000
   34      H      -4.1140000000     0.9210000000     1.1860000000
   35      H      -4.6280000000    -0.4120000000     2.2290000000
   36      H      -2.4040000000    -1.4130000000     2.1970000000
   37      H      -2.9100000000    -1.0870000000     0.5470000000
   38      H      -1.5690000000     3.9110000000     3.6390000000
   39      H      -1.4310000000     2.5720000000     4.7560000000
   40      H      -3.8620000000     4.2150000000     4.2590000000
   41      H      -3.6410000000     2.9720000000     5.4850000000
   42      H      -4.7030000000     2.6800000000     2.6820000000
   43      H      -2.8050000000     0.7400000000     5.2970000000
   44      H      -4.0050000000    -0.3830000000     4.6550000000
   45      H      -2.2970000000    -0.5530000000     4.2130000000
   46      H      -5.9490000000     1.0960000000     3.8390000000
   47      H       7.5430000000    -6.7900000000    -9.4640000000
   48      C       6.8760000000    -6.2100000000    -8.8150000000
   49      H       6.7420000000    -6.7780000000    -7.8860000000
   50      C       7.4500000000    -4.8190000000    -8.5280000000
   51      H       7.5710000000    -4.2610000000    -9.4640000000
   52      H       6.7390000000    -4.2480000000    -7.9190000000
   53      C       8.7960000000    -4.9080000000    -7.8100000000
   54      H       8.6910000000    -5.4550000000    -6.8680000000
   55      H       9.5180000000    -5.4530000000    -8.4300000000
   56      S       9.5930000000    -3.3070000000    -7.4520000000
   57      C       8.4350000000    -2.6300000000    -6.2300000000
   58      H       8.3320000000    -3.3160000000    -5.3850000000
   59      H       8.8430000000    -1.6730000000    -5.8900000000
   60      H       7.4540000000    -2.4580000000    -6.6800000000
   61      H       5.9020000000    -6.1400000000    -9.3140000000
   62      H       3.0240000000    -8.3980000000    -7.4590000000
   63      C       2.8430000000    -8.0370000000    -6.4390000000
   64      H       2.5680000000    -8.9030000000    -5.8320000000
   65      C       4.1250000000    -7.3840000000    -5.8830000000
   66      H       4.8860000000    -8.1680000000    -5.7930000000
   67      H       4.5260000000    -6.6660000000    -6.6100000000
   68      C       3.9300000000    -6.6790000000    -4.5580000000
   69      C       3.6900000000    -7.3730000000    -3.3720000000
   70      H       3.6410000000    -8.4610000000    -3.3800000000
   71      C       3.5000000000    -6.6950000000    -2.1650000000
   72      H       3.2630000000    -7.2430000000    -1.2550000000
   73      C       3.5440000000    -5.2960000000    -2.1280000000
   74      O       3.3660000000    -4.5870000000    -0.9980000000
   75      H       3.5220000000    -5.1240000000    -0.1990000000
   76      C       3.7750000000    -4.5900000000    -3.3120000000
   77      H       3.8120000000    -3.5100000000    -3.2730000000
   78      C       3.9670000000    -5.2810000000    -4.4950000000
   79      H       4.1790000000    -4.7140000000    -5.3990000000
   80      C       1.6130000000    -7.1410000000    -6.4480000000
   81      O       0.5480000000    -7.5320000000    -5.9660000000
   82      N       1.7310000000    -5.9290000000    -7.0310000000
   83      H       2.6090000000    -5.6620000000    -7.4510000000
   84      C       0.5700000000    -5.0790000000    -7.2300000000
   85      H      -0.0590000000    -5.1840000000    -6.3410000000
   86      C       0.8760000000    -3.6000000000    -7.4680000000
   87      H       1.5030000000    -3.5170000000    -8.3690000000
   88      C      -0.4450000000    -2.8750000000    -7.7530000000
   89      H      -1.1580000000    -3.0040000000    -6.9320000000
   90      H      -0.2770000000    -1.8000000000    -7.8780000000
   91      H      -0.9290000000    -3.2540000000    -8.6600000000
   92      C       1.6550000000    -2.9530000000    -6.3150000000
   93      H       2.6460000000    -3.4190000000    -6.2710000000
   94      H       1.8250000000    -1.8980000000    -6.5630000000
   95      C       1.0050000000    -3.0580000000    -4.9370000000
   96      H       0.9510000000    -4.1000000000    -4.6090000000
   97      H       1.5850000000    -2.5110000000    -4.1860000000
   98      H      -0.0080000000    -2.6380000000    -4.9310000000
   99      H      -0.0210000000    -5.4680000000    -8.0710000000
  100      H      -1.6480000000    -8.9520000000    -6.6220000000
  101      C      -2.0440000000    -9.5370000000    -5.7840000000
  102      H      -2.8040000000   -10.2280000000    -6.1540000000
  103      C      -0.8830000000   -10.2830000000    -5.0990000000
  104      H      -0.2990000000    -9.5550000000    -4.5250000000
  105      H      -1.2950000000   -11.0050000000    -4.3780000000
  106      C       0.0760000000   -10.9940000000    -6.0570000000
  107      H       0.4770000000   -10.2250000000    -6.7330000000
  108      C       1.2450000000   -11.5920000000    -5.2720000000
  109      H       0.8940000000   -12.3670000000    -4.5770000000
  110      H       1.9850000000   -12.0500000000    -5.9390000000
  111      H       1.7540000000   -10.8240000000    -4.6760000000
  112      C      -0.6220000000   -12.0650000000    -6.8970000000
  113      H      -1.4130000000   -11.6380000000    -7.5220000000
  114      H       0.0890000000   -12.5720000000    -7.5600000000
  115      H      -1.0790000000   -12.8260000000    -6.2510000000
  116      C      -2.7050000000    -8.6190000000    -4.7680000000
  117      O      -3.7200000000    -8.9230000000    -4.1560000000
  118      N      -2.0570000000    -7.4360000000    -4.5630000000
  119      H      -1.1660000000    -7.2830000000    -5.0310000000
  120      C      -2.5130000000    -6.4900000000    -3.5590000000
  121      H      -2.6380000000    -6.9960000000    -2.5940000000
  122      C      -1.4640000000    -5.3600000000    -3.4240000000
  123      H      -1.2350000000    -5.0230000000    -4.4460000000
  124      C      -1.9770000000    -4.1410000000    -2.6550000000
  125      H      -2.2350000000    -4.4000000000    -1.6230000000
  126      H      -1.1980000000    -3.3710000000    -2.6310000000
  127      H      -2.8670000000    -3.7050000000    -3.1170000000
  128      C      -0.1790000000    -5.9000000000    -2.7870000000
  129      H       0.2460000000    -6.7410000000    -3.3460000000
  130      H       0.5890000000    -5.1220000000    -2.7350000000
  131      H      -0.3810000000    -6.2360000000    -1.7630000000
  132      C      -3.9010000000    -5.9430000000    -3.9070000000
  133      O      -4.6970000000    -5.6240000000    -3.0240000000
  134      N      -4.1130000000    -5.7660000000    -5.2220000000
  135      H      -3.4360000000    -6.1830000000    -5.8440000000
  136      C      -5.3750000000    -5.3240000000    -5.7820000000
  137      H      -5.7000000000    -4.4390000000    -5.2270000000
  138      C      -5.2110000000    -4.9740000000    -7.2570000000
  139      H      -4.4580000000    -4.1890000000    -7.3780000000
  140      H      -4.9120000000    -5.8570000000    -7.8290000000
  141      C      -6.5380000000    -4.4530000000    -7.8060000000
  142      O      -6.9660000000    -3.3550000000    -7.3620000000
  143      O      -7.1510000000    -5.2050000000    -8.6210000000
  144      H      -6.1470000000    -6.0890000000    -5.6370000000
  145      H      -5.4580000000    -8.9680000000    -2.3910000000
  146      C      -6.2250000000    -8.9880000000    -1.6120000000
  147      H      -6.0290000000    -8.1900000000    -0.8900000000
  148      H      -7.2040000000    -8.8050000000    -2.0600000000
  149      H      -6.2240000000    -9.9640000000    -1.1140000000
  150      H      -1.8230000000   -11.7230000000     0.6650000000
  151      C      -2.6230000000   -12.1470000000     1.2820000000
  152      H      -2.3330000000   -12.0320000000     2.3340000000
  153      C      -3.9620000000   -11.4600000000     0.9860000000
  154      H      -4.1910000000   -11.6250000000    -0.0740000000
  155      C      -5.0930000000   -12.0900000000     1.8050000000
  156      H      -4.8550000000   -12.0680000000     2.8790000000
  157      H      -6.0440000000   -11.5650000000     1.6360000000
  158      H      -5.2460000000   -13.1410000000     1.5390000000
  159      C      -3.8900000000    -9.9370000000     1.1810000000
  160      H      -3.0400000000    -9.5560000000     0.6060000000
  161      H      -4.7780000000    -9.4730000000     0.7360000000
  162      C      -3.7680000000    -9.4680000000     2.6300000000
  163      H      -2.9970000000   -10.0160000000     3.1870000000
  164      H      -3.5210000000    -8.4060000000     2.6840000000
  165      H      -4.7140000000    -9.5770000000     3.1780000000
  166      H      -2.6770000000   -13.2210000000     1.0720000000
  167      H       0.9540000000   -12.5170000000    -1.5580000000
  168      C       1.7510000000   -11.8430000000    -1.2230000000
  169      H       2.2490000000   -11.4490000000    -2.1180000000
  170      C       1.1950000000   -10.6980000000    -0.3700000000
  171      H       0.7210000000   -11.1350000000     0.5230000000
  172      C       2.3290000000    -9.7850000000     0.0940000000
  173      H       2.7890000000    -9.3000000000    -0.7770000000
  174      H       1.9810000000    -9.0000000000     0.7710000000
  175      H       3.1150000000   -10.3450000000     0.6120000000
  176      C       0.1130000000    -9.9160000000    -1.1320000000
  177      H       0.5470000000    -9.5090000000    -2.0570000000
  178      H      -0.6730000000   -10.6140000000    -1.4500000000
  179      C      -0.5160000000    -8.7770000000    -0.3280000000
  180      H       0.1900000000    -7.9580000000    -0.1590000000
  181      H      -1.3840000000    -8.3610000000    -0.8510000000
  182      H      -0.8470000000    -9.1280000000     0.6580000000
  183      H       2.4840000000   -12.4350000000    -0.6630000000
  184      H       8.3000000000   -12.4800000000    -0.5190000000
  185      C       8.5800000000   -12.4830000000     0.5400000000
  186      H       9.4740000000   -11.8580000000     0.6440000000
  187      C       7.4370000000   -11.9460000000     1.4060000000
  188      H       6.5680000000   -12.6090000000     1.3150000000
  189      H       7.7380000000   -11.9660000000     2.4610000000
  190      C       7.0500000000   -10.5410000000     1.0130000000
  191      C       6.0910000000   -10.3130000000     0.0250000000
  192      H       5.5850000000   -11.1560000000    -0.4410000000
  193      C       5.7630000000    -9.0230000000    -0.3810000000
  194      H       5.0220000000    -8.8620000000    -1.1590000000
  195      C       6.4010000000    -7.9380000000     0.2100000000
  196      O       6.0800000000    -6.6390000000    -0.0920000000
  197      H       5.5460000000    -6.6110000000    -0.9040000000
  198      C       7.3740000000    -8.1390000000     1.1850000000
  199      H       7.8730000000    -7.2800000000     1.6200000000
  200      C       7.6880000000    -9.4330000000     1.5780000000
  201      H       8.4480000000    -9.5820000000     2.3410000000
  202      H       8.8460000000   -13.5080000000     0.8220000000
  203      H       9.5240000000    -5.1280000000     6.0690000000
  204      C       9.0290000000    -4.3830000000     5.4360000000
  205      H       9.6440000000    -4.2080000000     4.5470000000
  206      C       7.6430000000    -4.8970000000     5.0080000000
  207      H       7.0910000000    -5.1580000000     5.9200000000
  208      C       6.8560000000    -3.8160000000     4.2620000000
  209      H       7.4400000000    -3.4060000000     3.4280000000
  210      H       5.9110000000    -4.2120000000     3.8700000000
  211      H       6.6080000000    -2.9820000000     4.9250000000
  212      C       7.8010000000    -6.1500000000     4.1470000000
  213      H       8.3280000000    -6.9490000000     4.6830000000
  214      H       6.8270000000    -6.5420000000     3.8240000000
  215      H       8.3850000000    -5.9100000000     3.2490000000
  216      C       8.8850000000    -3.1000000000     6.2550000000
  217      O       8.3650000000    -3.1110000000     7.3680000000
  218      N       9.3260000000    -1.9810000000     5.6350000000
  219      H       9.6700000000    -2.0430000000     4.6790000000
  220      C       9.2450000000    -0.6520000000     6.2180000000
  221      H       8.9790000000    -0.7800000000     7.2700000000
  222      C      10.5820000000     0.0930000000     6.0690000000
  223      H      10.7970000000     0.2010000000     5.0000000000
  224      H      10.4390000000     1.1060000000     6.4700000000
  225      C      11.7890000000    -0.5710000000     6.7320000000
  226      H      11.6990000000    -0.5410000000     7.8230000000
  227      H      11.8360000000    -1.6190000000     6.4110000000
  228      C      13.0990000000     0.1420000000     6.2950000000
  229      O      13.3660000000     0.0250000000     5.0590000000
  230      O      13.7330000000     0.7750000000     7.1550000000
  231      C       8.1710000000     0.1180000000     5.4660000000
  232      O       8.3210000000     0.4040000000     4.2740000000
  233      N       7.0600000000     0.4300000000     6.1520000000
  234      H       6.9400000000     0.0710000000     7.0890000000
  235      C       5.8780000000     0.8970000000     5.4540000000
  236      H       6.2250000000     1.5420000000     4.6470000000
  237      C       5.1530000000    -0.3240000000     4.8630000000
  238      H       5.8500000000    -0.8380000000     4.1910000000
  239      H       4.9240000000    -1.0210000000     5.6770000000
  240      C       3.8590000000    -0.0620000000     4.0840000000
  241      O       3.4780000000     1.1190000000     3.9380000000
  242      O       3.2820000000    -1.1000000000     3.6400000000
  243      C       4.9820000000     1.6570000000     6.4350000000
  244      O       4.3170000000     1.0310000000     7.2650000000
  245      N       4.9760000000     3.0000000000     6.3670000000
  246      C       4.2090000000     3.7820000000     7.3370000000
  247      H       4.3770000000     3.3880000000     8.3420000000
  248      H       3.1400000000     3.6970000000     7.1090000000
  249      C       4.7200000000     5.2130000000     7.1500000000
  250      H       5.5490000000     5.4000000000     7.8380000000
  251      H       3.9380000000     5.9560000000     7.3270000000
  252      C       5.2250000000     5.2370000000     5.7050000000
  253      H       5.9540000000     6.0280000000     5.5110000000
  254      H       4.4000000000     5.3800000000     5.0030000000
  255      C       5.8250000000     3.8320000000     5.5170000000
  256      H       5.7490000000     3.5290000000     4.4700000000
  257      C       7.2850000000     3.8020000000     5.9900000000
  258      O       7.5870000000     3.6450000000     7.1680000000
  259      N       8.1540000000     4.0240000000     4.9860000000
  260      H       7.7880000000     4.0760000000     4.0420000000
  261      C       9.5740000000     4.1910000000     5.1600000000
  262      H       9.8290000000     3.8550000000     6.1690000000
  263      C      10.3760000000     3.4070000000     4.1150000000
  264      H      10.1770000000     2.3380000000     4.2450000000
  265      H      10.0240000000     3.6810000000     3.1100000000
  266      C      11.8460000000     3.7190000000     4.2460000000
  267      C      12.5940000000     3.1980000000     5.3030000000
  268      H      12.1480000000     2.5080000000     6.0110000000
  269      C      13.9310000000     3.5380000000     5.4720000000
  270      H      14.4790000000     3.0560000000     6.2760000000
  271      C      14.5400000000     4.4190000000     4.5800000000
  272      H      15.5870000000     4.6880000000     4.7060000000
  273      C      13.8090000000     4.9390000000     3.5140000000
  274      H      14.2770000000     5.6000000000     2.7900000000
  275      C      12.4710000000     4.5900000000     3.3530000000
  276      H      11.9010000000     5.0040000000     2.5260000000
  277      H       9.8430000000     5.2550000000     5.0940000000
  278      H       0.5720000000    -7.5300000000     8.8450000000
  279      C       0.5220000000    -6.4930000000     8.4860000000
  280      H       0.1300000000    -5.8760000000     9.3000000000
  281      C       1.9350000000    -6.0170000000     8.0920000000
  282      H       2.6030000000    -6.2770000000     8.9200000000
  283      H       2.3030000000    -6.5800000000     7.2240000000
  284      C       2.0360000000    -4.5340000000     7.8160000000
  285      C       1.9740000000    -3.6240000000     8.8770000000
  286      H       1.8000000000    -3.9900000000     9.8880000000
  287      C       2.1810000000    -2.2650000000     8.6580000000
  288      H       2.1750000000    -1.5740000000     9.4960000000
  289      C       2.4580000000    -1.7940000000     7.3730000000
  290      H       2.7060000000    -0.7470000000     7.2120000000
  291      C       2.4870000000    -2.6890000000     6.3060000000
  292      H       2.7270000000    -2.3210000000     5.3110000000
  293      C       2.2660000000    -4.0480000000     6.5280000000
  294      H       2.3190000000    -4.7430000000     5.6910000000
  295      C      -0.4820000000    -6.4450000000     7.3660000000
  296      O      -1.5100000000    -5.7580000000     7.4220000000
  297      N      -0.2690000000    -7.2630000000     6.3080000000
  298      H       0.6590000000    -7.6480000000     6.1840000000
  299      C      -1.1190000000    -7.1840000000     5.1310000000
  300      H      -1.1570000000    -6.1480000000     4.7650000000
  301      C      -0.5660000000    -8.0880000000     4.0120000000
  302      H      -0.3720000000    -9.0910000000     4.4150000000
  303      H      -1.3530000000    -8.1930000000     3.2610000000
  304      C       0.6670000000    -7.5150000000     3.3520000000
  305      C       1.9440000000    -8.0330000000     3.5560000000
  306      H       2.0830000000    -8.8960000000     4.2060000000
  307      C       3.0610000000    -7.4890000000     2.9180000000
  308      H       4.0510000000    -7.9080000000     3.0790000000
  309      C       2.8850000000    -6.4180000000     2.0490000000
  310      O       3.8970000000    -5.8140000000     1.3730000000
  311      H       4.7470000000    -6.2840000000     1.3750000000
  312      C       1.6120000000    -5.8850000000     1.8320000000
  313      H       1.4960000000    -5.0610000000     1.1360000000
  314      C       0.5200000000    -6.4240000000     2.4870000000
  315      H      -0.4600000000    -5.9830000000     2.3340000000
  316      C      -2.5620000000    -7.5400000000     5.4380000000
  317      O      -3.4670000000    -7.0820000000     4.7490000000
  318      N      -2.8050000000    -8.4110000000     6.4520000000
  319      H      -2.0320000000    -8.7230000000     7.0220000000
  320      C      -4.1700000000    -8.7300000000     6.7960000000
  321      H      -4.7150000000    -8.5560000000     5.8590000000
  322      C      -4.3820000000   -10.2060000000     7.1890000000
  323      H      -3.4210000000   -10.6630000000     7.4470000000
  324      H      -5.0120000000   -10.2640000000     8.0830000000
  325      C      -5.0320000000   -11.0010000000     6.0410000000
  326      H      -4.5160000000   -10.7380000000     5.1100000000
  327      H      -4.8890000000   -12.0770000000     6.1850000000
  328      C      -6.5340000000   -10.6870000000     5.9300000000
  329      H      -7.0900000000   -11.4150000000     6.5320000000
  330      H      -6.7360000000    -9.6900000000     6.3440000000
  331      N      -7.0040000000   -10.7300000000     4.5360000000
  332      H      -6.3100000000   -10.8190000000     3.8040000000
  333      C      -8.2290000000   -10.3590000000     4.1470000000
  334      N      -9.2840000000   -10.4600000000     4.9610000000
  335      H      -9.1640000000   -10.9000000000     5.8610000000
  336      H      -9.9890000000    -9.7050000000     4.9020000000
  337      N      -8.4140000000    -9.8790000000     2.9050000000
  338      H      -7.7280000000    -9.2240000000     2.5390000000
  339      H      -9.3610000000    -9.6070000000     2.6730000000
  340      C      -4.8930000000    -7.7250000000     7.7050000000
  341      O      -6.1050000000    -7.8560000000     7.8580000000
  342      N      -4.1560000000    -6.7170000000     8.2010000000
  343      H      -3.1810000000    -6.6600000000     7.9250000000
  344      C      -4.7580000000    -5.4870000000     8.7080000000
  345      H      -5.6860000000    -5.7450000000     9.2170000000
  346      C      -3.8090000000    -4.7280000000     9.6560000000
  347      H      -3.0950000000    -4.1430000000     9.0690000000
  348      H      -4.4300000000    -4.0140000000    10.2050000000
  349      C      -3.0580000000    -5.6360000000    10.6310000000
  350      H      -3.7510000000    -6.1670000000    11.2870000000
  351      H      -2.4900000000    -6.3890000000    10.0700000000
  352      C      -2.0640000000    -4.9130000000    11.5370000000
  353      O      -2.0570000000    -5.0970000000    12.7430000000
  354      N      -1.1390000000    -4.1280000000    10.9100000000
  355      H      -0.5430000000    -3.5940000000    11.5260000000
  356      H      -1.2310000000    -3.7800000000     9.9530000000
  357      C      -5.0980000000    -4.6000000000     7.4990000000
[...]
    3   0.0056328   0.0024435  -0.0005241   0.0162273  -0.0008501  -0.0038098
          571         572         573         574         575         576
    1   0.0247410   0.0058572   0.0605323  -0.0833980   0.0035824   0.0098989
    2  -0.0164692   0.0205046  -0.0693839   0.0741470  -0.0002177  -0.1025123
    3  -0.0186160   0.0045717  -0.0358576  -0.0108181  -0.0102175   0.0127952
          577         578         579         580         581         582
    1   0.0049364  -0.0094056  -0.0030613  -0.0182576   0.0042430  -0.0121991
    2   0.0053108   0.0441689  -0.0109508  -0.0292335  -0.0049588  -0.0178105
    3  -0.0002680  -0.0085293   0.0153490  -0.0107695   0.0003047   0.0275200
          583         584         585         586         587         588
    1   0.0154865  -0.0068076  -0.0101305   0.0130882   0.0326120   0.0001575
    2  -0.0256980  -0.0013367   0.0315283  -0.0117126  -0.0347017   0.0138351
    3  -0.0181732   0.0077571   0.0056745   0.0252345  -0.0089707  -0.0049517
          589         590         591         592         593         594
    1   0.0081497   0.0242059  -0.0302353   0.0031404  -0.0413219   0.0129752
    2   0.0206198   0.0059076   0.0088606  -0.0001174   0.0773502   0.0003832
    3   0.0260736  -0.0228434  -0.0130663  -0.0096546  -0.0680449   0.0032740
          595         596         597         598         599         600
    1   0.0171826  -0.0168219  -0.0097340  -0.0003485   0.0100675   0.0015566
    2  -0.0339768   0.0078088   0.0205047  -0.0015191  -0.0204217  -0.0006304
    3   0.0268850   0.0022689  -0.0287834   0.0002851   0.0253182  -0.0003820
          601         602         603         604         605         606
    1  -0.0114753  -0.0265623   0.0083454   0.0017962   0.0227837  -0.0269633
    2   0.0224433  -0.0175385   0.0165215   0.0006218  -0.0218962  -0.0179601
    3  -0.0220992   0.0087916   0.0270380   0.0000016  -0.0107073   0.0065987
          607         608         609         610         611         612
    1  -0.0066126  -0.0013009   0.0234345  -0.0172379   0.0036866   0.0075003
    2   0.0184016  -0.0097155  -0.0450858   0.0014093   0.0152267   0.0093475
    3  -0.0275495  -0.0046266   0.0918883   0.0060234  -0.0424904   0.0174276
          613         614         615         616         617         618
    1  -0.0127283   0.0013303   0.0120288   0.0149202   0.0030916  -0.0084817
    2  -0.0107831  -0.0022314  -0.0315982   0.0169090   0.0042664  -0.0145745
    3   0.0309131  -0.0020746  -0.0034212  -0.0257692   0.0031225  -0.0145979
          619         620         621         622         623         624
    1   0.0136511  -0.0071183   0.0268390  -0.0090878  -0.0046363   0.0155912
    2   0.0253605   0.0004409   0.0328571  -0.0194474  -0.0086201   0.0206649
    3  -0.0264385  -0.0006931   0.0186714   0.0064889  -0.0006754   0.0257225
          625         626         627         628         629         630
    1   0.0007024  -0.0001116   0.0034284  -0.0153845   0.0014159  -0.0150736
    2   0.0022909  -0.0093703   0.0065594  -0.0316212   0.0008569  -0.0237390
    3  -0.0081560   0.0353755  -0.0045532   0.0111249   0.0068462  -0.0254710
          631         632         633         634         635         636
    1   0.0002273  -0.0114823  -0.0273188  -0.0032916  -0.0105714  -0.0006553
    2  -0.0019064   0.0330650  -0.0224053  -0.0039987   0.0282140   0.0126831
    3   0.0010165  -0.0009835   0.0000838  -0.0020002  -0.0162629  -0.0052118
          637         638         639         640         641         642
    1   0.0310359  -0.0203693  -0.0167234   0.0418592  -0.0064189  -0.0259901
    2   0.0157648   0.0190621  -0.0398920   0.0147852  -0.0054580  -0.0979851
    3   0.0002471   0.0194733  -0.0062252   0.0320458   0.0060760  -0.0346122
          643         644         645         646         647         648
    1  -0.0069702   0.0152352   0.0130297  -0.0051909   0.0019226   0.0046631
    2   0.0039784   0.0364293  -0.0138557  -0.0371964  -0.0004448   0.0335164
    3  -0.0118827   0.0212115  -0.0077698  -0.0004759   0.0013986   0.0016231
          649         650         651         652         653         654
    1   0.0290255  -0.0283182  -0.0066918   0.0055130   0.0011161  -0.0080965
    2  -0.0118271  -0.0090161   0.0036585   0.0912392  -0.0027593  -0.0398606
    3  -0.0134996  -0.0158418   0.0006098   0.0589902  -0.0049759  -0.0189109
          655         656         657         658         659         660
    1   0.0177880   0.0030335   0.0043342  -0.0234191  -0.0031700   0.0036878
    2   0.0079641   0.0357428  -0.0040098   0.0064953  -0.0345527  -0.0004205
    3   0.0135849   0.0088316   0.0044418   0.0242549  -0.0054771   0.0020851
          661         662         663         664         665         666
    1   0.0273451   0.0029096  -0.0167950   0.0303900  -0.0054994   0.0034739
    2  -0.0012690  -0.0017002   0.0001773   0.0065310   0.0269980  -0.0001997
    3  -0.0215330   0.0005011   0.0284061   0.0136575  -0.0173045   0.0017497
          667         668         669         670         671         672
    1   0.0004872   0.0305949  -0.0204802  -0.0077302  -0.0030516  -0.0006421
    2  -0.0327571  -0.0026784  -0.0050634  -0.0021764  -0.0899872   0.0033409
    3  -0.0136013   0.0191115   0.0293979   0.0063463  -0.0454809   0.0023383
          673         674         675         676         677         678
    1  -0.0029111   0.0093188  -0.0156193  -0.0026698   0.0050274   0.0262634
    2   0.0397545  -0.0086891  -0.0241825   0.0037218   0.0306372  -0.0037260
    3   0.0220871  -0.0175070  -0.0231694   0.0005931   0.0169456  -0.0214746
          679         680         681         682         683         684
    1   0.0022789  -0.0251020  -0.0151719  -0.0069628   0.0354053   0.0001115
    2   0.0009384  -0.0826533   0.0965543   0.0064680   0.0479228   0.0025556
    3   0.0038162  -0.0324157   0.0006606   0.0027183   0.0900925  -0.0062920
          685         686         687         688         689         690
    1  -0.0148653   0.0109179   0.0118697  -0.0030302  -0.0118927   0.0005233
    2  -0.0189711  -0.0059560   0.0247503  -0.0017425  -0.0216136   0.0012991
    3  -0.0378655   0.0165046   0.0259676   0.0020411  -0.0228775   0.0027679
          691         692         693         694         695         696
    1   0.0144365  -0.0136335   0.0242972   0.0005272  -0.0264004  -0.0132850
    2   0.0216744  -0.0238311  -0.0158183   0.0018304   0.0132966  -0.0265912
    3   0.0229980   0.0276830  -0.0122214   0.0031485  -0.0159937   0.0207603
          697         698         699         700         701         702
    1   0.0067996  -0.0126170  -0.0315161  -0.0022705   0.0082241   0.0112005
    2   0.0210085   0.0004460  -0.0336453   0.0118250   0.0191827  -0.0030975
    3   0.0279686   0.0003213  -0.0994812   0.0011183   0.0429065  -0.0124201
          703         704         705         706         707         708
    1  -0.0199336   0.0010581   0.0124564  -0.0000967  -0.0079663   0.0260003
    2  -0.0090517   0.0050513   0.0144939   0.0009089  -0.0155280   0.0192923
    3  -0.0299511   0.0002395   0.0294678   0.0013303  -0.0281094  -0.0086326
          709         710         711         712         713         714
    1   0.0159905  -0.0018331  -0.0135560  -0.0282653  -0.0005204   0.0258172
    2  -0.0222707   0.0001453  -0.0119586   0.0122378  -0.0004052  -0.0095726
    3   0.0190556   0.0016616  -0.0288096   0.0149209   0.0011607  -0.0171709
          715         716         717         718         719         720
    1  -0.0137555   0.0117088   0.0000650   0.0363070  -0.0207813  -0.0014437
    2   0.0251703   0.0141099   0.0150099   0.0251147  -0.0023933  -0.0047395
    3  -0.0161162   0.0282964  -0.0005244   0.0948266   0.0086949  -0.0453682
          721         722         723         724         725         726
    1   0.0131371   0.0055362   0.0056231  -0.0000595   0.0237272   0.0172423
    2  -0.0042611   0.0157023   0.0018681  -0.0151629  -0.0195980   0.0240800
    3   0.0193416   0.0357746  -0.0014865  -0.0325580   0.0202429  -0.0000402
          727         728         729         730         731         732
    1  -0.0370802   0.0536262   0.0050142  -0.0092660   0.0102148  -0.0011800
    2   0.0982937  -0.0854062   0.0089716   0.0009987  -0.0041655   0.0100262
    3   0.0539009  -0.0367625   0.0145942  -0.0024111  -0.1080106   0.0068604
          733         734         735         736         737         738
    1  -0.0089434   0.0180506  -0.0009639   0.0018489  -0.0017785  -0.0004332
    2   0.0046545   0.0016066   0.0045232   0.0039172   0.0010090   0.0021363
    3   0.0450452  -0.0037153  -0.0363125   0.0042818   0.0352551   0.0020033
          739         740         741         742         743         744
    1   0.0081598   0.0227185   0.0073708  -0.0004874  -0.0295303   0.0201817
    2   0.0003411   0.0195860  -0.0289885   0.0017565   0.0143671   0.0221643
    3  -0.0325378   0.0151528   0.0143209   0.0022658   0.0091826   0.0151044
          745         746         747         748         749         750
    1   0.0034162  -0.0018569  -0.0144511  -0.0008896   0.0038207   0.0036472
    2   0.0051122   0.0129971  -0.0186881   0.0012273   0.0104158  -0.0175940
    3  -0.0332820   0.0043902   0.1032433   0.0055755  -0.0440715   0.0091032
          751         752         753         754         755         756
    1   0.0006067   0.0025792  -0.0033891   0.0110760   0.0094173   0.0015937
    2   0.0023700   0.0002016   0.0029289  -0.0319159   0.0088557  -0.0059858
    3   0.0364963  -0.0021815  -0.0347618   0.0047549   0.0075166   0.0346475
          757         758         759         760         761         762
    1  -0.0102593   0.0106519  -0.0090435  -0.0105190  -0.0259787   0.0079152
    2   0.0322360  -0.0276523   0.0019043   0.0302932  -0.0210500  -0.0072238
    3  -0.0033274  -0.0332663   0.0081474  -0.0034047  -0.0124361   0.0345763
          763         764         765         766         767         768
    1   0.0329459  -0.0004453  -0.0036054   0.0204847  -0.0019644  -0.0198725
    2  -0.0088114  -0.0313869   0.0021547   0.0152841  -0.0005363  -0.0170223
    3  -0.0073638  -0.0086742   0.0000610  -0.0208350  -0.0004634   0.0216784
          769         770         771         772         773         774
    1  -0.0000601   0.0183801  -0.0292605   0.0122161   0.0026249   0.0133578
    2  -0.0023560   0.0197805   0.0138961   0.0023536   0.0013519   0.0229676
    3  -0.0011324  -0.0194989   0.0010253   0.0311801   0.0020530  -0.0199758
          775         776         777         778         779         780
    1   0.0073160   0.0018356  -0.0062249  -0.0112633  -0.0159559   0.0150219
    2  -0.0293486   0.0002426   0.0294352   0.0000851  -0.0226449   0.0018638
    3  -0.0136267   0.0019331   0.0129348  -0.0304214   0.0192029   0.0293218
          781         782         783         784         785         786
    1   0.0179473   0.0021478   0.0198510  -0.0013277   0.0034294  -0.0156367
    2  -0.0223211   0.0010049   0.0074020   0.0001693  -0.0299150  -0.0050756
    3   0.0203624  -0.0004559  -0.0279451   0.0035515  -0.0135550   0.0306446
          787         788         789         790         791         792
    1   0.0066986   0.0228524  -0.0208546   0.0135825  -0.0109447   0.0077068
    2  -0.0072788   0.0188983  -0.0154412   0.0455250  -0.0058506  -0.0278846
    3  -0.0037130  -0.0188540  -0.0181410   0.0141675   0.0063411   0.0200314
          793         794         795         796         797         798
    1  -0.0218572  -0.0162042  -0.0031738  -0.0204718   0.0041293   0.0127591
    2   0.0195942  -0.0062728  -0.0075659  -0.0120171  -0.0010556  -0.0002385
    3   0.0274572  -0.0213705   0.0032116   0.1019280  -0.0009076  -0.0427513
          799         800         801         802         803         804
    1   0.0001106  -0.0101180   0.0022800   0.0074653  -0.0038465  -0.0008424
    2   0.0154757  -0.0052340   0.0028917   0.0096187   0.0313062  -0.0031830
    3   0.0144853   0.0365679  -0.0010770  -0.0311729   0.0152262   0.0086569
          805         806         807         808         809         810
    1  -0.0015258   0.0082907  -0.0087598   0.0152640   0.0040980   0.0247852
    2  -0.0108312  -0.0282204  -0.0026460   0.0394920  -0.0169360   0.0371296
    3   0.0362130  -0.0175561  -0.0009091  -0.0896174   0.0093688   0.0030746
          811         812         813         814         815         816
    1  -0.0150726   0.0086499   0.0000856   0.0037426  -0.0018790  -0.0169886
    2  -0.0192806  -0.0069332   0.0023595   0.0037124  -0.0081089   0.0054489
    3   0.0383157   0.0030228  -0.0978973   0.0085499   0.0454344  -0.0117909
          817         818         819         820         821         822
    1   0.0032043  -0.0049341  -0.0119258  -0.0318027  -0.0044244  -0.0030845
    2  -0.0062873  -0.0010741   0.0041127   0.0124517  -0.0308278  -0.0094765
    3  -0.0347089   0.0046739   0.0351520  -0.0146501  -0.0053513   0.0047127
          823         824         825         826         827         828
    1  -0.0190131   0.0012194   0.0001148   0.0048829   0.0130784   0.0004306
    2   0.0327239  -0.0046820  -0.0153648   0.0173022   0.0037669   0.0000245
    3   0.0972965  -0.0032864  -0.0405652   0.0039835   0.0345853  -0.0028475
          829         830         831         832         833         834
    1  -0.0111575  -0.0005895   0.0067702   0.0044469  -0.0259558  -0.0022695
    2  -0.0075721   0.0343743  -0.0024324   0.0049427  -0.0261233   0.0041255
    3  -0.0305731  -0.0017703   0.0020961   0.0016589  -0.0092943  -0.0001165
          835         836         837         838         839         840
    1   0.0103051  -0.0260948   0.0913591   0.0062922  -0.0058084   0.0264348
    2  -0.0357822   0.0077028   0.0575676  -0.0475774  -0.0051149   0.0235787
    3  -0.0007433  -0.0021803  -0.0005677   0.0126633   0.0009243   0.0102654
          841         842         843         844         845         846
    1   0.0013605  -0.0087140   0.0058393  -0.0460064   0.0056071   0.0123892
    2  -0.0091842   0.0349411  -0.0069196   0.0047164   0.0067579  -0.0081047
    3  -0.0005276   0.0049063  -0.0034400  -0.0937075  -0.0005584   0.0453077
          847         848         849         850         851         852
    1  -0.0188313   0.0022056  -0.0019801  -0.0290699   0.0045741   0.0007170
    2   0.0085650   0.0244435  -0.0007543   0.0187590  -0.0108167  -0.0069981
    3  -0.0012566  -0.0261642  -0.0037162  -0.0028541  -0.0315657   0.0030716
          853         854         855         856         857         858
    1  -0.0048588   0.0252265  -0.0003605   0.0046492  -0.0145955  -0.0054293
    2   0.0154970  -0.0143336  -0.0114646  -0.0490325   0.0094730   0.0036432
    3  -0.0085255  -0.0220138   0.0019104   0.0112320   0.0058311  -0.0028211
          859         860         861         862         863         864
    1   0.0033072   0.0049204  -0.0194534   0.0060288  -0.0218251  -0.0026414
    2  -0.0365039  -0.0010384  -0.0092893  -0.0061085   0.0241266  -0.0057048
    3   0.0112883  -0.0101516   0.0276538  -0.0063007   0.0135537   0.0043568
          865         866         867         868         869         870
    1  -0.0030853  -0.0021819   0.0042752   0.0460792  -0.0128131  -0.0049415
    2   0.0344676  -0.0020615  -0.0068250  -0.0406908  -0.0073209   0.0261046
    3  -0.0146710   0.0000166   0.0002221   0.0917125  -0.0054232  -0.0353858
          871         872         873         874         875         876
    1   0.0026328   0.0003670   0.0012217  -0.0050812   0.0310177   0.0392092
    2   0.0111760  -0.0269268  -0.0107247   0.0188192  -0.0154124  -0.0011534
    3   0.0169413   0.0246299   0.0152214   0.0315501   0.0008318  -0.1015385
          877         878         879         880         881         882
    1  -0.0161504   0.0056284  -0.0627186   0.0021047   0.0272291  -0.0135484
    2   0.0438801  -0.0045135  -0.0305444  -0.0091767   0.0175093   0.0093541
    3   0.0166914  -0.0052057  -0.0788255   0.0131590   0.0317965  -0.0025409
          883         884         885         886         887         888
    1  -0.0245734   0.0043627  -0.0309053   0.0087687   0.0082007   0.0013296
    2  -0.0243078   0.0009266   0.0118807  -0.0113615  -0.0023554   0.0153256
    3  -0.0005328   0.0030055  -0.0002316   0.0305986  -0.0033447  -0.0302532
          889         890         891         892         893         894
    1  -0.0023760   0.0003608   0.0233973   0.0535667   0.0044386   0.0115752
    2   0.0222565  -0.0034513  -0.0549385   0.0368087   0.0108361   0.0239199
    3   0.0239795  -0.0024065   0.0780025  -0.0735512  -0.0323818   0.0228641
          895         896         897         898         899         900
    1   0.0033275   0.0095794  -0.0001806  -0.0030113  -0.0121493  -0.0057671
    2   0.0004462   0.0110220  -0.0084018  -0.0083570  -0.0305602  -0.0010241
    3  -0.0004410  -0.0315146   0.0076000   0.0361625  -0.0159180   0.0107807
          901         902         903         904         905         906
    1   0.0704054  -0.0147738   0.0431387  -0.0194464   0.0112202  -0.0357855
    2   0.0375186   0.0304006  -0.0011039  -0.0372639  -0.0056461  -0.0687824
    3   0.0756170  -0.0199225  -0.0025418  -0.0149259  -0.0028161  -0.0705611
          907         908         909         910         911         912
    1  -0.0058792   0.0210542  -0.0165934  -0.0072815   0.0013250   0.0279822
    2   0.0086128   0.0237168  -0.0127309  -0.0271571  -0.0040162  -0.0202268
    3  -0.0131221   0.0313301   0.0020263  -0.0234022   0.0008967   0.0068173
          913         914         915         916         917         918
    1   0.0080565   0.0018533  -0.0248382   0.0037513   0.0254741  -0.0257680
    2   0.0256190  -0.0008946   0.0198143   0.0018954  -0.0215545  -0.0141936
    3   0.0208406  -0.0004277  -0.0107817  -0.0028300   0.0087158   0.0119648
          919         920         921         922         923         924
    1   0.0005234   0.0024723   0.0040401  -0.0255565   0.0263291  -0.0237699
    2  -0.0007030  -0.0010354   0.0293239  -0.0156318  -0.0175298   0.0227420
    3  -0.0351546  -0.0036499   0.0132759   0.0123354   0.0119926  -0.0095657
          925         926         927         928         929         930
    1  -0.0974610   0.0335858   0.0229705  -0.0333042  -0.0211407   0.0472685
    2   0.0106599  -0.0325969   0.0438809  -0.0548134   0.0183737   0.0230244
    3  -0.0123844  -0.0059192   0.0055023   0.0813548  -0.0430876  -0.0050657
          931         932         933         934         935         936
    1  -0.0959699   0.0115162   0.0387669  -0.0306483   0.0061851   0.0076867
    2   0.0183839  -0.0425372   0.0345751  -0.0935970  -0.0042779   0.0457744
    3   0.0458267  -0.0247702  -0.0038935   0.0651065  -0.0497693   0.0184829
          937         938         939         940         941         942
    1  -0.0484376  -0.0173477   0.0456549  -0.0965934   0.0283332   0.0296838
    2  -0.0832713   0.0458922  -0.0027480  -0.0269033  -0.0021406   0.0259214
    3   0.0529124  -0.0054376  -0.0200299  -0.0107835   0.0403701  -0.0334320
          943         944         945         946         947         948
    1  -0.0310710   0.0138827   0.0067332   0.0865577  -0.0300608  -0.0099601
    2  -0.0387406   0.0445858  -0.0233314  -0.0100354  -0.0385061   0.0442899
    3  -0.0877128   0.0124327   0.0432346  -0.0670856   0.0157366   0.0203737
  --- DONE ESP SUMMARY ---
 Total job time:  155.17s(wall), 288.81s(cpu) 
 Mon May  4 16:26:45 2026

        *************************************************************
        *                                                           *
        *  Thank you very much for using Q-Chem.  Have a nice day.  *
        *                                                           *
        *************************************************************


