
Running Job 1 of 2 19nt_xstal_distance_cutoff6_xtb_optimized_spade_wb97x-v_631gd.in
qchem 19nt_xstal_distance_cutoff6_xtb_optimized_spade_wb97x-v_631gd.in_2192062.0 ./qchem2192062/ 1
srun -n 1 /cm/shared/apps/spack/0.17.3/cpu/b/opt/spack/linux-rocky8-zen2/gcc-10.2.0/qchem-6.0-rytxnwjazd34ekd2gqyi5ufsaimxsd3r/exe/qcprog.exe 19nt_xstal_distance_cutoff6_xtb_optimized_spade_wb97x-v_631gd.in_2192062.0 ./qchem2192062/

                  Welcome to Q-Chem
     A Quantum Leap Into The Future Of Chemistry


 Q-Chem 6.0, Q-Chem, Inc., Pleasanton, CA (2022)

 License issued to: University of California, San Diego (site)

 E. Epifanovsky,  A. T. B. Gilbert,  Xintian Feng,  Joonho Lee,  Yuezhi Mao,  
 N. Mardirossian,  P. Pokhilko,  A. White,  M. Wormit,  M. P. Coons,  
 A. L. Dempwolff,  Zhengting Gan,  D. Hait,  P. R. Horn,  L. D. Jacobson,  
 I. Kaliman,  J. Kussmann,  A. W. Lange,  Ka Un Lao,  D. S. Levine,  Jie Liu,  
 S. C. McKenzie,  A. F. Morrison,  K. Nanda,  F. Plasser,  D. R. Rehn,  
 M. L. Vidal,  Zhi-Qiang You,  Ying Zhu,  B. Alam,  B. Albrecht,  
 A. Aldossary,  E. Alguire,  J. H. Andersen,  V. Athavale,  D. Barton,  
 K. Begam,  A. Behn,  N. Bellonzi,  Y. A. Bernard,  E. J. Berquist,  
 H. Burton,  A. Carreras,  K. Carter-Fenk,  Romit Chakraborty,  
 Chandrima Chakravarty,  Junhan Chen,  A. D. Chien,  K. D. Closser,  
 V. Cofer-Shabica,  L. Cunha,  S. Dasgupta,  Jia Deng,  M. de Wergifosse,  
 M. Diedenhofen,  Hainam Do,  S. Ehlert,  Po-Tung Fang,  S. Fatehi,  
 Qingguo Feng,  T. Friedhoff,  B. Ganoe,  J. Gayvert,  Qinghui Ge,  
 G. Gidofalvi,  M. Goldey,  J. Gomes,  C. Gonzalez-Espinoza,  S. Gulania,  
 A. Gunina,  J. A. Gyamfi,  M. W. D. Hanson-Heine,  P. H. P. Harbach,  
 A. W. Hauser,  M. F. Herbst,  M. Hernandez Vera,  M. Hodecker,  
 Z. C. Holden,  S. Houck,  Xunkun Huang,  Kerwin Hui,  B. C. Huynh,  
 K. Ikeda,  M. Ivanov,  Hyunjun Ji,  Zuxin Jin,  Hanjie Jiang,  B. Kaduk,  
 S. Kaehler,  R. Kang,  K. Khistyaev,  Jaehoon Kim,  Yongbin Kim,  
 P. Klunzinger,  Z. Koczor-Benda,  Joong Hoon Koh,  D. Kosenkov,  
 Saikiran Kotaru,  L. Koulias,  T. Kowalczyk,  C. M. Krauter,  K. Kue,  
 A. Kunitsa,  T. Kus,  A. Landau,  K. V. Lawler,  D. Lefrancois,  S. Lehtola,  
 Rain Li,  Shaozhi Li,  Yi-Pei Li,  Jiashu Liang,  M. Liebenthal,  
 Hung-Hsuan Lin,  You-Sheng Lin,  Fenglai Liu,  Kuan-Yu Liu,  
 M. Loipersberger,  A. Luenser,  C. Malbon,  A. Manjanath,  P. Manohar,  
 E. Mansoor,  S. F. Manzer,  Shan-Ping Mao,  A. V. Marenich,  T. Markovich,  
 S. Mason,  F. Matz,  S. A. Maurer,  P. F. McLaughlin,  M. F. S. J. Menger,  
 J.-M. Mewes,  S. A. Mewes,  P. Morgante,  Mohammad Mostafanejad,  
 J. W. Mullinax,  K. J. Oosterbaan,  G. Paran,  V. Parravicini,  
 Alexander C. Paul,  Suranjan K. Paul,  F. Pavosevic,  Zheng Pei,  S. Prager,  
 E. I. Proynov,  E. Ramos,  B. Rana,  A. E. Rask,  A. Rettig,  R. M. Richard,  
 F. Rob,  E. Rossomme,  T. Scheele,  M. Scheurer,  M. Schneider,  
 P. E. Schneider,  N. Sergueev,  S. M. Sharada,  Hengyuan Shen,  
 W. Skomorowski,  D. W. Small,  C. J. Stein,  Yingli Su,  Yu-Chuan Su,  
 E. J. Sundstrom,  Zhen Tao,  J. Thirman,  Hung-Yi Tsai,  T. Tsuchimochi,  
 N. M. Tubman,  C. Utku,  S. P. Veccham,  O. Vydrov,  J. Wenzel,  
 Jonathan Wong,  J. Witte,  A. Yamada,  Chou-Hsun Yang,  Kun Yao,  
 S. Yeganeh,  S. R. Yost,  A. Zech,  F. Zeller,  Igor Ying Zhang,  
 Xing Zhang,  Yu Zhang,  D. Zuev,  A. Aspuru-Guzik,  A. T. Bell,  
 N. A. Besley,  K. B. Bravaya,  B. R. Brooks,  D. Casanova,  Jeng-Da Chai,  
 Hsing-Ta Chen,  S. Coriani,  C. J. Cramer,  A. E. DePrince, III,  
 R. A. DiStasio Jr.,  A. Dreuw,  B. D. Dunietz,  T. R. Furlani,  
 W. A. Goddard III,  S. Grimme,  S. Hammes-Schiffer,  T. Head-Gordon,  
 W. J. Hehre,  Chao-Ping Hsu,  T.-C. Jagau,  Yousung Jung,  A. Klamt,  
 Jing Kong,  D. S. Lambrecht,  Xiangyuan Li,  WanZhen Liang,  N. J. Mayhall,  
 C. W. McCurdy,  J. B. Neaton,  T. Neudecker,  C. Ochsenfeld,  
 J. A. Parkhill,  R. Peverati,  V. A. Rassolov,  Haisheng Ren,  Yihan Shao,  
 L. V. Slipchenko,  R. P. Steele,  J. E. Subotnik,  A. J. W. Thom,  
 A. Tkatchenko,  D. G. Truhlar,  T. Van Voorhis,  Fan Wang,  
 T. A. Wesolowski,  K. B. Whaley,  H. L. Woodcock III,  P. M. Zimmerman,  
 S. Faraji,  P. M. W. Gill,  M. Head-Gordon,  J. M. Herbert,  A. I. Krylov

 Contributors to earlier versions of Q-Chem not listed above: 
 R. D. Adamson,  B. Austin,  R. Baer,  J. Baker,  G. J. O. Beran,  
 K. Brandhorst,  S. T. Brown,  E. F. C. Byrd,  Arup K. Chakraborty,  
 G. K. L. Chan,  Chun-Min Chang,  Yunqing Chen,  C.-L. Cheng,  
 Siu Hung Chien,  D. M. Chipman,  D. L. Crittenden,  H. Dachsel,  
 R. J. Doerksen,  A. D. Dutoi,  R. G. Edgar,  J. Fosso-Tande,  
 L. Fusti-Molnar,  D. Ghosh,  A. Ghysels,  A. Golubeva-Zadorozhnaya,  
 J. Gonthier,  M. S. Gordon,  S. R. Gwaltney,  G. Hawkins,  J. E. Herr,  
 A. Heyden,  S. Hirata,  E. G. Hohenstein,  G. Kedziora,  F. J. Keil,  
 C. Kelley,  Jihan Kim,  R. A. King,  R. Z. Khaliullin,  P. P. Korambath,  
 W. Kurlancheek,  A. Laurent,  A. M. Lee,  M. S. Lee,  S. V. Levchenko,  
 Ching Yeh Lin,  D. Liotard,  E. Livshits,  R. C. Lochan,  I. Lotan,  
 L. A. Martinez-Martinez,  P. E. Maslen,  N. Nair,  D. P. O'Neill,  
 D. Neuhauser,  E. Neuscamman,  C. M. Oana,  R. Olivares-Amaya,  R. Olson,  
 T. M. Perrine,  B. Peters,  P. A. Pieniazek,  A. Prociuk,  Y. M. Rhee,  
 J. Ritchie,  M. A. Rohrdanz,  E. Rosta,  N. J. Russ,  H. F. Schaefer III,  
 M. W. Schmidt,  N. E. Schultz,  S. Sharma,  N. Shenvi,  C. D. Sherrill,  
 A. C. Simmonett,  A. Sodt,  T. Stein,  D. Stuck,  K. S. Thanthiriwatte,  
 V. Vanovschi,  L. Vogt,  Tao Wang,  A. Warshel,  M. A. Watson,  
 C. F. Williams,  Q. Wu,  X. Xu,  Jun Yang,  W. Zhang,  Yan Zhao

   Please cite Q-Chem as follows:
  "Software for the frontiers of quantum chemistry:
   An overview of developments in the Q-Chem 5 package"
   J. Chem. Phys. 155, 084801 (2021)
   https://doi.org/10.1063/5.0055522 (open access)

 Q-Chem 6.0.2 for Intel X86 EM64T Linux

 Parts of Q-Chem use Armadillo 9.900.5 (Nocturnal Misbehaviour).
 http://arma.sourceforge.net/

 Q-Chem begins on Fri Aug  9 14:03:12 2024  

 Host: 
0

     Scratch files written to ./qchem2192062//
 Dec722 |scratch|qcdevops|jenkins|workspace|build_RNUM    
 Processing $rem in /cm/shared/apps/spack/0.17.3/cpu/b/opt/spack/linux-rocky8-zen2/gcc-10.2.0/qchem-6.0-rytxnwjazd34ekd2gqyi5ufsaimxsd3r/config/preferences:
 Processing $rem in /home/hklem/.qchemrc:
 No nuclear gradient supported for projection-based embedding or EMFT. Set max ideriv = 0.

 Checking the input file for inconsistencies... 	...done.

--------------------------------------------------------------
User input:
--------------------------------------------------------------
$molecule
-1 1
--
0 1
C    3.66100    2.11900    -8.61000
O    3.62200    1.11500    -7.89200
C    3.37600    3.44000    -8.14100
C    3.46800    4.54600    -8.91500
C    3.98000    4.48300    -10.32600
C    4.77800    3.19500    -10.54800
C    3.97100    1.99700    -10.07500
C    2.93200    5.83500    -8.43100
C    3.69100    7.06800    -8.90500
C    3.93900    6.99800    -10.40900
C    4.78100    5.74500    -10.70400
C    4.68300    8.23200    -10.90100
C    5.05400    8.17400    -12.38900
C    5.96000    6.96800    -12.61600
C    5.24900    5.69100    -12.16400
C    4.01400    9.60000    -10.77500
C    4.88200    10.49500   -11.67800
C    5.74800    9.54400    -12.53300
C    3.84800    8.11800    -13.33300
O    5.85200    10.03100   -13.85400
H    3.02000    3.52600    -7.12300
H    3.08600    4.44400    -10.96500
H    5.72000    3.24800    -9.99400
H    5.01600    3.06800    -11.60500
H    3.01000    1.98400    -10.59900
H    4.47600    1.05100    -10.26800
H    2.84100    5.83100    -7.34500
H    1.90500    5.87600    -8.83500
H    4.64800    7.13900    -8.38000
H    3.11400    7.96000    -8.66400
H    2.97100    6.91300    -10.91000
H    5.67300    5.78500    -10.06700
H    5.62700    8.28200    -10.34500
H    6.88600    7.09300    -12.05100
H    6.21900    6.87300    -13.67300
H    4.38700    5.51800    -12.81200
H    5.93900    4.85700    -12.29700
H    3.99500    9.96400    -9.75000
H    2.98700    9.55100    -11.13500
H    5.51900    11.14600   -11.08300
H    4.28500    11.12100   -12.33900
H    6.75400    9.46900    -12.09700
H    3.06500    7.47200    -12.95000
H    3.43100    9.10900    -13.48200
H    4.16900    7.73600    -14.30000
H    6.32800    9.37100    -14.37400
--
-1 1
H    6.82400    -6.48200   -9.29200
C    6.18600    -5.67200   -9.65200
H    5.77200    -5.95000   -10.62300
C    5.03800    -5.42400   -8.66000
H    4.39700    -6.31000   -8.63900
H    5.44500    -5.27900   -7.65700
C    4.24100    -4.21100   -9.05200
C    3.21700    -4.27400   -9.98400
H    2.97400    -5.22100   -10.44900
C    2.49500    -3.14200   -10.32700
H    1.70700    -3.20300   -11.06500
C    2.79400    -1.91600   -9.74200
O    2.09700    -0.78800   -10.00900
H    1.33100    -0.96600   -10.58000
C    3.84300    -1.83900   -8.82900
H    4.07100    -0.88100   -8.39400
C    4.54700    -2.97500   -8.49500
H    5.35100    -2.90900   -7.77900
C    7.01900    -4.41000   -9.87500
O    6.93100    -3.74800   -10.89000
N    7.86400    -4.09000   -8.87000
H    7.93300    -4.68800   -8.06200
C    8.81500    -2.99700   -8.96700
H    8.39300    -2.27500   -9.66800
C    9.13000    -2.33900   -7.62200
H    9.51400    -3.11600   -6.94700
C    10.23800   -1.30500   -7.82600
H    9.94400    -0.56800   -8.56800
H    10.44400   -0.79000   -6.89100
H    11.15400   -1.78400   -8.16700
C    7.90200    -1.71700   -6.94600
H    7.20900    -2.51800   -6.67800
H    8.22300    -1.25800   -6.00900
C    7.17400    -0.67400   -7.78300
H    6.76100    -1.11300   -8.68600
H    6.35800    -0.24700   -7.20800
H    7.84300    0.13600    -8.05700
H    9.75100    -3.37800   -9.40100
H    7.66500    -2.04800   -13.21400
C    7.98300    -1.04600   -13.49200
H    7.24400    -0.62400   -14.17100
C    8.11000    -0.17700   -12.24400
H    8.84500    -0.64100   -11.57500
C    8.59500    1.22900    -12.59200
H    7.93200    1.68900    -13.32100
H    8.61000    1.85700    -11.70400
H    9.60100    1.20700    -13.00500
C    6.76700    -0.12100   -11.52300
H    6.44600    -1.12400   -11.24700
H    6.84000    0.48400    -10.62200
H    6.01200    0.31600    -12.17300
H    8.93400    -1.11500   -14.01700
H    3.36200    -5.65800   -15.63600
C    2.47200    -5.46400   -15.04200
H    2.50100    -6.10700   -14.16400
C    2.40800    -3.99900   -14.62000
H    2.41100    -3.37400   -15.52100
C    1.10600    -3.74500   -13.86500
H    1.03600    -4.39900   -12.99800
H    1.05000    -2.71200   -13.53800
H    0.24800    -3.94200   -14.50600
C    3.64000    -3.64000   -13.78100
H    3.56900    -4.12400   -12.80600
H    4.52800    -4.03800   -14.27800
C    3.83600    -2.14300   -13.58100
H    3.00200    -1.70100   -13.04400
H    4.74000    -1.96900   -13.00500
H    3.93000    -1.63800   -14.54100
H    1.59900    -5.73300   -15.63500
H    -2.79900   -7.97600   -11.11600
C    -3.48900   -7.46900   -11.78700
H    -4.27700   -7.01700   -11.18800
C    -2.75700   -6.39700   -12.59600
H    -1.97900   -6.87000   -13.19900
H    -3.46200   -5.90800   -13.27100
C    -2.13900   -5.38300   -11.67700
C    -0.94300   -5.66200   -11.03000
H    -0.44300   -6.60200   -11.21800
C    -0.37700   -4.76000   -10.15100
H    0.55100    -4.99300   -9.64800
C    -1.00000   -3.54000   -9.91100
O    -0.46400   -2.60000   -9.08900
H    0.45300    -2.82500   -8.87500
C    -2.21300   -3.26000   -10.53400
H    -2.71200   -2.32900   -10.30700
C    -2.77200   -4.17700   -11.40400
H    -3.71400   -3.94800   -11.88100
H    -3.93700   -8.20800   -12.44800
H    -3.83700   6.11100    -7.51300
C    -2.78400   6.40100    -7.59200
H    -2.32800   6.34100    -6.60800
C    -2.05900   5.46600    -8.55800
H    -2.14800   4.42700    -8.22900
H    -2.48400   5.54800    -9.56100
C    -0.55600   5.82900    -8.63900
O    -0.11600   6.61700    -7.78700
O    0.11900    5.28500    -9.54100
C    -2.73000   7.81000    -8.15500
O    -2.92400   8.04600    -9.34000
N    -2.50700   8.81200    -7.28600
C    -2.45300   10.18900   -7.74800
H    -3.27000   10.37400   -8.44800
H    -1.50600   10.37000   -8.26900
C    -2.53500   11.01300   -6.46900
H    -3.57600   11.14900   -6.17100
H    -2.06800   11.99000   -6.57800
C    -1.80900   10.12100   -5.46500
H    -2.05500   10.35200   -4.43000
H    -0.73200   10.22000   -5.60400
C    -2.26100   8.71500    -5.86300
H    -1.49200   7.97300    -5.64100
H    -3.17900   8.43100    -5.33300
H    -3.17200   3.56200    -17.70500
C    -2.71900   4.21900    -16.95800
H    -2.97100   5.25100    -17.20600
C    -3.27400   3.87400    -15.56600
H    -4.36300   3.81100    -15.64600
H    -2.90400   2.89700    -15.24500
C    -2.92400   4.91000    -14.52900
C    -3.65900   6.08800    -14.45900
H    -4.45400   6.26100    -15.17100
C    -3.40100   7.02200    -13.47000
H    -3.99500   7.92200    -13.41300
C    -2.40400   6.79000    -12.53600
H    -2.24200   7.48700    -11.72800
C    -1.64300   5.63500    -12.62200
H    -0.86700   5.45400    -11.89500
C    -1.89800   4.70300    -13.61600
H    -1.30600   3.79900    -13.66800
C    -1.21200   4.05400    -17.04300
O    -0.45400   4.99000    -17.28700
N    -0.75100   2.80900    -16.89600
H    -1.37000   2.07000    -16.60500
C    0.67000    2.50400    -16.93300
H    1.16800    3.02100    -16.10400
C    0.89800    0.99900    -16.83000
H    0.30600    0.48400    -17.59000
H    1.95300    0.80300    -17.02900
C    0.55200    0.49000    -15.45700
C    -0.58200   -0.27300   -15.22600
H    -1.24000   -0.53000   -16.04600
C    -0.87900   -0.73900   -13.95600
H    -1.75700   -1.34900   -13.78700
C    -0.03300   -0.44000   -12.89900
O    -0.24900   -0.91800   -11.63700
H    -1.05600   -1.44900   -11.59900
C    1.09400    0.34900    -13.11300
H    1.73800    0.58800    -12.28300
C    1.37800    0.80300    -14.38300
H    2.25000    1.41600    -14.54200
H    1.07300    2.89300    -17.87400
H    0.57700    5.94200    -19.81400
C    0.84200    6.99900    -19.87800
H    1.08700    7.25000    -20.90900
C    -0.33500   7.85000    -19.37200
H    -0.26400   7.95400    -18.29000
H    -0.27700   8.84900    -19.80800
C    -1.67200   7.20000    -19.72900
H    -1.75500   7.07600    -20.80900
H    -1.72200   6.21700    -19.25600
C    -2.86900   8.01900    -19.26400
O    -3.68900   8.47400    -20.03800
N    -2.98100   8.14500    -17.92800
H    -3.71100   8.74600    -17.58100
H    -2.23400   7.89800    -17.28500
C    2.05600    7.26000    -18.99500
O    2.92000    8.07300    -19.27000
N    2.10200    6.51500    -17.86300
H    1.30300    5.93300    -17.63900
C    3.02300    6.82200    -16.78100
H    3.16000    7.90800    -16.72800
H    2.58200    6.48800    -15.84000
C    4.41300    6.20700    -16.89400
O    5.28800    6.53400    -16.09900
N    4.58700    5.30600    -17.85600
H    3.82800    5.15000    -18.50100
C    5.85200    4.66000    -18.12000
H    6.58400    5.11200    -17.45300
C    5.76700    3.14900    -17.88900
H    5.10400    2.71100    -18.64000
H    6.76300    2.72700    -18.03800
C    5.25600    2.75800    -16.49500
H    4.24700    3.16700    -16.36800
C    5.17500    1.23500    -16.39100
H    6.16700    0.79700    -16.47700
H    4.75400    0.93800    -15.43200
H    4.55100    0.82100    -17.18200
C    6.14400    3.31100    -15.38400
H    6.09400    4.39500    -15.34600
H    5.81600    2.92700    -14.42100
H    7.18000    3.01400    -15.53800
H    6.15000    4.87200    -19.15000
H    11.52800   6.20900    -16.60500
C    11.30200   6.10600    -15.54400
H    11.49700   7.04500    -15.02800
C    9.81800    5.72000    -15.37500
H    9.66500    4.74300    -15.84900
C    9.43000    5.61700    -13.90300
H    9.65600    6.54600    -13.38300
H    8.36300    5.42900    -13.81400
H    9.95700    4.80400    -13.40900
C    8.93700    6.74900    -16.08000
H    9.16200    6.80100    -17.14200
H    7.88800    6.48900    -15.96600
H    9.08600    7.73600    -15.65000
C    12.19900   5.02600    -14.97800
O    12.60400   4.10600    -15.70500
N    12.50400   5.09900    -13.67100
H    12.28600   5.95100    -13.16400
C    13.36000   4.08100    -13.07500
H    13.53700   3.44900    -13.93800
C    14.71900   4.59900    -12.62100
H    14.60300   5.56900    -12.14600
H    15.13200   3.93200    -11.86400
C    15.71200   4.75300    -13.78200
H    15.48200   5.66300    -14.33700
H    16.70600   4.87300    -13.34700
C    15.72600   3.60000    -14.80700
H    14.93800   3.74400    -15.54600
H    16.68300   3.60700    -15.33800
N    15.56700   2.29500    -14.18600
H    16.21900   2.11700    -13.43600
C    14.53000   1.46800    -14.29700
N    13.59400   1.60300    -15.22900
H    13.30800   2.54100    -15.57800
H    12.80600   0.97800    -15.14500
N    14.52100   0.35600    -13.53200
H    15.15300   0.31000    -12.74900
H    13.61600   -0.05700   -13.36300
C    12.67600   3.08600    -12.12700
O    12.33800   1.99700    -12.60400
N    12.55400   3.41900    -10.85700
H    13.07900   4.23800    -10.46900
C    12.05700   2.45900    -9.89900
H    11.42900   1.73900    -10.43200
C    13.20500   1.74700    -9.18800
H    13.87200   2.48300    -8.74500
H    12.81900   1.09900    -8.40500
H    13.77200   1.14300    -9.89400
H    11.45400   2.99300    -9.16100
H    5.40600    -1.84200   0.56500
C    6.33700    -1.40000   0.21700
H    7.11700    -1.62400   0.94000
C    6.71000    -1.95100   -1.15600
H    7.65400    -1.51400   -1.48700
H    6.84800    -3.03200   -1.09700
C    5.63500    -1.64300   -2.18400
H    4.68200    -2.09400   -1.90000
H    5.50800    -0.56500   -2.29900
S    6.08700    -2.30600   -3.82600
C    4.69100    -1.62300   -4.75600
H    4.76300    -0.54000   -4.76900
H    4.75100    -2.00600   -5.76800
H    3.76600    -1.95500   -4.29500
H    6.20700    -0.32100   0.17300
H    9.42000    2.78300    -2.33300
C    10.13100   2.66900    -3.14800
H    11.12500   2.53100    -2.72700
C    9.74500    1.47900    -4.03000
H    10.47300   1.37700    -4.83800
H    9.76600    0.56300    -3.43400
C    8.37100    1.69500    -4.59500
C    8.19200    2.19200    -5.87800
H    9.05700    2.37500    -6.50100
C    6.92200    2.45700    -6.36100
H    6.79200    2.84300    -7.36100
C    5.81700    2.23300    -5.56000
H    4.82500    2.44100    -5.92300
C    5.98700    1.74400    -4.27600
H    5.12200    1.60100    -3.64500
C    7.25500    1.47200    -3.79800
H    7.39000    1.09200    -2.79400
H    10.12600   3.58600    -3.73300
H    10.59400   6.48500    -7.73900
C    10.80600   6.41700    -8.80700
H    11.49200   5.59300    -8.99300
C    9.48900    6.21800    -9.58000
H    9.68900    6.39000    -10.64400
C    8.95900    4.79600    -9.41100
H    8.82300    4.56100    -8.35700
H    7.99800    4.69600    -9.91300
H    9.64400    4.07400    -9.84900
C    8.44600    7.22700    -9.11300
H    8.83200    8.23700    -9.21300
H    7.54300    7.14800    -9.71400
H    8.18600    7.05500    -8.07000
C    11.45100   7.72400    -9.26300
O    11.18700   8.81300    -8.77600
N    12.28500   7.55800    -10.31100
H    12.73600   6.63300    -10.35800
C    13.07400   8.64000    -10.87400
H    12.91500   9.52600    -10.24700
C    14.57000   8.27100    -10.92000
H    14.74600   7.65000    -11.80400
H    15.13700   9.19600    -11.05900
C    15.07800   7.53800    -9.66700
H    16.12500   7.79400    -9.49500
H    14.49500   7.84200    -8.79500
C    15.00600   5.98700    -9.79900
O    13.84100   5.49200    -9.84800
O    16.05300   5.35300    -9.87800
C    12.57500   8.89400    -12.29100
O    12.43800   7.99300    -13.10600
N    12.30600   10.17400   -12.56700
H    12.51900   10.90700   -11.90400
C    11.83300   10.63000   -13.85000
H    12.46400   10.17200   -14.62900
C    10.38500   10.19200   -14.12900
H    10.12800   10.43800   -15.16100
H    10.35200   9.10500    -14.03000
C    9.35100    10.79500   -13.18600
H    9.55200    11.84300   -12.97300
H    8.35600    10.71000   -13.62200
S    9.30500    9.89100    -11.58700
C    9.87800    11.17000   -10.44100
H    9.03800    11.79500   -10.15000
H    10.28600   10.64700   -9.58000
H    10.64400   11.76600   -10.92600
C    12.07100   12.14100   -13.92800
O    12.74400   12.71900   -13.08800
N    11.56600   12.73300   -15.01600
H    10.87200   12.27200   -15.59900
C    11.84500   14.11000   -15.34900
H    12.74100   14.39500   -14.78700
C    12.10700   14.23200   -16.86300
H    11.21600   13.86200   -17.38000
C    12.34100   15.68900   -17.25600
H    13.18900   16.10100   -16.71200
H    12.55500   15.75500   -18.32000
H    11.46400   16.29500   -17.04800
C    13.30400   13.37300   -17.25900
H    13.13600   12.33300   -16.99300
H    13.46800   13.43000   -18.33200
H    14.20400   13.71700   -16.75200
C    10.67500   15.01900   -14.95900
O    9.52700    14.77200   -15.28800
N    11.03700   16.12000   -14.28400
H    11.99300   16.21800   -13.98100
C    10.10300   17.13100   -13.84100
H    9.11700    16.79700   -14.17400
C    10.11000   17.30600   -12.31000
H    10.67300   16.48100   -11.87000
H    10.60200   18.24100   -12.03600
C    8.72900    17.27900   -11.74500
C    8.01300    18.31800   -11.22900
H    8.29400    19.34800   -11.11900
N    6.78600    17.88000   -10.80500
H    6.08100    18.45000   -10.37100
C    6.68700    16.53900   -11.04400
C    5.65200    15.64800   -10.78400
H    4.73400    15.97900   -10.32000
C    5.84300    14.33100   -11.13800
H    5.06100    13.61100   -10.94900
C    7.02900    13.90300   -11.74200
H    7.12600    12.86400   -12.01500
C    8.05800    14.78100   -12.00100
H    8.97100    14.44800   -12.46900
C    7.89600    16.12100   -11.64600
H    10.33700   18.07700   -14.34000
H    13.62700   15.42800   -10.24600
C    13.59100   14.34700   -10.13100
H    14.51800   14.01200   -9.67000
C    12.40800   13.94800   -9.27100
H    12.35500   12.86700   -9.14400
H    12.44500   14.43000   -8.29300
S    10.86200   14.48700   -10.10100
H    10.02500   13.92700   -9.23500
H    13.50400   13.89400   -11.11700
H    10.40800   10.64600   -6.45600
C    9.43300    10.67100   -5.97600
H    9.40800    11.50800   -5.28200
C    8.34000    10.78300   -7.03300
H    8.39000    11.76700   -7.50800
H    8.53700    10.03500   -7.80200
C    6.92600    10.55800   -6.49100
H    6.91400    9.61000    -5.94000
C    6.49700    11.67200   -5.54100
H    6.50200    12.63000   -6.05800
H    5.48700    11.48500   -5.18700
H    7.15900    11.73400   -4.67900
C    5.93200    10.45400   -7.64600
H    6.21800    9.65300    -8.32300
H    4.93000    10.25500   -7.27400
H    5.90700    11.38700   -8.20800
H    9.31500    9.75000    -5.41000
H    7.01200    6.67100    -3.15400
C    6.06200    6.28600    -2.78800
H    5.38600    7.12600    -2.63900
C    5.46600    5.28800    -3.77600
H    6.14500    4.43300    -3.86300
C    4.11900    4.79300    -3.25800
H    3.43900    5.63900    -3.16600
H    3.69200    4.05700    -3.93400
H    4.23600    4.33900    -2.27400
C    5.30900    5.91800    -5.15700
H    6.27300    6.25000    -5.53700
H    4.90000    5.19400    -5.85700
H    4.64400    6.77900    -5.11800
H    6.23200    5.81600    -1.82100
H    3.13800    0.53100    -2.32800
C    2.18700    1.05000    -2.43200
H    2.38400    2.11700    -2.50100
C    1.46300    0.58500    -3.68900
H    1.40300    -0.50300   -3.73600
H    0.44900    0.99300    -3.72000
C    2.17900    1.09700    -4.92400
O    2.65500    2.20300    -4.99500
O    2.22900    0.21000    -5.89500
H    2.74800    0.58000    -6.68100
H    1.59300    0.85400    -1.54200
H    -1.66400   -3.05000   -2.09900
C    -1.58500   -4.10500   -2.35300
H    -2.33100   -4.33100   -3.11300
C    -0.18700   -4.42900   -2.86300
H    0.55200    -4.22400   -2.08600
H    -0.11900   -5.49000   -3.11200
C    0.14100    -3.60800   -4.09700
H    -0.59600   -3.78500   -4.88300
H    0.16400    -2.54300   -3.86100
S    1.77400    -4.07400   -4.77400
C    1.68300    -3.14200   -6.32800
H    1.78900    -2.07800   -6.13900
H    2.50000    -3.48800   -6.95400
H    0.72600    -3.35900   -6.79400
H    -1.81200   -4.69000   -1.46500
H    -4.35000   -1.55200   -5.58400
C    -3.34200   -1.19300   -5.38700
H    -2.88300   -1.84000   -4.64100
C    -2.51500   -1.17900   -6.66700
H    -2.42200   -2.19400   -7.06200
H    -3.02300   -0.57500   -7.42200
C    -1.11600   -0.62100   -6.44100
H    -0.67800   -1.04900   -5.54100
H    -0.46900   -0.83400   -7.28900
S    -1.09000   1.19600    -6.21500
C    -0.47700   1.69600    -7.84600
H    -1.18300   1.38000    -8.60900
H    -0.39100   2.77800    -7.84300
H    0.49900    1.24700    -8.01500
H    -3.40400   -0.18600   -4.98000
H    -1.13900   4.07600    -4.40500
C    -0.15400   4.41500    -4.08200
H    0.31200    3.62700    -3.48900
C    0.71100    4.71100    -5.30400
H    0.25700    5.46900    -5.93700
H    1.70200    5.04200    -5.00600
H    0.82700    3.80200    -5.88700
C    -0.35300   5.64700    -3.21300
O    -1.36800   6.31400    -3.21800
N    0.71700    5.98800    -2.43500
H    1.50300    5.35400    -2.41600
C    0.57500    6.85100    -1.27200
H    -0.41200   7.32000    -1.37700
C    0.62000    6.01200    0.01900
H    1.61600    5.57800    0.11500
H    0.46000    6.68000    0.86600
C    -0.43400   4.94700    -0.03700
C    -0.14500   3.68800    -0.54500
H    0.86900    3.44300    -0.82600
C    -1.13700   2.73700    -0.69800
H    -0.89900   1.76500    -1.11300
C    -2.44300   3.02900    -0.33100
O    -3.45200   2.12100    -0.46300
H    -3.11800   1.33600    -0.91500
C    -2.74000   4.28000    0.19900
H    -3.75800   4.49400    0.48200
C    -1.74500   5.22500    0.33300
H    -1.98900   6.20000    0.72800
C    1.64600    7.95400    -1.22900
O    2.50200    7.99900    -0.36800
N    1.49000    8.88700    -2.18400
H    0.84100    8.71000    -2.93700
C    2.42200    9.98000    -2.38000
H    2.99700    10.08000   -1.45800
C    3.35800    9.69800    -3.56700
H    4.03400    10.54700   -3.68200
H    3.95800    8.81700    -3.32700
C    2.61500    9.46200    -4.84400
C    2.05300    8.28200    -5.26100
H    2.03000    7.33600    -4.75400
N    1.48400    8.42100    -6.48700
H    0.97200    7.70300    -7.00900
C    1.66200    9.70200    -6.90000
C    1.28900    10.31600   -8.09100
H    0.77700    9.75200    -8.85600
C    1.60600    11.64600   -8.25200
H    1.33700    12.15400   -9.16700
C    2.27600    12.35800   -7.25100
H    2.50100    13.40300   -7.41500
C    2.65700    11.75800   -6.07300
H    3.17200    12.32300   -5.31000
C    2.36400    10.40600   -5.88400
H    1.84900    10.89400   -2.56100
H    8.81800    15.30000   -3.82400
C    8.85300    15.05000   -4.88200
H    7.99800    14.41800   -5.10600
C    8.83700    16.31700   -5.72800
H    7.89300    16.84500   -5.57500
H    9.64100    16.97600   -5.39100
C    9.02400    16.04300   -7.22400
H    9.93300    15.44300   -7.34500
C    7.84600    15.27000   -7.81100
H    6.91400    15.80000   -7.62300
H    7.96000    15.16300   -8.88700
H    7.76900    14.27700   -7.37600
C    9.21600    17.35200   -7.98500
H    10.06200   17.91000   -7.58800
H    9.39700    17.15200   -9.03800
H    8.32500    17.97200   -7.90100
H    9.76000    14.47900   -5.06900
O    0.92900    3.58100    -11.43800
H    0.43600    2.79700    -11.19300
H    0.66800    4.25600    -10.77000
O    1.85200    3.97600    -14.05900
H    2.69200    4.39900    -13.86400
H    1.42500    3.85600    -13.19100
O    -0.97200   7.39000    -16.05700
H    -0.74300   6.52200    -16.43600
H    -1.20400   7.23700    -15.13800
O    5.78200    7.75200    -19.23000
H    4.84800    7.98400    -19.32000
H    6.12100    8.29900    -18.51000
O    6.30400    9.05400    -16.63900
H    5.60500    9.63900    -16.33500
H    6.04300    8.15600    -16.37500
O    9.23500    12.29900   -16.53600
H    8.38900    11.84700   -16.49200
H    9.09900    13.18900   -16.16300
$end

$rem
JOBTYPE  SP
METHOD  WB97X-V
BASIS  6-31G(D)
SYMMETRY  FALSE
SYM_IGNORE  TRUE
MEM_TOTAL  64000
MEM_STATIC  4000
BASIS_LIN_DEP_THRESH  6
THRESH  14
SCF_CONVERGENCE  8
FD_MAT_VEC_PROD  FALSE
XC_GRID  000075000302
NL_GRID  1
MAX_SCF_CYCLES  200
ENV_METHOD  WB97X-V
GEN_SCFMAN_EMBED  TRUE
SPADE_PARTITION  TRUE
EMBEDDING_EARLY_STOP  TRUE
$end

--------------------------------------------------------------
 ----------------------------------------------------------------
             Standard Nuclear Orientation (Angstroms)
    I     Atom           X                Y                Z
 ----------------------------------------------------------------
    1      C       3.6610000000     2.1190000000    -8.6100000000
    2      O       3.6220000000     1.1150000000    -7.8920000000
    3      C       3.3760000000     3.4400000000    -8.1410000000
    4      C       3.4680000000     4.5460000000    -8.9150000000
    5      C       3.9800000000     4.4830000000   -10.3260000000
    6      C       4.7780000000     3.1950000000   -10.5480000000
    7      C       3.9710000000     1.9970000000   -10.0750000000
    8      C       2.9320000000     5.8350000000    -8.4310000000
    9      C       3.6910000000     7.0680000000    -8.9050000000
   10      C       3.9390000000     6.9980000000   -10.4090000000
   11      C       4.7810000000     5.7450000000   -10.7040000000
   12      C       4.6830000000     8.2320000000   -10.9010000000
   13      C       5.0540000000     8.1740000000   -12.3890000000
   14      C       5.9600000000     6.9680000000   -12.6160000000
   15      C       5.2490000000     5.6910000000   -12.1640000000
   16      C       4.0140000000     9.6000000000   -10.7750000000
   17      C       4.8820000000    10.4950000000   -11.6780000000
   18      C       5.7480000000     9.5440000000   -12.5330000000
   19      C       3.8480000000     8.1180000000   -13.3330000000
   20      O       5.8520000000    10.0310000000   -13.8540000000
   21      H       3.0200000000     3.5260000000    -7.1230000000
   22      H       3.0860000000     4.4440000000   -10.9650000000
   23      H       5.7200000000     3.2480000000    -9.9940000000
   24      H       5.0160000000     3.0680000000   -11.6050000000
   25      H       3.0100000000     1.9840000000   -10.5990000000
   26      H       4.4760000000     1.0510000000   -10.2680000000
   27      H       2.8410000000     5.8310000000    -7.3450000000
   28      H       1.9050000000     5.8760000000    -8.8350000000
   29      H       4.6480000000     7.1390000000    -8.3800000000
   30      H       3.1140000000     7.9600000000    -8.6640000000
   31      H       2.9710000000     6.9130000000   -10.9100000000
   32      H       5.6730000000     5.7850000000   -10.0670000000
   33      H       5.6270000000     8.2820000000   -10.3450000000
   34      H       6.8860000000     7.0930000000   -12.0510000000
   35      H       6.2190000000     6.8730000000   -13.6730000000
   36      H       4.3870000000     5.5180000000   -12.8120000000
   37      H       5.9390000000     4.8570000000   -12.2970000000
   38      H       3.9950000000     9.9640000000    -9.7500000000
   39      H       2.9870000000     9.5510000000   -11.1350000000
   40      H       5.5190000000    11.1460000000   -11.0830000000
   41      H       4.2850000000    11.1210000000   -12.3390000000
   42      H       6.7540000000     9.4690000000   -12.0970000000
   43      H       3.0650000000     7.4720000000   -12.9500000000
   44      H       3.4310000000     9.1090000000   -13.4820000000
   45      H       4.1690000000     7.7360000000   -14.3000000000
   46      H       6.3280000000     9.3710000000   -14.3740000000
   47      H       6.8240000000    -6.4820000000    -9.2920000000
   48      C       6.1860000000    -5.6720000000    -9.6520000000
   49      H       5.7720000000    -5.9500000000   -10.6230000000
   50      C       5.0380000000    -5.4240000000    -8.6600000000
   51      H       4.3970000000    -6.3100000000    -8.6390000000
   52      H       5.4450000000    -5.2790000000    -7.6570000000
   53      C       4.2410000000    -4.2110000000    -9.0520000000
   54      C       3.2170000000    -4.2740000000    -9.9840000000
   55      H       2.9740000000    -5.2210000000   -10.4490000000
   56      C       2.4950000000    -3.1420000000   -10.3270000000
   57      H       1.7070000000    -3.2030000000   -11.0650000000
   58      C       2.7940000000    -1.9160000000    -9.7420000000
   59      O       2.0970000000    -0.7880000000   -10.0090000000
   60      H       1.3310000000    -0.9660000000   -10.5800000000
   61      C       3.8430000000    -1.8390000000    -8.8290000000
   62      H       4.0710000000    -0.8810000000    -8.3940000000
   63      C       4.5470000000    -2.9750000000    -8.4950000000
   64      H       5.3510000000    -2.9090000000    -7.7790000000
   65      C       7.0190000000    -4.4100000000    -9.8750000000
   66      O       6.9310000000    -3.7480000000   -10.8900000000
   67      N       7.8640000000    -4.0900000000    -8.8700000000
   68      H       7.9330000000    -4.6880000000    -8.0620000000
   69      C       8.8150000000    -2.9970000000    -8.9670000000
   70      H       8.3930000000    -2.2750000000    -9.6680000000
   71      C       9.1300000000    -2.3390000000    -7.6220000000
   72      H       9.5140000000    -3.1160000000    -6.9470000000
   73      C      10.2380000000    -1.3050000000    -7.8260000000
   74      H       9.9440000000    -0.5680000000    -8.5680000000
   75      H      10.4440000000    -0.7900000000    -6.8910000000
   76      H      11.1540000000    -1.7840000000    -8.1670000000
   77      C       7.9020000000    -1.7170000000    -6.9460000000
   78      H       7.2090000000    -2.5180000000    -6.6780000000
   79      H       8.2230000000    -1.2580000000    -6.0090000000
   80      C       7.1740000000    -0.6740000000    -7.7830000000
   81      H       6.7610000000    -1.1130000000    -8.6860000000
   82      H       6.3580000000    -0.2470000000    -7.2080000000
   83      H       7.8430000000     0.1360000000    -8.0570000000
   84      H       9.7510000000    -3.3780000000    -9.4010000000
   85      H       7.6650000000    -2.0480000000   -13.2140000000
   86      C       7.9830000000    -1.0460000000   -13.4920000000
   87      H       7.2440000000    -0.6240000000   -14.1710000000
   88      C       8.1100000000    -0.1770000000   -12.2440000000
   89      H       8.8450000000    -0.6410000000   -11.5750000000
   90      C       8.5950000000     1.2290000000   -12.5920000000
   91      H       7.9320000000     1.6890000000   -13.3210000000
   92      H       8.6100000000     1.8570000000   -11.7040000000
   93      H       9.6010000000     1.2070000000   -13.0050000000
   94      C       6.7670000000    -0.1210000000   -11.5230000000
   95      H       6.4460000000    -1.1240000000   -11.2470000000
   96      H       6.8400000000     0.4840000000   -10.6220000000
   97      H       6.0120000000     0.3160000000   -12.1730000000
   98      H       8.9340000000    -1.1150000000   -14.0170000000
   99      H       3.3620000000    -5.6580000000   -15.6360000000
  100      C       2.4720000000    -5.4640000000   -15.0420000000
  101      H       2.5010000000    -6.1070000000   -14.1640000000
  102      C       2.4080000000    -3.9990000000   -14.6200000000
  103      H       2.4110000000    -3.3740000000   -15.5210000000
  104      C       1.1060000000    -3.7450000000   -13.8650000000
  105      H       1.0360000000    -4.3990000000   -12.9980000000
  106      H       1.0500000000    -2.7120000000   -13.5380000000
  107      H       0.2480000000    -3.9420000000   -14.5060000000
  108      C       3.6400000000    -3.6400000000   -13.7810000000
  109      H       3.5690000000    -4.1240000000   -12.8060000000
  110      H       4.5280000000    -4.0380000000   -14.2780000000
  111      C       3.8360000000    -2.1430000000   -13.5810000000
  112      H       3.0020000000    -1.7010000000   -13.0440000000
  113      H       4.7400000000    -1.9690000000   -13.0050000000
  114      H       3.9300000000    -1.6380000000   -14.5410000000
  115      H       1.5990000000    -5.7330000000   -15.6350000000
  116      H      -2.7990000000    -7.9760000000   -11.1160000000
  117      C      -3.4890000000    -7.4690000000   -11.7870000000
  118      H      -4.2770000000    -7.0170000000   -11.1880000000
  119      C      -2.7570000000    -6.3970000000   -12.5960000000
  120      H      -1.9790000000    -6.8700000000   -13.1990000000
  121      H      -3.4620000000    -5.9080000000   -13.2710000000
  122      C      -2.1390000000    -5.3830000000   -11.6770000000
  123      C      -0.9430000000    -5.6620000000   -11.0300000000
  124      H      -0.4430000000    -6.6020000000   -11.2180000000
  125      C      -0.3770000000    -4.7600000000   -10.1510000000
  126      H       0.5510000000    -4.9930000000    -9.6480000000
  127      C      -1.0000000000    -3.5400000000    -9.9110000000
  128      O      -0.4640000000    -2.6000000000    -9.0890000000
  129      H       0.4530000000    -2.8250000000    -8.8750000000
  130      C      -2.2130000000    -3.2600000000   -10.5340000000
  131      H      -2.7120000000    -2.3290000000   -10.3070000000
  132      C      -2.7720000000    -4.1770000000   -11.4040000000
  133      H      -3.7140000000    -3.9480000000   -11.8810000000
  134      H      -3.9370000000    -8.2080000000   -12.4480000000
  135      H      -3.8370000000     6.1110000000    -7.5130000000
  136      C      -2.7840000000     6.4010000000    -7.5920000000
  137      H      -2.3280000000     6.3410000000    -6.6080000000
  138      C      -2.0590000000     5.4660000000    -8.5580000000
  139      H      -2.1480000000     4.4270000000    -8.2290000000
  140      H      -2.4840000000     5.5480000000    -9.5610000000
  141      C      -0.5560000000     5.8290000000    -8.6390000000
  142      O      -0.1160000000     6.6170000000    -7.7870000000
  143      O       0.1190000000     5.2850000000    -9.5410000000
  144      C      -2.7300000000     7.8100000000    -8.1550000000
  145      O      -2.9240000000     8.0460000000    -9.3400000000
  146      N      -2.5070000000     8.8120000000    -7.2860000000
  147      C      -2.4530000000    10.1890000000    -7.7480000000
  148      H      -3.2700000000    10.3740000000    -8.4480000000
  149      H      -1.5060000000    10.3700000000    -8.2690000000
  150      C      -2.5350000000    11.0130000000    -6.4690000000
  151      H      -3.5760000000    11.1490000000    -6.1710000000
  152      H      -2.0680000000    11.9900000000    -6.5780000000
  153      C      -1.8090000000    10.1210000000    -5.4650000000
  154      H      -2.0550000000    10.3520000000    -4.4300000000
  155      H      -0.7320000000    10.2200000000    -5.6040000000
  156      C      -2.2610000000     8.7150000000    -5.8630000000
  157      H      -1.4920000000     7.9730000000    -5.6410000000
  158      H      -3.1790000000     8.4310000000    -5.3330000000
  159      H      -3.1720000000     3.5620000000   -17.7050000000
  160      C      -2.7190000000     4.2190000000   -16.9580000000
  161      H      -2.9710000000     5.2510000000   -17.2060000000
  162      C      -3.2740000000     3.8740000000   -15.5660000000
  163      H      -4.3630000000     3.8110000000   -15.6460000000
  164      H      -2.9040000000     2.8970000000   -15.2450000000
  165      C      -2.9240000000     4.9100000000   -14.5290000000
  166      C      -3.6590000000     6.0880000000   -14.4590000000
  167      H      -4.4540000000     6.2610000000   -15.1710000000
  168      C      -3.4010000000     7.0220000000   -13.4700000000
  169      H      -3.9950000000     7.9220000000   -13.4130000000
  170      C      -2.4040000000     6.7900000000   -12.5360000000
  171      H      -2.2420000000     7.4870000000   -11.7280000000
  172      C      -1.6430000000     5.6350000000   -12.6220000000
  173      H      -0.8670000000     5.4540000000   -11.8950000000
  174      C      -1.8980000000     4.7030000000   -13.6160000000
  175      H      -1.3060000000     3.7990000000   -13.6680000000
  176      C      -1.2120000000     4.0540000000   -17.0430000000
  177      O      -0.4540000000     4.9900000000   -17.2870000000
  178      N      -0.7510000000     2.8090000000   -16.8960000000
  179      H      -1.3700000000     2.0700000000   -16.6050000000
  180      C       0.6700000000     2.5040000000   -16.9330000000
  181      H       1.1680000000     3.0210000000   -16.1040000000
  182      C       0.8980000000     0.9990000000   -16.8300000000
  183      H       0.3060000000     0.4840000000   -17.5900000000
  184      H       1.9530000000     0.8030000000   -17.0290000000
  185      C       0.5520000000     0.4900000000   -15.4570000000
  186      C      -0.5820000000    -0.2730000000   -15.2260000000
  187      H      -1.2400000000    -0.5300000000   -16.0460000000
  188      C      -0.8790000000    -0.7390000000   -13.9560000000
  189      H      -1.7570000000    -1.3490000000   -13.7870000000
  190      C      -0.0330000000    -0.4400000000   -12.8990000000
  191      O      -0.2490000000    -0.9180000000   -11.6370000000
  192      H      -1.0560000000    -1.4490000000   -11.5990000000
  193      C       1.0940000000     0.3490000000   -13.1130000000
  194      H       1.7380000000     0.5880000000   -12.2830000000
  195      C       1.3780000000     0.8030000000   -14.3830000000
  196      H       2.2500000000     1.4160000000   -14.5420000000
  197      H       1.0730000000     2.8930000000   -17.8740000000
  198      H       0.5770000000     5.9420000000   -19.8140000000
  199      C       0.8420000000     6.9990000000   -19.8780000000
  200      H       1.0870000000     7.2500000000   -20.9090000000
  201      C      -0.3350000000     7.8500000000   -19.3720000000
  202      H      -0.2640000000     7.9540000000   -18.2900000000
  203      H      -0.2770000000     8.8490000000   -19.8080000000
  204      C      -1.6720000000     7.2000000000   -19.7290000000
  205      H      -1.7550000000     7.0760000000   -20.8090000000
  206      H      -1.7220000000     6.2170000000   -19.2560000000
  207      C      -2.8690000000     8.0190000000   -19.2640000000
  208      O      -3.6890000000     8.4740000000   -20.0380000000
  209      N      -2.9810000000     8.1450000000   -17.9280000000
  210      H      -3.7110000000     8.7460000000   -17.5810000000
  211      H      -2.2340000000     7.8980000000   -17.2850000000
  212      C       2.0560000000     7.2600000000   -18.9950000000
  213      O       2.9200000000     8.0730000000   -19.2700000000
  214      N       2.1020000000     6.5150000000   -17.8630000000
  215      H       1.3030000000     5.9330000000   -17.6390000000
  216      C       3.0230000000     6.8220000000   -16.7810000000
  217      H       3.1600000000     7.9080000000   -16.7280000000
  218      H       2.5820000000     6.4880000000   -15.8400000000
  219      C       4.4130000000     6.2070000000   -16.8940000000
  220      O       5.2880000000     6.5340000000   -16.0990000000
  221      N       4.5870000000     5.3060000000   -17.8560000000
  222      H       3.8280000000     5.1500000000   -18.5010000000
  223      C       5.8520000000     4.6600000000   -18.1200000000
  224      H       6.5840000000     5.1120000000   -17.4530000000
  225      C       5.7670000000     3.1490000000   -17.8890000000
  226      H       5.1040000000     2.7110000000   -18.6400000000
  227      H       6.7630000000     2.7270000000   -18.0380000000
  228      C       5.2560000000     2.7580000000   -16.4950000000
  229      H       4.2470000000     3.1670000000   -16.3680000000
  230      C       5.1750000000     1.2350000000   -16.3910000000
  231      H       6.1670000000     0.7970000000   -16.4770000000
  232      H       4.7540000000     0.9380000000   -15.4320000000
  233      H       4.5510000000     0.8210000000   -17.1820000000
  234      C       6.1440000000     3.3110000000   -15.3840000000
  235      H       6.0940000000     4.3950000000   -15.3460000000
  236      H       5.8160000000     2.9270000000   -14.4210000000
  237      H       7.1800000000     3.0140000000   -15.5380000000
  238      H       6.1500000000     4.8720000000   -19.1500000000
  239      H      11.5280000000     6.2090000000   -16.6050000000
  240      C      11.3020000000     6.1060000000   -15.5440000000
  241      H      11.4970000000     7.0450000000   -15.0280000000
  242      C       9.8180000000     5.7200000000   -15.3750000000
  243      H       9.6650000000     4.7430000000   -15.8490000000
  244      C       9.4300000000     5.6170000000   -13.9030000000
  245      H       9.6560000000     6.5460000000   -13.3830000000
  246      H       8.3630000000     5.4290000000   -13.8140000000
  247      H       9.9570000000     4.8040000000   -13.4090000000
  248      C       8.9370000000     6.7490000000   -16.0800000000
  249      H       9.1620000000     6.8010000000   -17.1420000000
  250      H       7.8880000000     6.4890000000   -15.9660000000
  251      H       9.0860000000     7.7360000000   -15.6500000000
  252      C      12.1990000000     5.0260000000   -14.9780000000
  253      O      12.6040000000     4.1060000000   -15.7050000000
  254      N      12.5040000000     5.0990000000   -13.6710000000
  255      H      12.2860000000     5.9510000000   -13.1640000000
  256      C      13.3600000000     4.0810000000   -13.0750000000
  257      H      13.5370000000     3.4490000000   -13.9380000000
  258      C      14.7190000000     4.5990000000   -12.6210000000
  259      H      14.6030000000     5.5690000000   -12.1460000000
  260      H      15.1320000000     3.9320000000   -11.8640000000
  261      C      15.7120000000     4.7530000000   -13.7820000000
  262      H      15.4820000000     5.6630000000   -14.3370000000
  263      H      16.7060000000     4.8730000000   -13.3470000000
  264      C      15.7260000000     3.6000000000   -14.8070000000
  265      H      14.9380000000     3.7440000000   -15.5460000000
  266      H      16.6830000000     3.6070000000   -15.3380000000
  267      N      15.5670000000     2.2950000000   -14.1860000000
  268      H      16.2190000000     2.1170000000   -13.4360000000
  269      C      14.5300000000     1.4680000000   -14.2970000000
  270      N      13.5940000000     1.6030000000   -15.2290000000
  271      H      13.3080000000     2.5410000000   -15.5780000000
  272      H      12.8060000000     0.9780000000   -15.1450000000
  273      N      14.5210000000     0.3560000000   -13.5320000000
  274      H      15.1530000000     0.3100000000   -12.7490000000
  275      H      13.6160000000    -0.0570000000   -13.3630000000
  276      C      12.6760000000     3.0860000000   -12.1270000000
  277      O      12.3380000000     1.9970000000   -12.6040000000
  278      N      12.5540000000     3.4190000000   -10.8570000000
  279      H      13.0790000000     4.2380000000   -10.4690000000
  280      C      12.0570000000     2.4590000000    -9.8990000000
  281      H      11.4290000000     1.7390000000   -10.4320000000
  282      C      13.2050000000     1.7470000000    -9.1880000000
  283      H      13.8720000000     2.4830000000    -8.7450000000
  284      H      12.8190000000     1.0990000000    -8.4050000000
  285      H      13.7720000000     1.1430000000    -9.8940000000
  286      H      11.4540000000     2.9930000000    -9.1610000000
  287      H       5.4060000000    -1.8420000000     0.5650000000
  288      C       6.3370000000    -1.4000000000     0.2170000000
  289      H       7.1170000000    -1.6240000000     0.9400000000
  290      C       6.7100000000    -1.9510000000    -1.1560000000
  291      H       7.6540000000    -1.5140000000    -1.4870000000
  292      H       6.8480000000    -3.0320000000    -1.0970000000
  293      C       5.6350000000    -1.6430000000    -2.1840000000
  294      H       4.6820000000    -2.0940000000    -1.9000000000
  295      H       5.5080000000    -0.5650000000    -2.2990000000
  296      S       6.0870000000    -2.3060000000    -3.8260000000
  297      C       4.6910000000    -1.6230000000    -4.7560000000
  298      H       4.7630000000    -0.5400000000    -4.7690000000
  299      H       4.7510000000    -2.0060000000    -5.7680000000
  300      H       3.7660000000    -1.9550000000    -4.2950000000
  301      H       6.2070000000    -0.3210000000     0.1730000000
  302      H       9.4200000000     2.7830000000    -2.3330000000
  303      C      10.1310000000     2.6690000000    -3.1480000000
  304      H      11.1250000000     2.5310000000    -2.7270000000
  305      C       9.7450000000     1.4790000000    -4.0300000000
  306      H      10.4730000000     1.3770000000    -4.8380000000
  307      H       9.7660000000     0.5630000000    -3.4340000000
  308      C       8.3710000000     1.6950000000    -4.5950000000
  309      C       8.1920000000     2.1920000000    -5.8780000000
  310      H       9.0570000000     2.3750000000    -6.5010000000
  311      C       6.9220000000     2.4570000000    -6.3610000000
  312      H       6.7920000000     2.8430000000    -7.3610000000
  313      C       5.8170000000     2.2330000000    -5.5600000000
  314      H       4.8250000000     2.4410000000    -5.9230000000
  315      C       5.9870000000     1.7440000000    -4.2760000000
  316      H       5.1220000000     1.6010000000    -3.6450000000
  317      C       7.2550000000     1.4720000000    -3.7980000000
  318      H       7.3900000000     1.0920000000    -2.7940000000
  319      H      10.1260000000     3.5860000000    -3.7330000000
  320      H      10.5940000000     6.4850000000    -7.7390000000
  321      C      10.8060000000     6.4170000000    -8.8070000000
  322      H      11.4920000000     5.5930000000    -8.9930000000
  323      C       9.4890000000     6.2180000000    -9.5800000000
  324      H       9.6890000000     6.3900000000   -10.6440000000
  325      C       8.9590000000     4.7960000000    -9.4110000000
  326      H       8.8230000000     4.5610000000    -8.3570000000
  327      H       7.9980000000     4.6960000000    -9.9130000000
  328      H       9.6440000000     4.0740000000    -9.8490000000
  329      C       8.4460000000     7.2270000000    -9.1130000000
  330      H       8.8320000000     8.2370000000    -9.2130000000
  331      H       7.5430000000     7.1480000000    -9.7140000000
  332      H       8.1860000000     7.0550000000    -8.0700000000
  333      C      11.4510000000     7.7240000000    -9.2630000000
  334      O      11.1870000000     8.8130000000    -8.7760000000
  335      N      12.2850000000     7.5580000000   -10.3110000000
  336      H      12.7360000000     6.6330000000   -10.3580000000
  337      C      13.0740000000     8.6400000000   -10.8740000000
  338      H      12.9150000000     9.5260000000   -10.2470000000
  339      C      14.5700000000     8.2710000000   -10.9200000000
  340      H      14.7460000000     7.6500000000   -11.8040000000
  341      H      15.1370000000     9.1960000000   -11.0590000000
  342      C      15.0780000000     7.5380000000    -9.6670000000
  343      H      16.1250000000     7.7940000000    -9.4950000000
  344      H      14.4950000000     7.8420000000    -8.7950000000
  345      C      15.0060000000     5.9870000000    -9.7990000000
  346      O      13.8410000000     5.4920000000    -9.8480000000
  347      O      16.0530000000     5.3530000000    -9.8780000000
  348      C      12.5750000000     8.8940000000   -12.2910000000
  349      O      12.4380000000     7.9930000000   -13.1060000000
  350      N      12.3060000000    10.1740000000   -12.5670000000
  351      H      12.5190000000    10.9070000000   -11.9040000000
  352      C      11.8330000000    10.6300000000   -13.8500000000
  353      H      12.4640000000    10.1720000000   -14.6290000000
  354      C      10.3850000000    10.1920000000   -14.1290000000
  355      H      10.1280000000    10.4380000000   -15.1610000000
  356      H      10.3520000000     9.1050000000   -14.0300000000
  357      C       9.3510000000    10.7950000000   -13.1860000000
  358      H       9.5520000000    11.8430000000   -12.9730000000
  359      H       8.3560000000    10.7100000000   -13.6220000000
  360      S       9.3050000000     9.8910000000   -11.5870000000
  361      C       9.8780000000    11.1700000000   -10.4410000000
  362      H       9.0380000000    11.7950000000   -10.1500000000
  363      H      10.2860000000    10.6470000000    -9.5800000000
  364      H      10.6440000000    11.7660000000   -10.9260000000
  365      C      12.0710000000    12.1410000000   -13.9280000000
  366      O      12.7440000000    12.7190000000   -13.0880000000
  367      N      11.5660000000    12.7330000000   -15.0160000000
  368      H      10.8720000000    12.2720000000   -15.5990000000
  369      C      11.8450000000    14.1100000000   -15.3490000000
  370      H      12.7410000000    14.3950000000   -14.7870000000
  371      C      12.1070000000    14.2320000000   -16.8630000000
  372      H      11.2160000000    13.8620000000   -17.3800000000
  373      C      12.3410000000    15.6890000000   -17.2560000000
  374      H      13.1890000000    16.1010000000   -16.7120000000
  375      H      12.5550000000    15.7550000000   -18.3200000000
  376      H      11.4640000000    16.2950000000   -17.0480000000
  377      C      13.3040000000    13.3730000000   -17.2590000000
  378      H      13.1360000000    12.3330000000   -16.9930000000
  379      H      13.4680000000    13.4300000000   -18.3320000000
  380      H      14.2040000000    13.7170000000   -16.7520000000
  381      C      10.6750000000    15.0190000000   -14.9590000000
  382      O       9.5270000000    14.7720000000   -15.2880000000
  383      N      11.0370000000    16.1200000000   -14.2840000000
  384      H      11.9930000000    16.2180000000   -13.9810000000
  385      C      10.1030000000    17.1310000000   -13.8410000000
  386      H       9.1170000000    16.7970000000   -14.1740000000
  387      C      10.1100000000    17.3060000000   -12.3100000000
  388      H      10.6730000000    16.4810000000   -11.8700000000
  389      H      10.6020000000    18.2410000000   -12.0360000000
  390      C       8.7290000000    17.2790000000   -11.7450000000
  391      C       8.0130000000    18.3180000000   -11.2290000000
  392      H       8.2940000000    19.3480000000   -11.1190000000
  393      N       6.7860000000    17.8800000000   -10.8050000000
  394      H       6.0810000000    18.4500000000   -10.3710000000
  395      C       6.6870000000    16.5390000000   -11.0440000000
  396      C       5.6520000000    15.6480000000   -10.7840000000
  397      H       4.7340000000    15.9790000000   -10.3200000000
  398      C       5.8430000000    14.3310000000   -11.1380000000
  399      H       5.0610000000    13.6110000000   -10.9490000000
  400      C       7.0290000000    13.9030000000   -11.7420000000
  401      H       7.1260000000    12.8640000000   -12.0150000000
  402      C       8.0580000000    14.7810000000   -12.0010000000
  403      H       8.9710000000    14.4480000000   -12.4690000000
  404      C       7.8960000000    16.1210000000   -11.6460000000
  405      H      10.3370000000    18.0770000000   -14.3400000000
  406      H      13.6270000000    15.4280000000   -10.2460000000
  407      C      13.5910000000    14.3470000000   -10.1310000000
  408      H      14.5180000000    14.0120000000    -9.6700000000
  409      C      12.4080000000    13.9480000000    -9.2710000000
  410      H      12.3550000000    12.8670000000    -9.1440000000
  411      H      12.4450000000    14.4300000000    -8.2930000000
  412      S      10.8620000000    14.4870000000   -10.1010000000
  413      H      10.0250000000    13.9270000000    -9.2350000000
  414      H      13.5040000000    13.8940000000   -11.1170000000
  415      H      10.4080000000    10.6460000000    -6.4560000000
  416      C       9.4330000000    10.6710000000    -5.9760000000
  417      H       9.4080000000    11.5080000000    -5.2820000000
  418      C       8.3400000000    10.7830000000    -7.0330000000
  419      H       8.3900000000    11.7670000000    -7.5080000000
  420      H       8.5370000000    10.0350000000    -7.8020000000
  421      C       6.9260000000    10.5580000000    -6.4910000000
  422      H       6.9140000000     9.6100000000    -5.9400000000
  423      C       6.4970000000    11.6720000000    -5.5410000000
  424      H       6.5020000000    12.6300000000    -6.0580000000
  425      H       5.4870000000    11.4850000000    -5.1870000000
  426      H       7.1590000000    11.7340000000    -4.6790000000
  427      C       5.9320000000    10.4540000000    -7.6460000000
  428      H       6.2180000000     9.6530000000    -8.3230000000
  429      H       4.9300000000    10.2550000000    -7.2740000000
  430      H       5.9070000000    11.3870000000    -8.2080000000
  431      H       9.3150000000     9.7500000000    -5.4100000000
  432      H       7.0120000000     6.6710000000    -3.1540000000
  433      C       6.0620000000     6.2860000000    -2.7880000000
  434      H       5.3860000000     7.1260000000    -2.6390000000
  435      C       5.4660000000     5.2880000000    -3.7760000000
  436      H       6.1450000000     4.4330000000    -3.8630000000
  437      C       4.1190000000     4.7930000000    -3.2580000000
  438      H       3.4390000000     5.6390000000    -3.1660000000
  439      H       3.6920000000     4.0570000000    -3.9340000000
  440      H       4.2360000000     4.3390000000    -2.2740000000
  441      C       5.3090000000     5.9180000000    -5.1570000000
  442      H       6.2730000000     6.2500000000    -5.5370000000
  443      H       4.9000000000     5.1940000000    -5.8570000000
  444      H       4.6440000000     6.7790000000    -5.1180000000
  445      H       6.2320000000     5.8160000000    -1.8210000000
  446      H       3.1380000000     0.5310000000    -2.3280000000
  447      C       2.1870000000     1.0500000000    -2.4320000000
  448      H       2.3840000000     2.1170000000    -2.5010000000
  449      C       1.4630000000     0.5850000000    -3.6890000000
  450      H       1.4030000000    -0.5030000000    -3.7360000000
  451      H       0.4490000000     0.9930000000    -3.7200000000
  452      C       2.1790000000     1.0970000000    -4.9240000000
  453      O       2.6550000000     2.2030000000    -4.9950000000
  454      O       2.2290000000     0.2100000000    -5.8950000000
  455      H       2.7480000000     0.5800000000    -6.6810000000
  456      H       1.5930000000     0.8540000000    -1.5420000000
  457      H      -1.6640000000    -3.0500000000    -2.0990000000
  458      C      -1.5850000000    -4.1050000000    -2.3530000000
  459      H      -2.3310000000    -4.3310000000    -3.1130000000
  460      C      -0.1870000000    -4.4290000000    -2.8630000000
  461      H       0.5520000000    -4.2240000000    -2.0860000000
  462      H      -0.1190000000    -5.4900000000    -3.1120000000
  463      C       0.1410000000    -3.6080000000    -4.0970000000
  464      H      -0.5960000000    -3.7850000000    -4.8830000000
  465      H       0.1640000000    -2.5430000000    -3.8610000000
  466      S       1.7740000000    -4.0740000000    -4.7740000000
  467      C       1.6830000000    -3.1420000000    -6.3280000000
  468      H       1.7890000000    -2.0780000000    -6.1390000000
  469      H       2.5000000000    -3.4880000000    -6.9540000000
  470      H       0.7260000000    -3.3590000000    -6.7940000000
  471      H      -1.8120000000    -4.6900000000    -1.4650000000
  472      H      -4.3500000000    -1.5520000000    -5.5840000000
  473      C      -3.3420000000    -1.1930000000    -5.3870000000
  474      H      -2.8830000000    -1.8400000000    -4.6410000000
  475      C      -2.5150000000    -1.1790000000    -6.6670000000
  476      H      -2.4220000000    -2.1940000000    -7.0620000000
  477      H      -3.0230000000    -0.5750000000    -7.4220000000
  478      C      -1.1160000000    -0.6210000000    -6.4410000000
  479      H      -0.6780000000    -1.0490000000    -5.5410000000
  480      H      -0.4690000000    -0.8340000000    -7.2890000000
  481      S      -1.0900000000     1.1960000000    -6.2150000000
  482      C      -0.4770000000     1.6960000000    -7.8460000000
  483      H      -1.1830000000     1.3800000000    -8.6090000000
  484      H      -0.3910000000     2.7780000000    -7.8430000000
  485      H       0.4990000000     1.2470000000    -8.0150000000
  486      H      -3.4040000000    -0.1860000000    -4.9800000000
  487      H      -1.1390000000     4.0760000000    -4.4050000000
  488      C      -0.1540000000     4.4150000000    -4.0820000000
  489      H       0.3120000000     3.6270000000    -3.4890000000
  490      C       0.7110000000     4.7110000000    -5.3040000000
  491      H       0.2570000000     5.4690000000    -5.9370000000
  492      H       1.7020000000     5.0420000000    -5.0060000000
  493      H       0.8270000000     3.8020000000    -5.8870000000
  494      C      -0.3530000000     5.6470000000    -3.2130000000
  495      O      -1.3680000000     6.3140000000    -3.2180000000
  496      N       0.7170000000     5.9880000000    -2.4350000000
  497      H       1.5030000000     5.3540000000    -2.4160000000
  498      C       0.5750000000     6.8510000000    -1.2720000000
  499      H      -0.4120000000     7.3200000000    -1.3770000000
  500      C       0.6200000000     6.0120000000     0.0190000000
  501      H       1.6160000000     5.5780000000     0.1150000000
  502      H       0.4600000000     6.6800000000     0.8660000000
  503      C      -0.4340000000     4.9470000000    -0.0370000000
  504      C      -0.1450000000     3.6880000000    -0.5450000000
  505      H       0.8690000000     3.4430000000    -0.8260000000
  506      C      -1.1370000000     2.7370000000    -0.6980000000
  507      H      -0.8990000000     1.7650000000    -1.1130000000
  508      C      -2.4430000000     3.0290000000    -0.3310000000
  509      O      -3.4520000000     2.1210000000    -0.4630000000
  510      H      -3.1180000000     1.3360000000    -0.9150000000
  511      C      -2.7400000000     4.2800000000     0.1990000000
  512      H      -3.7580000000     4.4940000000     0.4820000000
  513      C      -1.7450000000     5.2250000000     0.3330000000
  514      H      -1.9890000000     6.2000000000     0.7280000000
  515      C       1.6460000000     7.9540000000    -1.2290000000
  516      O       2.5020000000     7.9990000000    -0.3680000000
  517      N       1.4900000000     8.8870000000    -2.1840000000
  518      H       0.8410000000     8.7100000000    -2.9370000000
  519      C       2.4220000000     9.9800000000    -2.3800000000
  520      H       2.9970000000    10.0800000000    -1.4580000000
  521      C       3.3580000000     9.6980000000    -3.5670000000
  522      H       4.0340000000    10.5470000000    -3.6820000000
  523      H       3.9580000000     8.8170000000    -3.3270000000
  524      C       2.6150000000     9.4620000000    -4.8440000000
  525      C       2.0530000000     8.2820000000    -5.2610000000
  526      H       2.0300000000     7.3360000000    -4.7540000000
  527      N       1.4840000000     8.4210000000    -6.4870000000
  528      H       0.9720000000     7.7030000000    -7.0090000000
  529      C       1.6620000000     9.7020000000    -6.9000000000
  530      C       1.2890000000    10.3160000000    -8.0910000000
  531      H       0.7770000000     9.7520000000    -8.8560000000
  532      C       1.6060000000    11.6460000000    -8.2520000000
  533      H       1.3370000000    12.1540000000    -9.1670000000
  534      C       2.2760000000    12.3580000000    -7.2510000000
  535      H       2.5010000000    13.4030000000    -7.4150000000
  536      C       2.6570000000    11.7580000000    -6.0730000000
  537      H       3.1720000000    12.3230000000    -5.3100000000
  538      C       2.3640000000    10.4060000000    -5.8840000000
  539      H       1.8490000000    10.8940000000    -2.5610000000
  540      H       8.8180000000    15.3000000000    -3.8240000000
  541      C       8.8530000000    15.0500000000    -4.8820000000
  542      H       7.9980000000    14.4180000000    -5.1060000000
  543      C       8.8370000000    16.3170000000    -5.7280000000
  544      H       7.8930000000    16.8450000000    -5.5750000000
  545      H       9.6410000000    16.9760000000    -5.3910000000
  546      C       9.0240000000    16.0430000000    -7.2240000000
  547      H       9.9330000000    15.4430000000    -7.3450000000
  548      C       7.8460000000    15.2700000000    -7.8110000000
  549      H       6.9140000000    15.8000000000    -7.6230000000
  550      H       7.9600000000    15.1630000000    -8.8870000000
  551      H       7.7690000000    14.2770000000    -7.3760000000
  552      C       9.2160000000    17.3520000000    -7.9850000000
  553      H      10.0620000000    17.9100000000    -7.5880000000
  554      H       9.3970000000    17.1520000000    -9.0380000000
  555      H       8.3250000000    17.9720000000    -7.9010000000
  556      H       9.7600000000    14.4790000000    -5.0690000000
  557      O       0.9290000000     3.5810000000   -11.4380000000
  558      H       0.4360000000     2.7970000000   -11.1930000000
  559      H       0.6680000000     4.2560000000   -10.7700000000
  560      O       1.8520000000     3.9760000000   -14.0590000000
  561      H       2.6920000000     4.3990000000   -13.8640000000
  562      H       1.4250000000     3.8560000000   -13.1910000000
  563      O      -0.9720000000     7.3900000000   -16.0570000000
  564      H      -0.7430000000     6.5220000000   -16.4360000000
  565      H      -1.2040000000     7.2370000000   -15.1380000000
  566      O       5.7820000000     7.7520000000   -19.2300000000
  567      H       4.8480000000     7.9840000000   -19.3200000000
  568      H       6.1210000000     8.2990000000   -18.5100000000
  569      O       6.3040000000     9.0540000000   -16.6390000000
  570      H       5.6050000000     9.6390000000   -16.3350000000
  571      H       6.0430000000     8.1560000000   -16.3750000000
  572      O       9.2350000000    12.2990000000   -16.5360000000
  573      H       8.3890000000    11.8470000000   -16.4920000000
  574      H       9.0990000000    13.1890000000   -16.1630000000
 ----------------------------------------------------------------
 Nuclear Repulsion Energy =      103800.18913821 hartrees
 There are      969 alpha and      969 beta electrons
 Requested basis set is 6-31G(d)
 There are 1645 shells and 4366 basis functions

 Total QAlloc Memory Limit  64000 MB
 Mega-Array Size      3911 MB
 MEM_STATIC part      4000 MB

 A cutoff of  1.0D-14 yielded 210180 shell pairs
 There are   1399944 function pairs
 Smallest overlap matrix eigenvalue = 3.31E-04

 Scale SEOQF with 1.000000e-02/1.000000e-03/1.000000e-03

 Standard Electronic Orientation quadrupole field applied
 Nucleus-field energy     =     0.0000001799 hartrees
 Guess from superposition of atomic densities
 Warning:  Energy on first SCF cycle will be non-variational
 SAD guess density has 1937.000005 electrons

 -----------------------------------------------------------------------
  General SCF calculation program by
  Eric Jon Sundstrom, Paul Horn, Yuezhi Mao, Dmitri Zuev, Alec White,
  David Stuck, Shaama M.S., Shane Yost, Joonho Lee, David Small,
  Daniel Levine, Susi Lehtola, Hugh Burton, Evgeny Epifanovsky,
  Bang C. Huynh
 -----------------------------------------------------------------------
=================================================
        Doing projection-based embedding         
      F. Manby et al. JCTC, 8, 2564 (2012)       
=================================================

****************************************************
   Low-level SCF calculation for the whole system   
****************************************************
----------------------------------------------
 Summary of the low-level theory: 
 Exchange:     0.1670 Hartree-Fock + 1.0000 wB97X-V + LR-HF
 Correlation:  1.0000 wB97X-V
 Using Euler-Maclaurin-Lebedev (75,302) quadrature formula
 Nonlocal Correlation:  VV10 with C = 0.0100 and b = 6.00 and scale = 1.00000
 Grid used for NLC:  SG-1 standard quadrature
----------------------------------------------
 using 32 threads for integral computing
 -------------------------------------------------------
 OpenMP Integral computing Module                
 Release: version 1.0, May 2013, Q-Chem Inc. Pittsburgh 
 -------------------------------------------------------
 A restricted SCF calculation will be
 performed using DIIS
 SCF converges when DIIS error is below 1.0e-08
 ---------------------------------------
  Cycle       Energy         DIIS error
 ---------------------------------------
    1  -12946.7316699186      1.20e-02  
    2  -12870.5818707560      1.19e-03  
    3  -12870.8480976494      1.27e-03  
    4  -12873.5456993981      1.88e-04  
    5  -12873.6057226330      8.56e-05  
    6  -12873.6195109507      1.99e-05  
    7  -12873.6203449045      6.38e-06  
    8  -12873.6204493452      2.79e-06  
    9  -12873.6204704290      1.06e-06  
   10  -12873.6204749524      4.11e-07  
   11  -12873.6204755855      1.60e-07  
   12  -12873.6204757174      5.61e-08  
   13  -12873.6204757350      2.54e-08  
   14  -12873.6204757394      1.27e-08  
   15  -12873.6204757406      4.81e-09  Convergence criterion met
 ---------------------------------------
 SCF time:   CPU 240043.07s  wall 8268.00s 
 SCF   energy in the final basis set =   -12873.6204757406
 Total energy in the final basis set =   -12873.6204757406

****************************************************
             Start embedding calculation            
****************************************************
----------------------------------------------
 Summary of the high-level theory: 
 Exchange:     0.1670 Hartree-Fock + 1.0000 wB97X-V + LR-HF
 Correlation:  1.0000 wB97X-V
 Using Euler-Maclaurin-Lebedev (75,302) quadrature formula
 Nonlocal Correlation:  VV10 with C = 0.0100 and b = 6.00 and scale = 1.00000
 Grid used for NLC:  SG-1 standard quadrature
----------------------------------------------
Doing R-in-R Embedding Calculation
Number of fragments: 2
Embedded fragment(s): 1 
NOcc for each fragment
           75
          894
NBasis for each fragment
          352
         4014
Variational space of the embedded problem: 
NOcc (active)  = 75
NOcc (fixed)   = 894
NVir (total)   = 3397
Read converged orbitals from disk
=========================================================
       Doing SPADE partition for the orbital space       
     D. Claudino and N. Mayhall JCTC 15, 1053 (2019)     
=========================================================
SPADE singular values:
 1.0000 1.0000 1.0000 1.0000 1.0000 1.0000 1.0000 1.0000 1.0000 1.0000
 1.0000 1.0000 1.0000 1.0000 1.0000 1.0000 1.0000 1.0000 1.0000 1.0000
 1.0000 1.0000 1.0000 1.0000 1.0000 1.0000 1.0000 1.0000 1.0000 1.0000
 1.0000 1.0000 1.0000 1.0000 1.0000 1.0000 1.0000 1.0000 1.0000 1.0000
 1.0000 0.9999 0.9999 0.9999 0.9999 0.9999 0.9998 0.9998 0.9998 0.9998
 0.9997 0.9996 0.9995 0.9995 0.9994 0.9994 0.9993 0.9992 0.9990 0.9989
 0.9989 0.9987 0.9985 0.9984 0.9983 0.9982 0.9981 0.9979 0.9976 0.9971
 0.9968 0.9957 0.9954 0.9903 0.9694 0.1743 0.1325 0.1171 0.1144 0.1083
 0.0941 0.0773 0.0728 0.0720 0.0668 0.0646 0.0570 0.0549 0.0508 0.0479
 0.0449 0.0443 0.0422 0.0405 0.0373 0.0342 0.0338 0.0312 0.0279 0.0268
 0.0264 0.0252 0.0233 0.0222 0.0215 0.0202 0.0188 0.0187 0.0176 0.0167
 0.0160 0.0157 0.0154 0.0143 0.0131 0.0129 0.0122 0.0116 0.0114 0.0104
 0.0094 0.0087 0.0081 0.0080 0.0076 0.0072 0.0068 0.0067 0.0065 0.0060
 0.0056 0.0052 0.0048 0.0047 0.0047 0.0045 0.0041 0.0038 0.0037 0.0035
 0.0033 0.0031 0.0029 0.0029 0.0028 0.0026 0.0025 0.0024 0.0023 0.0022
 0.0021 0.0020 0.0018 0.0018 0.0017 0.0017 0.0016 0.0015 0.0015 0.0015
 0.0014 0.0014 0.0013 0.0013 0.0012 0.0012 0.0012 0.0011 0.0011 0.0011
 0.0010 0.0010 0.0010 0.0009 0.0009 0.0008 0.0008 0.0008 0.0008 0.0008
 0.0008 0.0007 0.0007 0.0007 0.0007 0.0007 0.0006 0.0006 0.0006 0.0006
 0.0006 0.0006 0.0005 0.0005 0.0005 0.0005 0.0005 0.0005 0.0005 0.0004
 0.0004 0.0004 0.0004 0.0004 0.0004 0.0004 0.0004 0.0004 0.0003 0.0003
 0.0003 0.0003 0.0003 0.0003 0.0003 0.0003 0.0003 0.0003 0.0003 0.0003
 0.0003 0.0002 0.0002 0.0002 0.0002 0.0002 0.0002 0.0002 0.0002 0.0002
 0.0002 0.0002 0.0002 0.0002 0.0002 0.0002 0.0002 0.0002 0.0002 0.0002
 0.0002 0.0001 0.0001 0.0001 0.0001 0.0001 0.0001 0.0001 0.0001 0.0001
 0.0001 0.0001 0.0001 0.0001 0.0001 0.0001 0.0001 0.0001 0.0001 0.0001
 0.0001 0.0001 0.0001 0.0001 0.0001 0.0001 0.0001 0.0001 0.0001 0.0001
 0.0001 0.0001 0.0001 0.0001 0.0001 0.0001 0.0001 0.0001 0.0001 0.0001
 0.0001 0.0001 0.0000 0.0000 0.0000 0.0000 0.0000 0.0000 0.0000 0.0000
 0.0000 0.0000 0.0000 0.0000 0.0000 0.0000 0.0000 0.0000 0.0000 0.0000
 0.0000 0.0000 0.0000 0.0000 0.0000 0.0000 0.0000 0.0000 0.0000 0.0000
 0.0000 0.0000 0.0000 0.0000 0.0000 0.0000 0.0000 0.0000 0.0000 0.0000
 0.0000 0.0000 0.0000 0.0000 0.0000 0.0000 0.0000 0.0000 0.0000 0.0000
 0.0000 0.0000 0.0000 0.0000 0.0000 0.0000 0.0000 0.0000 0.0000 0.0000
 0.0000 0.0000 0.0000 0.0000 0.0000 0.0000 0.0000 0.0000 0.0000 0.0000
 0.0000 0.0000
Early stop requested; no embedded SCF will be performed

 894 environment occs will be part of frozen-core in future post-HF calculations
 
 --------------------------------------------------------------
 
                    Orbital Energies (a.u.)
 --------------------------------------------------------------
 
 Alpha MOs
 -- Occupied --
-88.8161 -88.8135 -88.8049 -88.8039 -88.7941 -19.2435 -19.2337 -19.2103
-19.2032 -19.1994 -19.1849 -19.1735 -19.1721 -19.1682 -19.1669 -19.1648
-19.1625 -19.1624 -19.1586 -19.1550 -19.1544 -19.1526 -19.1511 -19.1463
-19.1452 -19.1311 -19.1288 -19.1207 -19.1192 -19.1139 -19.1034 -19.0994
-19.0891 -19.0888 -19.0862 -14.4776 -14.4651 -14.4456 -14.4274 -14.4220
-14.4219 -14.4062 -14.4053 -14.4048 -14.4040 -14.4035 -14.3983 -14.3841
-14.3786 -14.3769 -14.3724 -14.3612 -14.3592 -14.3540 -10.4369 -10.3623
-10.3509 -10.3476 -10.3458 -10.3454 -10.3416 -10.3376 -10.3331 -10.3281
-10.3268 -10.3196 -10.3165 -10.3134 -10.3121 -10.3117 -10.3091 -10.3018
-10.2956 -10.2902 -10.2895 -10.2871 -10.2849 -10.2824 -10.2811 -10.2787
-10.2765 -10.2741 -10.2720 -10.2642 -10.2635 -10.2629 -10.2624 -10.2622
-10.2617 -10.2604 -10.2601 -10.2596 -10.2591 -10.2581 -10.2580 -10.2575
-10.2573 -10.2568 -10.2563 -10.2553 -10.2551 -10.2551 -10.2546 -10.2545
-10.2544 -10.2540 -10.2540 -10.2510 -10.2487 -10.2479 -10.2474 -10.2470
-10.2460 -10.2455 -10.2448 -10.2443 -10.2442 -10.2436 -10.2393 -10.2393
-10.2392 -10.2383 -10.2379 -10.2368 -10.2367 -10.2366 -10.2361 -10.2360
-10.2357 -10.2352 -10.2345 -10.2341 -10.2336 -10.2329 -10.2323 -10.2318
-10.2315 -10.2312 -10.2308 -10.2302 -10.2302 -10.2296 -10.2292 -10.2289
-10.2287 -10.2282 -10.2280 -10.2278 -10.2277 -10.2274 -10.2268 -10.2267
-10.2266 -10.2265 -10.2260 -10.2253 -10.2248 -10.2247 -10.2240 -10.2236
-10.2235 -10.2232 -10.2231 -10.2230 -10.2228 -10.2226 -10.2218 -10.2216
-10.2214 -10.2213 -10.2204 -10.2203 -10.2198 -10.2198 -10.2194 -10.2194
-10.2187 -10.2180 -10.2174 -10.2171 -10.2162 -10.2158 -10.2156 -10.2152
-10.2150 -10.2150 -10.2142 -10.2136 -10.2132 -10.2104 -10.2091 -10.2086
-10.2081 -10.2080 -10.2064 -10.2058 -10.2051 -10.2047 -10.2045 -10.2038
-10.2035 -10.2035 -10.2032 -10.2029 -10.2026 -10.2021 -10.2014 -10.2006
-10.2006 -10.2005 -10.2003 -10.1995 -10.1990 -10.1973 -10.1954 -10.1927
-10.1925 -10.1917 -10.1914 -10.1905 -10.1887 -10.1870 -10.1859 -10.1857
-10.1853 -10.1805  -7.9826  -7.9814  -7.9713  -7.9699  -7.9595  -5.9405
 -5.9391  -5.9365  -5.9353  -5.9293  -5.9291  -5.9279  -5.9279  -5.9253
 -5.9237  -5.9178  -5.9176  -5.9165  -5.9134  -5.9060  -1.1689  -1.1670
 -1.1649  -1.1617  -1.1521  -1.1454  -1.1379  -1.1355  -1.1338  -1.1319
 -1.1312  -1.1236  -1.1208  -1.1187  -1.1119  -1.1055  -1.0981  -1.0906
 -1.0888  -1.0834  -1.0783  -1.0768  -1.0728  -1.0727  -1.0714  -1.0706
 -1.0670  -1.0643  -1.0575  -1.0504  -1.0347  -1.0343  -1.0297  -1.0288
 -1.0221  -1.0202  -1.0189  -1.0129  -1.0093  -1.0080  -1.0012  -0.9976
 -0.9959  -0.9902  -0.9884  -0.9846  -0.9795  -0.9725  -0.9714  -0.9665
 -0.9569  -0.9519  -0.9429  -0.9393  -0.9355  -0.9242  -0.9132  -0.9092
 -0.9088  -0.9015  -0.9014  -0.9011  -0.8998  -0.8991  -0.8987  -0.8947
 -0.8936  -0.8932  -0.8916  -0.8890  -0.8879  -0.8872  -0.8846  -0.8834
 -0.8821  -0.8778  -0.8769  -0.8700  -0.8674  -0.8656  -0.8632  -0.8624
 -0.8598  -0.8592  -0.8561  -0.8544  -0.8538  -0.8533  -0.8509  -0.8454
 -0.8447  -0.8384  -0.8378  -0.8376  -0.8360  -0.8341  -0.8301  -0.8287
 -0.8275  -0.8227  -0.8211  -0.8196  -0.8173  -0.8151  -0.8140  -0.8134
 -0.8131  -0.8111  -0.8084  -0.8076  -0.8073  -0.8067  -0.7990  -0.7938
 -0.7929  -0.7916  -0.7900  -0.7883  -0.7875  -0.7860  -0.7829  -0.7811
 -0.7808  -0.7778  -0.7714  -0.7714  -0.7706  -0.7682  -0.7674  -0.7674
 -0.7641  -0.7634  -0.7571  -0.7519  -0.7504  -0.7502  -0.7499  -0.7479
 -0.7469  -0.7403  -0.7397  -0.7358  -0.7353  -0.7347  -0.7341  -0.7330
 -0.7303  -0.7292  -0.7281  -0.7196  -0.7179  -0.7160  -0.7140  -0.7106
 -0.7094  -0.7076  -0.7073  -0.7003  -0.6997  -0.6996  -0.6958  -0.6948
 -0.6938  -0.6938  -0.6931  -0.6914  -0.6909  -0.6908  -0.6854  -0.6841
 -0.6838  -0.6804  -0.6800  -0.6776  -0.6766  -0.6727  -0.6717  -0.6713
 -0.6689  -0.6680  -0.6670  -0.6662  -0.6653  -0.6642  -0.6623  -0.6616
 -0.6615  -0.6597  -0.6564  -0.6558  -0.6545  -0.6533  -0.6530  -0.6503
 -0.6448  -0.6435  -0.6386  -0.6368  -0.6368  -0.6365  -0.6360  -0.6357
 -0.6355  -0.6349  -0.6343  -0.6328  -0.6315  -0.6312  -0.6298  -0.6293
 -0.6254  -0.6252  -0.6240  -0.6205  -0.6196  -0.6184  -0.6164  -0.6152
 -0.6113  -0.6087  -0.6064  -0.6058  -0.6032  -0.6014  -0.6009  -0.5992
 -0.5985  -0.5923  -0.5919  -0.5875  -0.5869  -0.5867  -0.5850  -0.5838
 -0.5827  -0.5798  -0.5796  -0.5782  -0.5767  -0.5740  -0.5734  -0.5711
 -0.5695  -0.5690  -0.5682  -0.5672  -0.5659  -0.5629  -0.5613  -0.5597
 -0.5596  -0.5564  -0.5551  -0.5550  -0.5507  -0.5505  -0.5502  -0.5493
 -0.5491  -0.5479  -0.5470  -0.5465  -0.5456  -0.5444  -0.5430  -0.5416
 -0.5407  -0.5397  -0.5386  -0.5377  -0.5361  -0.5350  -0.5345  -0.5327
 -0.5314  -0.5309  -0.5308  -0.5296  -0.5293  -0.5287  -0.5280  -0.5271
 -0.5262  -0.5255  -0.5254  -0.5245  -0.5242  -0.5238  -0.5218  -0.5215
 -0.5206  -0.5204  -0.5204  -0.5195  -0.5181  -0.5177  -0.5174  -0.5169
 -0.5156  -0.5150  -0.5143  -0.5134  -0.5132  -0.5129  -0.5122  -0.5121
 -0.5113  -0.5100  -0.5086  -0.5082  -0.5076  -0.5068  -0.5055  -0.5052
 -0.5050  -0.5042  -0.5031  -0.5019  -0.5018  -0.5015  -0.5011  -0.5005
 -0.4997  -0.4989  -0.4986  -0.4982  -0.4962  -0.4959  -0.4956  -0.4955
 -0.4930  -0.4929  -0.4927  -0.4917  -0.4916  -0.4913  -0.4910  -0.4899
 -0.4887  -0.4885  -0.4882  -0.4878  -0.4858  -0.4849  -0.4846  -0.4841
 -0.4830  -0.4826  -0.4822  -0.4821  -0.4816  -0.4813  -0.4809  -0.4799
 -0.4793  -0.4789  -0.4782  -0.4775  -0.4774  -0.4770  -0.4767  -0.4754
 -0.4750  -0.4749  -0.4740  -0.4733  -0.4724  -0.4717  -0.4716  -0.4710
 -0.4702  -0.4695  -0.4694  -0.4690  -0.4686  -0.4681  -0.4676  -0.4673
 -0.4671  -0.4666  -0.4662  -0.4659  -0.4657  -0.4656  -0.4646  -0.4644
 -0.4642  -0.4639  -0.4634  -0.4629  -0.4621  -0.4614  -0.4605  -0.4600
 -0.4596  -0.4586  -0.4584  -0.4572  -0.4570  -0.4567  -0.4566  -0.4545
 -0.4543  -0.4535  -0.4528  -0.4520  -0.4519  -0.4508  -0.4504  -0.4495
 -0.4487  -0.4485  -0.4480  -0.4467  -0.4452  -0.4448  -0.4447  -0.4444
 -0.4431  -0.4428  -0.4425  -0.4421  -0.4405  -0.4394  -0.4386  -0.4383
 -0.4381  -0.4380  -0.4375  -0.4370  -0.4362  -0.4354  -0.4352  -0.4350
 -0.4346  -0.4342  -0.4328  -0.4324  -0.4321  -0.4316  -0.4312  -0.4302
 -0.4297  -0.4293  -0.4290  -0.4280  -0.4279  -0.4276  -0.4275  -0.4273
 -0.4261  -0.4251  -0.4239  -0.4233  -0.4223  -0.4213  -0.4212  -0.4204
 -0.4193  -0.4191  -0.4184  -0.4173  -0.4172  -0.4167  -0.4165  -0.4163
[...]
    1   0.0005464   0.0289283  -0.0035351   0.0327750   0.0139343  -0.0108963
    2   0.0023505   0.0143380  -0.0006858   0.0316634   0.0143943  -0.0364935
    3  -0.0050013   0.0334067   0.0008912  -0.0031501  -0.0291109  -0.0002261
          199         200         201         202         203         204
    1  -0.0010848   0.0104918  -0.0017394   0.0017287   0.0025595  -0.0007549
    2   0.0008242   0.0074694   0.0027677   0.0078476   0.0337151   0.0005459
    3  -0.0005916  -0.0335078   0.0034232   0.0382596  -0.0114412  -0.0014011
          205         206         207         208         209         210
    1  -0.0079381   0.0004181   0.0020477  -0.0744808  -0.0006867  -0.0337758
    2  -0.0030702  -0.0347145  -0.0012548   0.0408911  -0.0169908   0.0279711
    3  -0.0351944   0.0155127  -0.0115801  -0.0739523   0.0041055   0.0139051
          211         212         213         214         215         216
    1   0.0346913  -0.0043892   0.0718566   0.0050068  -0.0369123   0.0093709
    2  -0.0098713   0.0046760   0.0758203  -0.0121603  -0.0277187   0.0076631
    3   0.0374046  -0.0105134  -0.0309356  -0.0073439   0.0115482   0.0132908
          217         218         219         220         221         222
    1   0.0043016  -0.0139852  -0.0041399   0.0761258   0.0033139  -0.0370892
    2   0.0327696  -0.0091255   0.0065400   0.0274711  -0.0021856  -0.0025237
    3   0.0032232   0.0344496   0.0034322   0.0764935   0.0057131  -0.0273048
          223         224         225         226         227         228
    1   0.0196767   0.0250686  -0.0015099  -0.0199910   0.0334154   0.0006381
    2  -0.0066046   0.0192622   0.0019524  -0.0173328  -0.0157017   0.0012007
    3  -0.0012211   0.0212260   0.0057492  -0.0259054  -0.0060800   0.0009704
          229         230         231         232         233         234
    1  -0.0330293   0.0006890   0.0349468  -0.0137139  -0.0210390  -0.0024346
    2   0.0156300   0.0055956  -0.0172277  -0.0117847  -0.0161607   0.0035428
    3   0.0056144   0.0009402  -0.0015449   0.0341611  -0.0265615  -0.0011171
          235         236         237         238         239         240
    1  -0.0007242  -0.0096236   0.0381066   0.0118899   0.0090373  -0.0051127
    2   0.0425676  -0.0112622  -0.0087030   0.0150709   0.0037981   0.0043255
    3   0.0045287   0.0380621  -0.0016553  -0.0301081  -0.0346788   0.0005078
          241         242         243         244         245         246
    1   0.0063523  -0.0054986  -0.0063534  -0.0012495   0.0052613  -0.0402136
    2   0.0361884   0.0010189  -0.0310773   0.0007109   0.0342887  -0.0048623
    3   0.0179933   0.0012244  -0.0152580  -0.0011033   0.0230138   0.0061639
          247         248         249         250         251         252
    1   0.0157459  -0.0024066   0.0037737  -0.0414406  -0.0008321  -0.0072127
    2  -0.0268613  -0.0004907   0.0051237  -0.0046575   0.0385186   0.0077359
    3   0.0212913   0.0029436  -0.0377495   0.0048157   0.0148167  -0.0084121
          253         254         255         256         257         258
    1   0.0244851  -0.0083232  -0.0088318   0.0128459  -0.0026011  -0.0007006
    2  -0.0658342   0.0011492   0.0456662  -0.0167058  -0.0166639   0.0036402
    3  -0.0715720   0.0040652   0.0221982  -0.0010477  -0.0195351   0.0053688
          259         260         261         262         263         264
    1  -0.0018073   0.0138722  -0.0027820  -0.0067429   0.0317460  -0.0000902
    2   0.0271273  -0.0115674   0.0029699   0.0333593   0.0096029   0.0247834
    3   0.0223053   0.0350914   0.0046492  -0.0166466   0.0156299  -0.0097552
          265         266         267         268         269         270
    1  -0.0251256   0.0281040   0.0098533   0.0293192  -0.0068266   0.0062427
    2   0.0104568   0.0014798   0.0020927  -0.0075790   0.0053774   0.0020456
    3  -0.0249266  -0.0199771  -0.0131431   0.0346746   0.0017598  -0.0370635
          271         272         273         274         275         276
    1  -0.0149852  -0.0400197   0.0115984   0.0258496  -0.0430491   0.0038328
    2   0.0364899  -0.0234089  -0.0288925  -0.0051576  -0.0142935   0.0007732
    3  -0.0100819   0.0039707  -0.0198923   0.0385710   0.0151444  -0.0056551
          277         278         279         280         281         282
    1  -0.0291039  -0.0038291   0.0211990  -0.0071128  -0.0213310  -0.0006387
    2  -0.0920200   0.0202667   0.0285528  -0.0118287  -0.0200848   0.0037415
    3  -0.0424227   0.0044778   0.0128858   0.0094531  -0.0181369  -0.0004194
          283         284         285         286         287         288
    1   0.0251464  -0.0116655   0.0203035  -0.0224104  -0.0323523   0.0005136
    2   0.0258462  -0.0234624  -0.0207516   0.0174927  -0.0143316  -0.0002996
    3   0.0151153   0.0285389  -0.0241768   0.0227226   0.0154154  -0.0006275
          289         290         291         292         293         294
    1   0.0261844   0.0019090   0.0334781   0.0073260  -0.0013882  -0.0327645
    2  -0.0063798  -0.0004662   0.0125279  -0.0367834   0.0033915  -0.0144514
    3   0.0278475   0.0017005  -0.0114937   0.0016887   0.0112339   0.0109104
          295         296         297         298         299         300
    1  -0.0045040   0.0358334  -0.0088899   0.0058167   0.0001203  -0.0359841
    2   0.0365992  -0.0237607   0.0035201   0.0364658  -0.0163651  -0.0162700
    3  -0.0014899  -0.0093325  -0.0003802   0.0018321  -0.0347539   0.0154847
          301         302         303         304         305         306
    1  -0.0045119  -0.0238939   0.0000581   0.0350047   0.0005583   0.0254271
    2   0.0385370   0.0075242   0.0009994  -0.0018510   0.0011978  -0.0056509
    3   0.0020282   0.0287766  -0.0006131   0.0157868   0.0002499  -0.0260393
          307         308         309         310         311         312
    1   0.0029141  -0.0028023  -0.0051130   0.0346629   0.0036825  -0.0028489
    2  -0.0318697   0.0029650   0.0000852   0.0091509   0.0002868   0.0203766
    3   0.0173835  -0.0010134   0.0044886  -0.0254322   0.0072920  -0.0427690
          313         314         315         316         317         318
    1   0.0077063  -0.0371837   0.0081953  -0.0337331   0.0002564   0.0058515
    2   0.0057258   0.0189024   0.0043737  -0.0004622   0.0046242  -0.0147364
    3   0.0037950  -0.0075343  -0.0020742   0.0275744  -0.0072272   0.0398641
          319         320         321         322         323         324
    1  -0.0001099  -0.0057037  -0.0024204   0.0254869  -0.0038372   0.0048291
    2   0.0341459   0.0034768  -0.0002515  -0.0288395   0.0019998   0.0076755
    3  -0.0185223   0.0361641  -0.0014228  -0.0037146  -0.0024077  -0.0361873
          325         326         327         328         329         330
    1   0.0006749  -0.0075199  -0.0370841   0.0224335   0.0006344   0.0099719
    2   0.0055572  -0.0081367  -0.0033134  -0.0252968   0.0017411   0.0358977
    3  -0.0023304   0.0370345  -0.0184003  -0.0169858  -0.0031332  -0.0023470
          331         332         333         334         335         336
    1  -0.0368281  -0.0130085  -0.0068282  -0.0256169  -0.0148859   0.0191173
    2   0.0006086  -0.0029279  -0.0027539   0.0941906  -0.0141896  -0.0362200
    3  -0.0224526   0.0371367   0.0072956   0.0481116  -0.0158696   0.0029366
          337         338         339         340         341         342
    1   0.0074172  -0.0085700   0.0010924   0.0064970   0.0195739   0.0021641
    2   0.0094938   0.0236996  -0.0021814  -0.0178782   0.0280403  -0.0063879
    3  -0.0009290   0.0246634   0.0009580  -0.0292330  -0.0059763   0.0025052
          343         344         345         346         347         348
    1   0.0331481  -0.0193644   0.0093704  -0.0792978   0.0907684   0.0029932
    2   0.0038850   0.0099216   0.0030878  -0.0341239  -0.0530196  -0.0074986
    3   0.0076072   0.0305321  -0.0023634   0.0047696  -0.0054794   0.0102802
          349         350         351         352         353         354
    1  -0.0127278  -0.0043752   0.0107153  -0.0092047   0.0190874  -0.0033890
    2  -0.0781594  -0.0039356   0.0336506  -0.0000539  -0.0167204  -0.0047574
    3  -0.0721669   0.0046223   0.0285514  -0.0150172  -0.0219519  -0.0001407
          355         356         357         358         359         360
    1  -0.0121500  -0.0000140  -0.0004485   0.0031374  -0.0292967  -0.0136016
    2   0.0041312  -0.0367642   0.0017276   0.0383887  -0.0047091  -0.0455195
    3  -0.0349536   0.0022444  -0.0076676   0.0078977  -0.0113328   0.0068238
          361         362         363         364         365         366
    1   0.0035032  -0.0300074   0.0149523   0.0258885   0.0021223   0.0607196
    2   0.0065666   0.0217187  -0.0208580   0.0262763  -0.0069731   0.0516186
    3   0.0111331   0.0108323   0.0309559  -0.0133841   0.0082471   0.0760028
          367         368         369         370         371         372
    1   0.0012081  -0.0352469   0.0064865   0.0303241   0.0002729  -0.0298174
    2  -0.0069867  -0.0237123   0.0148604   0.0046848  -0.0012368  -0.0130235
    3  -0.0061829  -0.0255525  -0.0064620   0.0188171  -0.0028677  -0.0177985
          373         374         375         376         377         378
    1  -0.0014553   0.0308234   0.0073341  -0.0298972  -0.0021333  -0.0042740
    2  -0.0022132   0.0173224   0.0043886   0.0241735  -0.0003185  -0.0369238
    3   0.0001367   0.0173286  -0.0368131   0.0055905   0.0009381   0.0088570
          379         380         381         382         383         384
    1   0.0072074   0.0337746   0.0046068  -0.1052511  -0.0052260   0.0440078
    2  -0.0000197   0.0097508  -0.0107766  -0.0162479   0.0012550   0.0008461
    3  -0.0374542   0.0167985  -0.0054273  -0.0266060  -0.0046337   0.0137072
          385         386         387         388         389         390
    1  -0.0172573  -0.0309434   0.0026933   0.0188655   0.0190169  -0.0039730
    2   0.0111558  -0.0098089  -0.0037772  -0.0257969   0.0288951   0.0029052
    3   0.0057011  -0.0108360   0.0018722   0.0185528   0.0121395   0.0036935
          391         392         393         394         395         396
    1   0.0199465   0.0134024   0.0021057  -0.0328579   0.0025330   0.0043770
    2  -0.0087110   0.0421425  -0.0024835   0.0258610  -0.0234983  -0.0083599
    3  -0.0086935   0.0046307  -0.0019382   0.0206412  -0.0048797  -0.0025474
          397         398         399         400         401         402
    1  -0.0363408   0.0045937  -0.0301252   0.0014846   0.0049494  -0.0061148
    2   0.0097399   0.0045843  -0.0286992   0.0061071  -0.0417843  -0.0022520
    3   0.0184783   0.0003859   0.0092057   0.0024605  -0.0080087   0.0038264
          403         404         405         406         407         408
    1   0.0363010  -0.0001617   0.0039124   0.0036576   0.0006964   0.0333122
    2  -0.0147892  -0.0018744   0.0302890   0.0381673  -0.0015569  -0.0105576
    3  -0.0185287   0.0012355  -0.0178234  -0.0044905  -0.0047160   0.0137926
          409         410         411         412         413         414
    1   0.0110647  -0.0012247   0.0014626  -0.0049380  -0.0419150  -0.0020395
    2  -0.0046948  -0.0370940   0.0136303   0.0210484  -0.0256676  -0.0164255
    3   0.0070211   0.0062558   0.0328381  -0.0349427   0.0377776  -0.0355448
          415         416         417         418         419         420
    1   0.0344443  -0.0015610  -0.0003264  -0.0038648   0.0003677   0.0069836
    2  -0.0042403  -0.0005562   0.0289377  -0.0035513   0.0318198  -0.0243878
    3  -0.0167654  -0.0030463   0.0253336  -0.0000455  -0.0201706  -0.0286864
          421         422         423         424         425         426
    1   0.0006329  -0.0014331  -0.0004414  -0.0013445  -0.0361554   0.0216214
    2  -0.0002437  -0.0324239  -0.0046771   0.0340239  -0.0062099   0.0032262
    3  -0.0030923   0.0164933  -0.0037603  -0.0182951   0.0113204   0.0299408
          427         428         429         430         431         432
    1  -0.0005539   0.0067973  -0.0398607  -0.0043899  -0.0025377   0.0330601
    2  -0.0020470  -0.0307709  -0.0084229   0.0309864  -0.0331143   0.0157543
    3   0.0019153  -0.0287243   0.0086197  -0.0232952   0.0196713  -0.0119775
          433         434         435         436         437         438
    1  -0.0025599  -0.0228862   0.0011823   0.0213096   0.0039615  -0.0238089
    2  -0.0016604   0.0313530   0.0017386  -0.0262019   0.0014032   0.0334064
    3  -0.0037904   0.0062550  -0.0011447  -0.0038000  -0.0057010   0.0006979
          439         440         441         442         443         444
    1  -0.0187071   0.0035824  -0.0014942   0.0324573  -0.0175455  -0.0261863
    2  -0.0240738  -0.0146626   0.0007187   0.0145072  -0.0205866   0.0336078
    3  -0.0240666   0.0349804   0.0016443  -0.0176975  -0.0294335  -0.0047560
          445         446         447         448         449         450
    1   0.0062670   0.0340696   0.0006918   0.0087509  -0.0033686  -0.0051670
    2  -0.0134453  -0.0157269   0.0035951   0.0392805  -0.0001448  -0.0373705
    3   0.0343622   0.0088467   0.0027652  -0.0015874   0.0054976   0.0011080
          451         452         453         454         455         456
    1  -0.0365885  -0.0086427   0.0388738  -0.0496916  -0.0131267  -0.0194731
    2   0.0141519   0.0138666   0.1123682  -0.0975559   0.0004415  -0.0054442
    3  -0.0024815   0.0273803   0.0010423   0.0092462   0.0116019   0.0342928
          457         458         459         460         461         462
    1  -0.0062235   0.0005252  -0.0285778  -0.0007925   0.0251655   0.0040325
    2   0.0366148  -0.0007394  -0.0074005  -0.0021010   0.0040038  -0.0360831
    3   0.0105540   0.0000297  -0.0243866   0.0017602   0.0268871  -0.0069912
          463         464         465         466         467         468
    1  -0.0106981  -0.0272941  -0.0020546   0.0286354  -0.0002519   0.0014356
    2   0.0012519  -0.0051257   0.0353254  -0.0274758   0.0067626   0.0349199
    3   0.0056861  -0.0261253   0.0079530   0.0182314  -0.0084960   0.0060394
          469         470         471         472         473         474
    1   0.0275442  -0.0371944  -0.0107499  -0.0360641   0.0001885   0.0135097
    2  -0.0127361  -0.0088871  -0.0192813  -0.0113417   0.0018358  -0.0229545
    3  -0.0250637  -0.0171923   0.0314847  -0.0043276  -0.0018131   0.0279021
          475         476         477         478         479         480
    1  -0.0015962   0.0017362  -0.0177901  -0.0038185   0.0165194   0.0189198
    2   0.0006851  -0.0336470   0.0202999  -0.0114945  -0.0166667  -0.0116631
    3  -0.0007458  -0.0166897  -0.0264785  -0.0034160   0.0295942  -0.0281833
          481         482         483         484         485         486
    1  -0.0131385   0.0024123  -0.0258476   0.0044101   0.0280242  -0.0052673
    2   0.0251431   0.0074828  -0.0061921   0.0448258  -0.0088783   0.0363844
    3   0.0361234  -0.0133304  -0.0313793  -0.0070984  -0.0123204   0.0141713
          487         488         489         490         491         492
    1  -0.0335260  -0.0015494   0.0127885   0.0007688  -0.0117834   0.0398516
    2  -0.0094006   0.0006742  -0.0299152   0.0059235   0.0288471   0.0117509
    3  -0.0082330  -0.0035884   0.0184609  -0.0094307  -0.0316294   0.0014145
          493         494         495         496         497         498
    1   0.0100348  -0.0091622  -0.0966456   0.0035666   0.0354801  -0.0043392
    2  -0.0253839  -0.0068630   0.0587796   0.0156095  -0.0269181   0.0095274
    3  -0.0236580  -0.0097122  -0.0047279  -0.0165193  -0.0025023   0.0151841
          499         500         501         502         503         504
    1  -0.0316943   0.0006214   0.0353974   0.0008570  -0.0034914  -0.0077858
    2   0.0121564   0.0009836  -0.0090941   0.0218313  -0.0015015   0.0059953
    3  -0.0053036   0.0000115   0.0083162   0.0297686  -0.0026039   0.0019725
          505         506         507         508         509         510
    1   0.0394279  -0.0005105   0.0113386   0.0219621  -0.1111523   0.0138926
    2  -0.0091290   0.0090116  -0.0350655   0.0219187   0.0167322  -0.0418749
    3  -0.0100241   0.0032356  -0.0156026   0.0028943   0.0373911  -0.0241213
          511         512         513         514         515         516
    1   0.0051805  -0.0404344   0.0030915  -0.0101448  -0.0005608   0.0796931
    2   0.0014274   0.0087025  -0.0069796   0.0386578  -0.0084498   0.0022576
    3  -0.0018386   0.0100583  -0.0043705   0.0145191   0.0051344   0.0815003
          517         518         519         520         521         522
    1  -0.0067235  -0.0295474   0.0140278   0.0176000   0.0003188   0.0263235
    2   0.0078269  -0.0095494   0.0121249   0.0027341  -0.0016255   0.0253343
    3   0.0091527  -0.0366021  -0.0029984   0.0301838   0.0015132  -0.0050664
          523         524         525         526         527         528
    1   0.0222589  -0.0025354   0.0113513  -0.0002223  -0.0039834  -0.0226549
    2  -0.0268254  -0.0045695   0.0079761  -0.0402993  -0.0127948  -0.0375815
    3   0.0068920  -0.0046866   0.0109345   0.0188409  -0.0117050  -0.0298330
          529         530         531         532         533         534
    1   0.0054075   0.0041400  -0.0184472   0.0028131  -0.0100417  -0.0003251
    2   0.0162735   0.0037881  -0.0254465  -0.0070513   0.0164268  -0.0095077
    3  -0.0051629   0.0001456  -0.0312815   0.0061258  -0.0349367   0.0022402
          535         536         537         538         539         540
    1   0.0091571  -0.0034870   0.0206782   0.0008318  -0.0175905  -0.0013749
    2   0.0377245  -0.0028904   0.0218173  -0.0019356   0.0308248   0.0054730
    3  -0.0060358  -0.0100200   0.0280842  -0.0029166  -0.0051532   0.0374315
          541         542         543         544         545         546
    1  -0.0012490  -0.0291965   0.0005202  -0.0315334   0.0252287  -0.0009133
    2   0.0008520  -0.0250691  -0.0020571   0.0199757   0.0238878   0.0006546
    3  -0.0018416  -0.0063329  -0.0044666   0.0053180   0.0113119   0.0014939
          547         548         549         550         551         552
    1   0.0304697   0.0030141  -0.0351666  -0.0010657  -0.0059985   0.0000562
    2  -0.0191939   0.0003314   0.0164132  -0.0044609  -0.0366719  -0.0054608
    3  -0.0047469  -0.0004269   0.0044708  -0.0391176   0.0134644  -0.0010235
          553         554         555         556         557         558
    1   0.0296811   0.0060311  -0.0318149   0.0309093   0.0732881  -0.0247555
    2   0.0204932  -0.0063075   0.0227717  -0.0228859   0.0261501  -0.0439410
    3   0.0125975  -0.0376708   0.0012676  -0.0052667  -0.0664154   0.0133488
          559         560         561         562         563         564
    1  -0.0081701  -0.0460587   0.0467496  -0.0212682   0.0094518   0.0100501
    2   0.0405594  -0.0293487   0.0242343  -0.0055559   0.0902260  -0.0443747
    3   0.0382355  -0.0917729   0.0136673   0.0529480  -0.0514141  -0.0170611
          565         566         567         568         569         570
    1  -0.0152460   0.0580643  -0.0496033   0.0182133   0.0987935  -0.0344252
    2  -0.0083973  -0.0754185   0.0105019   0.0300630   0.0193832   0.0259261
    3   0.0559268  -0.0618907  -0.0035319   0.0409732  -0.0442311   0.0183440
          571         572         573         574
    1  -0.0137018   0.0924422  -0.0457687  -0.0049200
    2  -0.0500196  -0.0314591  -0.0308637   0.0489969
    3   0.0217283  -0.0438123   0.0001220   0.0213509
  --- DONE ESP SUMMARY ---
 Total job time:  45.75s(wall), 479.03s(cpu) 
 Fri Aug  9 16:26:27 2024

        *************************************************************
        *                                                           *
        *  Thank you very much for using Q-Chem.  Have a nice day.  *
        *                                                           *
        *************************************************************


