
Running Job 1 of 2 cutoff7_elecfield_dft.in
qchem cutoff7_elecfield_dft.in_808856.0 /media/work/klemlab/arkanil/qchem_scratch/qchem808856/ 1
/home/klemlab/Desktop/software/QChem/exe/qcprog.exe_s cutoff7_elecfield_dft.in_808856.0 /media/work/klemlab/arkanil/qchem_scratch/qchem808856/
                  Welcome to Q-Chem
     A Quantum Leap Into The Future Of Chemistry


 Q-Chem 6.4, Q-Chem, Inc., Pleasanton, CA (2025)

 E. Epifanovsky,  A. T. B. Gilbert,  Xintian Feng,  Joonho Lee,  Yuezhi Mao,  
 N. Mardirossian,  P. Pokhilko,  A. White,  M. Wormit,  M. P. Coons,  
 A. L. Dempwolff,  Zhengting Gan,  D. Hait,  P. R. Horn,  L. D. Jacobson,  
 I. Kaliman,  J. Kussmann,  A. W. Lange,  Ka Un Lao,  D. S. Levine,  Jie Liu,  
 S. C. McKenzie,  A. F. Morrison,  K. D. Nanda,  F. Plasser,  D. R. Rehn,  
 M. L. Vidal,  Zhi-Qiang You,  Ying Zhu,  Huseyin Aksu,  B. Alam,  
 B. Albrecht,  A. Aldossary,  E. Alguire,  J. H. Andersen,  
 J. E. Arias-Martinez,  V. Athavale,  F. Ballesteros,  D. Barton,  K. Begam,  
 A. Behn,  N. Bellonzi,  Y. A. Bernard,  E. J. Berquist,  H. Burton,  
 S. Camps,  A. Carreras,  K. Carter-Fenk,  Mathew Chow,  Jeng-Da Chai,  
 Arnab Chakraborty,  Romit Chakraborty,  Chandrima Chakravarty,  Junhan Chen,  
 A. D. Chien,  K. D. Closser,  V. Cofer-Shabica,  L. Cunha,  S. Dasgupta,  
 Jia Deng,  Joseph Dickinson,  M. de Wergifosse,  M. Diedenhofen,  
 L. B. Dittmer,  Hainam Do,  Wenjie Dou,  S. Ehlert,  Po-Tung Fang,  
 Anthuan Ferino-Pérez,  S. Fatehi,  Qingguo Feng,  Jonathan Fetherolf,  
 T. Friedhoff,  Thomas Froitzheim,  Sarai Folkestad,  B. Ganoe,  J. Gayvert,  
 Qinghui Ge,  G. Gidofalvi,  M. Gimferrer,  G. Giudetti,  M. Goldey,  
 Montgomery Gray,  J. Gomes,  C. Gonzalez-Espinoza,  S. Gulania,  A. Gunina,  
 J. A. Gyamfi,  M. W. D. Hanson-Heine,  P. H. P. Harbach,  A. W. Hauser,  
 M. F. Herbst,  M. Hernandez Vera,  M. Hodecker,  Z. C. Holden,  S. Houck,  
 Xunkun Huang,  Kerwin Hui,  B. C. Huynh,  K. Ikeda,  M. Ivanov,  
 Nayanthara K. Jayadev,  Hyunjun Ji,  Zuxin Jin,  Hanjie Jiang,  
 Subrata Jana,  B. Kaduk,  S. Kaehler,  Richard Kang,  K. Khistyaev,  
 Jaehoon Kim,  Yongbin Kim,  P. Klunzinger,  Z. Koczor-Benda,  
 Joong Hoon Koh,  Elena Kolodzeiski,  D. Kosenkov,  Saikiran Kotaru,  
 L. Koulias,  T. Kowalczyk,  C. M. Krauter,  K. Kue,  A. Kunitsa,  T. Kus,  
 A. Landau,  C. W. Lander,  K. V. Lawler,  D. Lefrancois,  S. Lehtola,  
 Rain Li,  Shaozhi Li,  Tao E. Li,  Yi-Pei Li,  Jiashu Liang,  M. Liebenthal,  
 Hung-Hsuan Lin,  You-Sheng Lin,  Fenglai Liu,  Kuan-Yu Liu,  Xiao Liu,  
 M. Loipersberger,  A. Luenser,  C. Malbon,  Aniket Mandal,  Manisha,  
 A. Manjanath,  P. Manohar,  E. Mansoor,  S. F. Manzer,  Shan-Ping Mao,  
 A. V. Marenich,  T. Markovich,  S. Mason,  F. Matz,  S. A. Maurer,  
 Samuel May,  Alexandra McIsaac,  P. F. McLaughlin,  M. F. S. J. Menger,  
 J.-M. Mewes,  S. A. Mewes,  R. E. Moorby,  P. Morgante,  
 Mohammad Mostafanejad,  Madhubani Mukherjee,  J. W. Mullinax,  Quyen Nguyen,  
 Avik Kumar Ojha,  K. J. Oosterbaan,  Eno Paenurk,  Xiaoliang Pan,  G. Paran,  
 V. Parravicini,  R. L. Patterson,  Alexander C. Paul,  Suranjan K. Paul,  
 F. Pavosevic,  Zheng Pei,  P. Pokhilko,  S. Prager,  E. I. Proynov,  
 E. Ramos,  B. Rana,  A. E. Rask,  A. Rettig,  R. M. Richard,  F. Rob,  
 E. Rossomme,  S. Roy,  T. Scheele,  M. Scheurer,  M. Schneider,  
 P. E. Schneider,  Tim K. Schramm,  N. Sergueev,  S. M. Sharada,  
 Hengyuan Shen,  W. Skomorowski,  D. W. Small,  C. J. Stein,  
 Alistair J. Sterling,  Yingli Su,  Yu-Chuan Su,  E. J. Sundstrom,  
 J. Talbot,  J. A. Tan,  Zhen Tao,  Hung-Hsuan Teh,  J. Thirman,  C. Titeca,  
 N. Tkachenko,  Hung-Yi Tsai,  T. Tsuchimochi,  N. M. Tubman,  C. Utku,  
 S. P. Veccham,  O. Vydrov,  Z. Wang,  Markus G. S. Weiss,  Rahel Weiss,  
 J. Wenzel,  Jonathan Wong,  J. Witte,  H. Wu,  Yanze Wu,  A. Yamada,  
 Chou-Hsun Yang,  Kun Yao,  S. Yeganeh,  S. R. Yost,  Qi Yu,  A. Zech,  
 F. Zeller,  Chongxiao Zhao,  T. Zhao,  Igor Ying Zhang,  Xing Zhang,  
 Yu Zhang,  Zeyi Zhang,  D. Zuev,  A. Aspuru-Guzik,  A. T. Bell,  
 N. A. Besley,  K. B. Bravaya,  B. R. Brooks,  D. Casanova,  Jeng-Da Chai,  
 Hsing-Ta Chen,  S. Coriani,  C. J. Cramer,  A. E. DePrince, III,  
 R. A. DiStasio Jr.,  A. Dreuw,  B. D. Dunietz,  T. R. Furlani,  
 W. A. Goddard III,  S. Grimme,  S. Hammes-Schiffer,  T. Head-Gordon,  
 W. J. Hehre,  Chao-Ping Hsu,  T.-C. Jagau,  Yousung Jung,  A. Klamt,  
 Jing Kong,  D. S. Lambrecht,  Xiangyuan Li,  WanZhen Liang,  N. J. Mayhall,  
 C. W. McCurdy,  J. B. Neaton,  T. Neudecker,  C. Ochsenfeld,  
 J. A. Parkhill,  R. Peverati,  V. A. Rassolov,  Haisheng Ren,  Yihan Shao,  
 L. V. Slipchenko,  R. P. Steele,  J. E. Subotnik,  A. J. W. Thom,  
 A. Tkatchenko,  D. G. Truhlar,  T. Van Voorhis,  Fan Wang,  
 T. A. Wesolowski,  K. B. Whaley,  H. L. Woodcock III,  P. M. Zimmerman,  
 S. Faraji,  P. M. W. Gill,  M. Head-Gordon,  J. M. Herbert,  A. I. Krylov

 Contributors to earlier versions of Q-Chem not listed above: 
 R. D. Adamson,  B. Austin,  R. Baer,  J. Baker,  G. J. O. Beran,  
 K. Brandhorst,  S. T. Brown,  E. F. C. Byrd,  Arup K. Chakraborty,  
 G. K. L. Chan,  Chun-Min Chang,  Yunqing Chen,  C.-L. Cheng,  
 Siu Hung Chien,  D. M. Chipman,  D. L. Crittenden,  H. Dachsel,  
 R. J. Doerksen,  A. D. Dutoi,  R. G. Edgar,  J. Fosso-Tande,  
 L. Fusti-Molnar,  D. Ghosh,  A. Ghysels,  A. Golubeva-Zadorozhnaya,  
 J. Gonthier,  M. S. Gordon,  S. R. Gwaltney,  G. Hawkins,  J. E. Herr,  
 A. Heyden,  S. Hirata,  E. G. Hohenstein,  G. Kedziora,  F. J. Keil,  
 C. Kelley,  Jihan Kim,  R. A. King,  R. Z. Khaliullin,  P. P. Korambath,  
 W. Kurlancheek,  A. Laurent,  A. M. Lee,  M. S. Lee,  S. V. Levchenko,  
 Ching Yeh Lin,  D. Liotard,  E. Livshits,  R. C. Lochan,  I. Lotan,  
 L. A. Martinez-Martinez,  P. E. Maslen,  N. Nair,  D. P. O'Neill,  
 D. Neuhauser,  E. Neuscamman,  C. M. Oana,  R. Olivares-Amaya,  R. Olson,  
 T. M. Perrine,  B. Peters,  P. A. Pieniazek,  A. Prociuk,  Y. M. Rhee,  
 J. Ritchie,  M. A. Rohrdanz,  E. Rosta,  N. J. Russ,  H. F. Schaefer III,  
 M. W. Schmidt,  N. E. Schultz,  S. Sharma,  N. Shenvi,  C. D. Sherrill,  
 A. C. Simmonett,  A. Sodt,  T. Stein,  D. Stuck,  K. S. Thanthiriwatte,  
 V. Vanovschi,  L. Vogt,  Tao Wang,  A. Warshel,  M. A. Watson,  
 C. F. Williams,  Q. Wu,  X. Xu,  Jun Yang,  W. Zhang,  Yan Zhao

   Please cite Q-Chem as follows:
  "Software for the frontiers of quantum chemistry:
   An overview of developments in the Q-Chem 5 package"
   J. Chem. Phys. 155, 084801 (2021)
   https://doi.org/10.1063/5.0055522 (open access)

 Q-Chem 6.4.0 for Intel X86 EM64T Linux

 Parts of Q-Chem use Armadillo 12.8.2 (Cortisol Injector).
 http://arma.sourceforge.net/

 Q-Chem begins on Sat May  2 13:48:59 2026  

 Host: 
0

 Scratch files written to /media/work/klemlab/arkanil/qchem_scratch/qchem808856//
 Executable: /home/klemlab/Desktop/software/QChem/exe/qcprog.exe_s
 Number of threads = 3
 Dec1625 |scratch|qcdevops|jenkins|workspace|build_RNUM -1
 Processing $rem in /home/klemlab/Desktop/software/QChem/config/preferences:
 Processing $rem in /home/klemlab/.qchemrc:
 No nuclear gradient supported for projection-based embedding or EMFT. Set max ideriv = 0.

 Checking the input file for inconsistencies... 	...done.

--------------------------------------------------------------
User input:
--------------------------------------------------------------
$molecule
-2 1
--
0 1
C          -1.80720059426198      1.62571445315209     -1.27796969275234
O          -2.43588640960771      1.85998758346657     -2.31026662895559
C          -1.80255622463393      0.35311419337500     -0.61444936103676
C          -0.98622716220508      0.04812297153532      0.41796034336240
C           0.05252152341915      1.00946271583027      0.92543264334870
C           0.30878264949696      2.12811497452964     -0.08847855861246
C          -1.00111014821440      2.70316066068156     -0.60521384734171
C          -1.16158820903088     -1.22017832646746      1.16245918013775
C           0.13614630010327     -1.86076353382631      1.64219128417091
C           1.01627050255281     -0.82668542383662      2.33614502841055
C           1.35409119320874      0.28161222373149      1.32634619760880
C           2.30607419129048     -1.45009343503824      2.84861470830770
C           3.25553868923429     -0.42872021513188      3.49341361120727
C           3.65124203512576      0.58854635362051      2.42798321649647
C           2.40023101514941      1.26829255148996      1.86481842934292
C           2.21181104610334     -2.55319698139346      3.90184464213503
C           3.64590263180098     -2.63892137755173      4.45264834774470
C           4.38729603433207     -1.37476021451728      3.94922797266615
C           2.66294574708501      0.28800194727508      4.71291429430789
O           5.28381103325156     -0.83856961287999      4.89948093624972
H          -2.52821473536733     -0.37275644714902     -0.95687505512822
H          -0.37202753525065      1.44702572582834      1.83911230313428
H           0.88157034840638      1.72948954210510     -0.93047339447115
H           0.89504295945791      2.92850746880272      0.36463120985626
H          -1.60159918352257      3.07277686055900      0.23029320809004
H          -0.83915817644177      3.53138004130502     -1.29564419093332
H          -1.74681554423024     -1.93229796331589      0.57990716667081
H          -1.77051569493250     -0.96498455231547      2.04258113683259
H           0.67608229552207     -2.29199438534194      0.79319039274001
H          -0.10105512616299     -2.67167839642127      2.32870301310146
H           0.44935900153255     -0.39795240591307      3.16447018750062
H           1.77019325912353     -0.19725639570178      0.43095000540689
H           2.83727591948752     -1.86751662870808      1.98275151665737
H           4.19309804778405      0.08195329064770      1.62554335241055
H           4.31315099980734      1.34856736226929      2.84811602045936
H           1.94834865992690      1.87665331775385      2.64824305698770
H           2.71692698768021      1.93563074829788      1.06167625444653
H           1.88496986820178     -3.50278850906922      3.48440119365989
H           1.50191290728597     -2.27073123956533      4.67812516679730
H           4.14608335901685     -3.53818460613682      4.09721588211010
H           3.66117838114566     -2.66558430145209      5.54378753358209
H           5.01484421431997     -1.62244991955808      3.08845951288898
H           2.55976032090881     -0.38577614995228      5.56067892867263
H           3.30670662075621      1.12060319831903      4.99481591555173
H           1.67979234483309      0.68851479537732      4.49422322277712
H           4.76376061556507     -0.53165945625042      5.65221085397355
--
-2 1
H          -3.38155651961111      8.43094947094696     -7.63245752355648
C          -3.25900002289631      8.10499999982743     -6.59700001294756
H          -3.30208908481654      8.97921601806633     -5.94644332017844
C          -4.38163038888657      7.12323381969766     -6.22459081327494
H          -5.33170789670096      7.66368339172672     -6.25056129627692
H          -4.43528228553728      6.32706025940141     -6.97132549480657
C          -4.18472899292249      6.50662677522129     -4.86464756902900
C          -4.56950147072912      7.16276845364034     -3.70441311562469
H          -4.98259490584138      8.16085932825356     -3.76909645487986
C          -4.43963883315771      6.55934167098574     -2.46280602286130
H          -4.73917513096811      7.08767467834428     -1.56690397256745
C          -3.90624340058290      5.27791262570485     -2.35894191557429
O          -3.78481382517330      4.61870775945027     -1.18711756805083
H          -4.30172085146973      5.03026985695581     -0.47695653260879
C          -3.47227460829636      4.63257518591418     -3.51553033758612
H          -3.04663773958323      3.64787124753643     -3.41976989989072
C          -3.61596756009669      5.24344054960200     -4.74170223718406
H          -3.28837302443348      4.72004661726161     -5.62527089303847
C          -1.86957334517912      7.49620064724814     -6.41918175337256
O          -1.05971434306132      7.95427261062250     -5.63516803511777
N          -1.59110826771191      6.42622223969171     -7.19080464687733
H          -2.25332421458319      6.10244947486055     -7.87657877941582
C          -0.29300000114465      5.77199999854427     -7.14700000234367
H          -0.02338238798296      5.64498841212428     -6.09606882605386
C          -0.27812837105990      4.43166142723546     -7.88267494527877
H          -0.65069290201656      4.60529408208181     -8.90135204285660
C           1.16393433294865      3.93637471136778     -7.98640250793856
H           1.61192698890863      3.85427525324763     -7.00095062949873
H           1.19226823683463      2.95859336386559     -8.46034178684971
H           1.76442834208710      4.62366955714693     -8.57884150942950
C          -1.18997163809525      3.37330956842614     -7.24407018245674
H          -2.21857827039820      3.73761512273387     -7.26836304106497
H          -1.16166185086812      2.48019632958937     -7.87178909805349
C          -0.83064699048725      2.98061167394364     -5.81650993343194
H          -0.86947911286107      3.83677742669001     -5.14938433048556
H          -1.53493960494032      2.23814339325242     -5.45016476517933
H           0.16113564316820      2.54059844704945     -5.76793566537060
H           0.45236368370803      6.43972777240676     -7.59998439600948
H           1.36582119311083      8.17994452867509     -3.70089604995366
C           1.82900000214210      7.51300000892819     -2.97200001075967
H           1.59797504474051      7.87318551911641     -1.96887414945245
C           1.26177412797402      6.09558341371456     -3.15424153177302
H           1.49270077806440      5.75695621468557     -4.17133968174918
C           1.89743486982541      5.11838615504479     -2.16903562025992
H           1.64409120266699      5.39678267045649     -1.14979826516902
H           1.53949793399871      4.10801195829989     -2.35368450884094
H           2.98069859226913      5.12446068990132     -2.26128068672195
C          -0.25489172553834      6.12157787268146     -2.98900968387528
H          -0.70501353159572      6.80779193364388     -3.70172424691635
H          -0.67654058227443      5.13162259627290     -3.14794995533239
H          -0.52417185997780      6.44514942143097     -1.98617177318569
C           3.34253820816202      7.53323938485420     -3.14269581983596
O           4.12237591616617      7.74936645283064     -2.22734308151403
N           3.76429108924610      7.25493290722449     -4.38904304809186
H           3.08584890890454      7.17718327291330     -5.12946150618060
C           5.17099995359807      7.16400003177761     -4.76199999341678
H           5.66608956325413      6.48173027776234     -4.06355330997673
C           5.31020199667020      6.66359162744106     -6.19313627018791
H           4.86468279926073      5.67531042104252     -6.31059658109621
H           4.84484413663902      7.36870568332600     -6.88331606215419
C           6.82495491967040      6.61250823494328     -6.46586803814654
O           7.43309484429860      5.55748419663638     -6.21919523067651
O           7.33717449130164      7.68768748893493     -6.85103350257531
H           5.64289954006838      8.14752392487591     -4.67451083135183
H          -2.91176720497756     12.21143107022120     -1.28480788941388
C          -3.81400001053735     11.63099999722559     -1.10599999855682
H          -4.18788288406851     11.27738299683557     -2.06468311625013
C          -3.52282238032644     10.44674738240765     -0.18530528327440
H          -3.12100020970418     10.83307619975137      0.75917251519563
C          -4.81632076793725      9.69285815499636      0.11482734070642
H          -5.25590911123032      9.31316455381604     -0.80487401126200
H          -4.63253981484108      8.85831752851917      0.78608617921513
H          -5.54383058760097     10.35093593476107      0.58638829303917
C          -2.46513551581626      9.53519762416688     -0.81841571722929
H          -2.89041337957837      9.02942717905666     -1.68742982299190
H          -1.64019939898908     10.15651954238303     -1.17426473759208
C          -1.90567429039452      8.49772515675193      0.14706995837907
H          -2.66455265662668      7.78335176383963      0.45375399705092
H          -1.09733086406335      7.94705910997821     -0.32628777331585
H          -1.51301320349727      8.98023152502346      1.03983476193528
H          -4.56299493149939     12.28608220828363     -0.66520415775190
H         -10.64267328969406     10.66097563834888     -1.50468128564294
C         -10.79600016638121     10.65900009872516     -0.42799998454577
H         -11.49230352565024      9.85971930042469     -0.18425513760057
C          -9.46763623305501     10.44284756893932      0.30018504794805
H          -8.78805821142704     11.26277332906237      0.05454495971318
H          -9.64124694035037     10.45562661794793      1.37791245428893
C          -8.84468247674897      9.13517005840889     -0.09981964519609
C          -8.18292350010902      9.01970746433622     -1.31525262721500
H          -8.09531048304665      9.88383000582327     -1.95829864769525
C          -7.62957491403257      7.81930930059527     -1.71626821039184
H          -7.12511279432093      7.73862780743323     -2.66886661332212
C          -7.72226295504891      6.70294293425032     -0.89440974198647
O          -7.16865225723351      5.50671501694098     -1.23489161964072
H          -6.63222708109301      5.60462970084927     -2.03502735053337
C          -8.39539680264972      6.80191484444442      0.31913245606583
H          -8.49553088438534      5.92340314871233      0.93881583809176
C          -8.95141925984287      8.00717304632544      0.70324203011676
H          -9.47465929009520      8.06803955334595      1.64664143146007
H         -11.24067616467981     11.60845104016112     -0.13785034482001
H         -11.11046810116090      2.57742464368652      4.36296182112428
C         -10.13500000469795      2.28899999092449      3.96400000097331
H         -10.24335261131003      2.06859036863253      2.90278576859476
C          -9.12969135630200      3.42034904882155      4.19220495671214
H          -9.00215935338979      3.54106199733574      5.27341613958478
C          -7.77578742217989      3.06270306159163      3.58471173258719
H          -7.87036361241139      2.86951922205701      2.51870765538584
H          -7.05657425211732      3.86725108175071      3.73698094264409
H          -7.38202355906929      2.16553525726992      4.05375027614345
C          -9.65852362794067      4.72776295497390      3.60415379194020
H         -10.59863796912600      5.01076847953071      4.07335260035614
H          -8.94352794188402      5.53589725935080      3.75709553917436
H          -9.83561168238017      4.61576554038439      2.53522826781377
C          -9.70929436698470      1.01529686073551      4.70607004980400
O          -9.30386571851145      1.04239588282932      5.85828729257628
N          -9.83606887754003     -0.11482222613836      3.99291972340753
H         -10.15666385632261     -0.06976079444233      3.03131877609672
C          -9.62600005877768     -1.45099997997706      4.53199997902439
H          -9.53113305682229     -1.35206683061135      5.61798686241045
C         -10.79901217257252     -2.36515146855647      4.15356924743902
H         -10.85534668087594     -2.39184938517616      3.06160245127450
H         -10.56799702267902     -3.37159813411352      4.51268066592083
C         -12.15450518520711     -1.92365363518159      4.69272175047634
H         -12.22779045046445     -2.09868902282049      5.76723253290313
H         -12.30548521136313     -0.86136766384222      4.48703156779434
C         -13.28606649158023     -2.71872407023816      3.95400201100195
O         -13.37100113204294     -2.47306119177538      2.72373231155094
O         -13.97436129037359     -3.50466880114472      4.60217220205544
C          -8.33783412941919     -2.01175444314226      3.92601341657065
O          -8.29857334113491     -2.46898575644311      2.79059126379266
N          -7.26888530150076     -1.94817469789683      4.72865493199990
H          -7.34331749767235     -1.48233316665134      5.62138755258871
C          -5.92299998838494     -2.18200000161278      4.24600000371867
H          -6.00451078625920     -2.82428297782624      3.36971820348405
C          -5.29733843447996     -0.83589258898449      3.85355060310675
H          -5.86365317179619     -0.39255072522424      3.02994880845862
H          -5.34493926114140     -0.15152287467126      4.70359835504187
C          -3.81720073566173     -0.96800439076093      3.42669731173910
O          -3.34610483442918     -2.10937438041273      3.31318810742059
O          -3.20172517053191      0.10182721985936      3.21193035664138
C          -5.07031173523968     -2.81901282652775      5.34164896990670
O          -4.68508979593422     -2.16507548650156      6.30086280695523
N          -4.76018573724788     -4.11536860802621      5.20263268855643
C          -3.99052337635911     -4.79142053672377      6.23317924771414
H          -4.32817087121719     -4.46023684907266      7.21725530162629
H          -2.93141824405985     -4.53475057145564      6.12188958421932
C          -4.23353221372270     -6.27173449926518      5.97114601095342
H          -5.15555087310254     -6.58542433736599      6.46030232936514
H          -3.40837170933905     -6.89526700016420      6.31176807916036
C          -4.41900514746111     -6.31040761236269      4.45716737701532
H          -4.94673938771096     -7.20129058751011      4.11798319029447
H          -3.45216017119204     -6.25535624960762      3.95649624520627
C          -5.22700000138984     -5.03300000055586      4.18399999887720
H          -5.03924010599420     -4.65557851666057      3.17714242078614
C          -6.72068527598749     -5.35526803896826      4.38346456089413
O          -7.22573177594765     -5.40701955702765      5.48949703628281
N          -7.35471039270841     -5.65733867093355      3.24407846792397
H          -6.88455249593498     -5.51304917400451      2.35773833665962
C          -8.71000000594203     -6.15400000278924      3.21900000059473
H          -9.18642922211349     -5.85975299214584      4.15822279430650
C          -9.51567071427449     -5.63196255719242      2.02989874016223
H          -9.60496477199543     -4.54874920684993      2.10985439090815
H          -8.99243521718118     -5.87979113548079      1.10135002671132
C         -10.86515427119623     -6.29405437213597      2.06590216776548
C         -11.94033455113431     -5.68515068343952      2.69382781065906
H         -11.84137869508634     -4.69132181065602      3.09575209215161
C         -13.15521517725017     -6.33594912387994      2.81325557476662
H         -13.96260972012828     -5.83211890897318      3.32364478585804
C         -13.31127970989865     -7.60805321362914      2.29140662342247
H         -14.26011100168073     -8.12083224954631      2.37511383929262
C         -12.24425770325374     -8.22573155973024      1.66025997871050
H         -12.36019867300490     -9.21732008553600      1.24545774917617
C         -11.02732754062095     -7.57741160436582      1.55932739414463
H         -10.19513396856051     -8.06653053359533      1.07205252861714
H          -8.69055313944111     -7.25367379829596      3.18245577484395
H          -3.09972023962915      6.90174054493198      8.82707489327037
C          -2.85000003757626      5.91700004878793      8.42200000724251
H          -2.51372923470018      5.28348613199671      9.24397735558838
C          -4.09853388111455      5.29891599646773      7.77144382275588
H          -4.91278483047388      5.34269472522860      8.49945365180721
H          -4.39981182738091      5.88382243639623      6.89928294750562
C          -3.88612984999182      3.86427719871665      7.36456553995615
C          -3.77660289954604      2.88023195067564      8.34154104480828
H          -3.83231101329106      3.15627990217657      9.38634269425492
C          -3.63120322156180      1.54966848137161      7.98775451668213
H          -3.56506513990466      0.79119055868037      8.75375422048031
C          -3.60451074322094      1.18519985297219      6.65134990517572
H          -3.53908021424636      0.14163057320219      6.38165016123303
C          -3.70253337324113      2.16076497154945      5.67199073491421
H          -3.69255030701058      1.87491642329208      4.63061131763944
C          -3.83074576956192      3.49359835255561      6.02829032824488
H          -3.91089293177638      4.24884106646257      5.25755561707050
C          -1.69830553128312      6.08646142392174      7.45030633722665
O          -0.61526688587085      5.53102988931654      7.61101876696411
N          -1.91912703105978      6.92834067846045      6.43600624973222
H          -2.83595925745343      7.32700732776949      6.31060267059917
C          -0.93299999751581      7.20499999408239      5.40599999984948
H          -0.52286569723024      6.25019166820894      5.06011492789807
C          -1.55732190886204      7.98023851763011      4.25242781754689
H          -1.97727571661321      8.91657997721665      4.62886632764111
H          -0.75852422746232      8.23030905760094      3.55013901772277
C          -2.61817287294480      7.20097910687428      3.52074816492857
C          -3.92790299753703      7.65264590399028      3.46080877698302
H          -4.21348768573108      8.55537725932595      3.98400135353546
C          -4.88169716764710      6.98577786985099      2.70793620371746
H          -5.89621342950839      7.35902489593192      2.65493469262612
C          -4.52311987875821      5.84877381730001      1.99909115322607
O          -5.38191713756693      5.20563539480386      1.16024617829213
H          -6.27981027173085      5.55472924584466      1.23349110972843
C          -3.22429708016847      5.35398725619859      2.09795487698210
H          -2.97572005186684      4.44970474215083      1.56697387753926
C          -2.28660034301596      6.02654858108657      2.85058508091416
H          -1.28184742726344      5.64000958917338      2.91320552789274
H          -0.11385570104797      7.78403616849127      5.84986987043391
H           1.52391887253736      6.58290809939298      9.14769323662502
C           2.42999998276715      6.04599997522475      9.43799999724155
H           3.09313830919753      6.72434770532142      9.97361739459890
C           2.04466942264689      4.85339147374970     10.31986989408128
H           1.61646261641190      4.06368527848972      9.70146970803631
H           2.93663440619168      4.45513775002575     10.80636845230295
C           1.02090791664479      5.26844088105108     11.37824076183660
H           1.43288307566544      6.05511336965562     12.01166029244512
H           0.12392320392289      5.64528065805501     10.88268372298814
C           0.63347166893473      4.09787368180186     12.27133181910741
O           0.93414060200305      4.03856487409012     13.44749631214736
N          -0.09644395765884      3.15316581215525     11.65261758877401
H          -0.32818279376985      2.32055880510289     12.16885058426771
H          -0.25962633009795      3.15318179777853     10.65011417329697
C           3.13188740942915      5.57355735983830      8.16567932346154
O           4.31648616674167      5.77892780810225      7.94809761708437
N           2.32189453095206      4.94085407215814      7.29322262105810
H           1.33513728189064      4.89542112733203      7.51233722369424
C           2.76300000400895      4.06100000030182      6.22300000256682
H           3.11885103729988      3.11104252940854      6.63765791685015
H           1.89586917683931      3.85593611999071      5.58401114694299
C           3.86756506966317      4.59815393750043      5.31632207701509
O           4.69805815320331      3.85717502291897      4.82430951559724
N           3.78622114132736      5.91337595030474      5.04936730875116
H           3.04108662527233      6.44069474994728      5.47795990242535
C           4.61900000620187      6.60900000159439      4.09299999929045
H           5.30811890033544      5.87046378022072      3.67362908163540
C           3.74907713648150      7.23580119308433      2.98797960405586
H           3.21519805372995      8.08585139337226      3.42372374416173
H           4.41364166968936      7.63024175452770      2.21944222286574
C           2.72641758749155      6.28632642154581      2.35499592072973
H           2.07210152313332      5.89655676778908      3.14387633097114
C           1.87038528528809      7.06610954148064      1.35696282887022
H           2.48185862649371      7.40088121282395      0.52209381059828
H           1.06621720348205      6.44149775351710      0.97289542784579
H           1.42326561776340      7.94034936752517      1.82634341072048
C           3.40254481456902      5.10986405132840      1.65824110655351
H           3.92516692623836      4.48090428673138      2.37291982646494
H           2.66140175184581      4.49835124968954      1.14838818362531
H           4.11080115361918      5.46851394083548      0.91580398887609
C           5.43705768636564      7.74650346120476      4.72427084523912
O           6.03376114899908      8.54452243632128      4.02483438425627
N           5.37132508965014      7.83637730642498      6.06366044949561
H           5.01962144833387      7.06101933803680      6.61787607164854
C           6.01099995661022      8.91700002566743      6.77699997882212
H           6.40050835237650      9.61735835534570      6.03939970381630
H           5.28518877098329      9.41981406199144      7.41861970250128
H           6.83132336978034      8.54585013501812      7.39393797705991
H           9.08704262367246      4.60283834689069      0.62825878556719
C           8.47199998713385      3.90100002359674      0.06200000677566
H           8.91413874955358      2.90686032769174      0.10586032654562
C           7.06187668024726      3.85868907602018      0.68341415652932
H           6.57867366082909      4.82657220713192      0.50746532223995
C           6.21596207453615      2.76200029204661      0.04307715189536
H           6.70241229667118      1.79559107514564      0.15078674444128
H           5.24341009036042      2.71043882907985      0.52529183651116
H           6.06225251565433      2.94816146595425     -1.01680721757959
C           7.17865020329501      3.63494878494121      2.18923159601333
H           7.74910535071689      4.43467585494574      2.65685678767762
H           6.19535350020243      3.60529365180329      2.65134643884228
H           7.67875291432240      2.69176848076221      2.39344303115564
C           8.41950955567223      4.37449940210963     -1.36862086423204
O           8.41162246311030      5.58129709507523     -1.64602677389382
N           8.40763682212565      3.43041214139095     -2.30736351648052
H           8.41521570597060      2.45464846660818     -2.01503632261560
C           8.16100000127545      3.67600000540990     -3.71700000003262
H           7.92635146383572      4.73292959896806     -3.85156030317790
C           9.34898174103293      3.27731262883813     -4.60882372983897
H           9.29799490748128      2.20652741168059     -4.81807087289146
H           9.22998541845330      3.81102399979804     -5.55223523314984
C          10.71872442018521      3.56295453730360     -3.99090181159882
H          10.83999204301995      2.96520114854124     -3.08649543444037
H          11.48196782786128      3.24471987518605     -4.70555143059352
C          10.95433365323683      5.03187218888991     -3.62208542991053
H          10.30438125782997      5.33055730163892     -2.80578153199671
H          11.99047433498808      5.14886217500452     -3.28173816666206
N          10.74024314760766      5.91455549310488     -4.74450326666451
H          11.27920983757979      5.68843145432365     -5.56694114493551
C           9.76907814001953      6.83507581274790     -4.91129169745020
N           8.92568711024642      7.13393947966260     -3.94311035308738
H           8.83649390847030      6.59058541246095     -3.08620971291510
H           8.22932236128777      7.86295680975491     -4.05184453198298
N           9.75130990204347      7.53280743322532     -6.04636887098090
H          10.38305859566420      7.21967161456831     -6.76764965227487
H           8.76130201762999      7.75346704972240     -6.43180902865419
C           6.94848688576584      2.82067506275657     -4.11687941138259
O           6.68907213040564      1.78700603351027     -3.50543507718776
N           6.25069139285035      3.27801451822672     -5.14634965725114
H           6.57354171579130      4.14235321029628     -5.60916630806984
C           5.06699999853203      2.58999998626233     -5.63199999663577
H           5.16602694370382      1.52518999994674     -5.41678355271830
C           3.79591052835385      3.12838350081096     -4.97993679839576
H           3.61035924263046      4.15928795539030     -5.27216561323843
H           2.94745633375937      2.51650931744852     -5.27340320123460
H           3.88726599599538      3.09526224470098     -3.89784585204631
H           5.01932156143797      2.72102920028313     -6.71516919885526
H          -6.49145389019890     -1.85437194924223     -9.72798964403871
C          -5.45600002824056     -1.83599998954855    -10.06200001345774
H          -5.41357873964249     -2.22864013574540    -11.07462078081947
C          -4.90222662460374     -0.41532436847651    -10.02116022893061
H          -3.86332592217308     -0.41300481870330    -10.35733261562228
H          -5.47132163316398      0.22077155359903    -10.70272232305995
C          -4.97470296915821      0.18026634303001     -8.62389268584540
H          -6.00477584936472      0.18852552999737     -8.26251935008269
H          -4.34375729101420     -0.37113101732119     -7.92417634598948
S          -4.39850255929921      1.91679293076055     -8.64354320186651
C          -4.98509396625277      2.42945803571735     -7.00592388288681
H          -4.42437801044595      1.92131143679342     -6.22605262916747
H          -4.82708345417191      3.49956404565606     -6.93220977631718
H          -6.04965796164150      2.22841205976080     -6.92683529403258
H          -4.87443766169464     -2.49127156388286     -9.41626631016662
H          -0.19227636983154     -2.82526150569576     -8.11781680558225
C           0.76600000337086     -2.31400000484783     -8.23299999978454
H           1.07600619939903     -2.40714069978292     -9.27995624412636
C           0.58789952404258     -0.83117588743104     -7.88074699027394
H           1.53959754889863     -0.29533679408946     -7.88020672942669
H          -0.04225510724492     -0.37910449653203     -8.65220788677230
C          -0.09131044380810     -0.70824306559766     -6.54788950378967
C           0.61899019890752     -0.44349211753076     -5.38660187774247
H           1.68430213014933     -0.26086593849645     -5.43848992887951
C          -0.03007815342138     -0.42057667753727     -4.16366825674813
H           0.52338533026006     -0.22011951402804     -3.25738887799431
C          -1.38842622852532     -0.66848009606473     -4.09391303333191
H          -1.89203658131382     -0.67858439008851     -3.14306325445705
C          -2.10211615538626     -0.91927470055456     -5.25169180092511
H          -3.16030684785993     -1.12268432170286     -5.19211904570174
C          -1.45871904467403     -0.93398111187505     -6.47108659101520
H          -2.00913028215716     -1.13966281102469     -7.37852582266300
C           1.76330686907308     -3.10054906332576     -7.41242257350876
O           1.59825637143447     -4.25052833362651     -7.06423976516849
N           2.91960230318895     -2.44416946442257     -7.19004964416104
H           3.01570701586939     -1.46319621439797     -7.41521455454489
C           3.94099998016589     -2.92299998404544     -6.29999997975940
H           3.54097231386056     -3.75418650799366     -5.71365650161868
C           5.16607392179601     -3.35902597609910     -7.13154665433654
H           4.79540656853218     -4.02914739696928     -7.91072108666125
H           5.56052624147523     -2.45898319836758     -7.61174916587335
C           6.27763651215710     -4.03707577216162     -6.32670313414720
H           6.35835483311046     -3.58299020676274     -5.33837429923831
H           6.04510711850398     -5.09559295731196     -6.19405463459039
C           7.64160381533856     -3.88078684656283     -6.99398710615786
H           7.89713377398878     -2.81506851772081     -7.05753668365987
H           8.41075185246678     -4.37589285511596     -6.39760725187503
N           7.66566196469771     -4.48154953980385     -8.31529334503650
H           6.77592717559924     -4.49053445717909     -8.78967053852264
C           8.75416750145240     -4.36186955522519     -9.11974062892340
N           9.88555028932804     -3.97610046462497     -8.66474294568121
H          10.46768484341523     -3.57196915623939     -7.17467847632165
H          10.62358146308049     -3.96544658209990     -9.35849419345301
N           8.52111071037123     -4.68565551541513    -10.44621321044758
H           7.71206725822575     -5.24806500790725    -10.65460824785685
H           9.33230084274656     -4.90226492037098    -11.00249056168910
C           4.34633540333806     -1.71699133028675     -5.45407755665834
O           4.38573901141139     -0.60668318701132     -5.95651900733106
N           4.63340209088699     -1.97135218353938     -4.17603076085324
H           4.63512169450377     -2.92432611595129     -3.84306923537276
C           5.35300001257103     -1.03399997728190     -3.35100000328425
H           5.49469382333813     -0.11372825104386     -3.92072640342486
C           4.61967970111023     -0.69853155261939     -2.02994994779189
H           5.37068851032597     -0.32154854649267     -1.32899899674355
C           3.59353071366568      0.40011980467933     -2.27480839217247
H           2.88753852044650      0.09841380837331     -3.04478401695660
H           3.04872803793571      0.61524287306157     -1.35945082195170
H           4.09898342309359      1.30494259660700     -2.59654042646844
C           3.96836897530383     -1.93632460413072     -1.42054300949457
H           4.69002603252234     -2.74368532890685     -1.33267633030432
H           3.60691445823171     -1.70666203413948     -0.42164575806573
H           3.12679862021456     -2.27036488350758     -2.02389768704696
C           6.71522809812922     -1.64758098245254     -3.03435457028962
O           6.87931487076464     -2.87115243397530     -3.04492664392692
N           7.66633942155750     -0.76653590042146     -2.75551766749947
H           7.44813250940604      0.22783413517401     -2.82929926089872
C           9.00299993414091     -1.13100010336336     -2.33900003555589
H           8.97426799231987     -2.17976949331982     -2.02972237198602
C          10.01144805671115     -1.00627895640132     -3.49291067616764
H           9.68471149681076     -0.23099725889109     -4.18832235496702
H          10.99185217106469     -0.72732323605094     -3.10620974465522
C          10.08713720476486     -2.34742475613450     -4.21889455964302
H          10.80224981265775     -3.01394915167621     -3.73770605903260
H           9.10899688745695     -2.83526291211714     -4.16301115334038
C          10.36776474724060     -2.28317091712787     -5.70263854445593
O          10.30157421511623     -1.28849952021397     -6.38105194743307
O          10.61822730004173     -3.49572397139918     -6.17471145380720
C           9.36126401795777     -0.30707357063968     -1.09855083683803
O           9.11198180023362      0.88792073714881     -1.01617096274352
N           9.89934109040026     -1.02863943520619     -0.11241392129280
H          10.25827211270373     -1.96639865975882     -0.28606805975012
C          10.16100051897258     -0.50700024790219      1.21500004284612
H          10.69060733640518      0.45374896437463      1.11498559704830
C           8.85879815814002     -0.22990346372849      1.97836315097191
H           9.09302812560922      0.29820401520512      2.90122328832833
H           8.25579999052985      0.44371075925498      1.36636688557240
C           8.02950911128528     -1.46797516168848      2.30317902870486
H           8.64369538499002     -2.35671009791435      2.43596681278810
H           7.45327744971463     -1.29595878157941      3.21066179827948
S           6.80353494186923     -1.83742078425761      0.99148229407904
C           7.48130103564721     -3.36073955559708      0.28309186784739
H           7.18138556945214     -4.21236723817221      0.88839001672891
H           7.07443397540951     -3.45019673224333     -0.71760611651329
H           8.56104387899871     -3.28818983799325      0.23706550197252
C          11.12607881958116     -1.47420605783407      1.91089634760391
O          11.67439051281747     -2.37589943635930      1.29843502934430
N          11.37778486605871     -1.19160748039087      3.19392788453754
H          10.81822138187356     -0.52729801783728      3.73599733758678
C          12.33799996273705     -1.95299997998571      3.95799999423763
H          12.95501684007685     -2.50397589972039      3.23948325405707
C          13.20983347971791     -0.99503720001485      4.79420285867405
H          12.53465217738720     -0.41828710784658      5.43320479785225
C          14.18970380143868     -1.76959643257510      5.67161992493627
H          14.83754096015862     -2.39770669750828      5.06186678024767
H          14.81522360265648     -1.07611221916387      6.22875856133234
H          13.66255110016688     -2.39853634503842      6.38461280552551
C          13.95942802945632     -0.03653512801672      3.87312002316180
H          13.26137414285180      0.52766582347919      3.26149025270406
H          14.54772940236706      0.66465458182349      4.45979230820385
H          14.62991629677734     -0.58625766939416      3.21496716440608
C          11.61148851153671     -2.92734638545680      4.89030361424186
O          10.66075497353583     -2.58612876427078      5.56837572999111
N          12.14415118728570     -4.16325701878222      4.92768884447257
H          12.89195665581831     -4.39534281134826      4.29415359037163
C          11.64599999735018     -5.20799999690094      5.79200000582485
H          10.81621170991057     -4.76252692911939      6.34623354920013
C          11.14908302530393     -6.44133469524337      5.02190752648273
H          10.93620347417948     -6.11896976780515      4.00249933293148
H          11.91903090173072     -7.21498209162652      4.99363521952623
C           9.88994004986132     -6.99281684464871      5.60338553839376
C           9.70266607122505     -8.18851195076472      6.23009738187213
H          10.41569732112391     -8.96311254690144      6.44331025331700
N           8.38876072614193     -8.33093155191439      6.59284766493608
H           7.99161507390973     -9.13558372864893      7.04578881761250
C           7.69631749398434     -7.22348262512734      6.19329777465726
C           6.34672171281718     -6.91261023867530      6.30498283392604
H           5.65341310908026     -7.59813074829455      6.77089948605543
C           5.92788179086362     -5.70020375664795      5.80104730207602
H           4.88439869717627     -5.42980135785209      5.86413990880130
C           6.82933802700551     -4.80686652455617      5.21416083151365
H           6.46646908490214     -3.85629748361537      4.85439471201588
C           8.16651937421108     -5.11038917806172      5.09754125535194
H           8.85347326137923     -4.40416593131162      4.65857907306448
C           8.61445903000914     -6.34302486734454      5.57599398359879
H          12.42761637583439     -5.49083145436350      6.50643472654637
H          12.26314975117959     -4.92214436170829      0.35191144764371
C          11.60499994896430     -5.72400000219575      0.01199994976831
H          12.19083054279193     -6.48997165476250     -0.50043844477314
C          10.87089564952122     -6.32591668636633      1.19836319404115
H          10.15030679750252     -7.08228536908111      0.89352281861448
H          11.57548051477213     -6.76483246043930      1.90776181562789
S           9.93359237985726     -4.99485405399915      2.05398971574531
H           8.91406014823874     -5.75979402593719      2.44626905940513
C          10.60595053130235     -5.09513349393310     -0.96299605296977
O          10.57592395340299     -3.90360055144386     -1.20646640847971
N           9.76404329400189     -5.97165801817669     -1.53868484436468
H           9.73633420209075     -6.93854257461779     -1.24640436894327
C           8.65500012806912     -5.57899990343119     -2.37799994016276
H           8.56610169605668     -4.49159906941401     -2.33609680950240
C           8.88185294490419     -6.02458349770110     -3.82619770444222
H           9.00098259622547     -7.10544620165497     -3.86991423186036
H           8.02661669458787     -5.74120399158097     -4.43215665899307
H           9.77344121145151     -5.55229300510489     -4.23134372427160
C           7.37744952285479     -6.24474183838675     -1.85175291791213
O           7.43060746988384     -7.26436680779873     -1.18284818853396
N           6.25268206585783     -5.64067622692729     -2.25282973084438
H           6.34013159887143     -4.71286191515862     -2.65162949420660
C           4.93299994598612     -6.08699998809267     -1.83599999859064
H           4.89130268092826     -7.16945563140090     -1.97459402350205
C           4.67310971216668     -5.74041043964762     -0.36695530875572
H           5.34078107386247     -6.34384566643553      0.25071410675959
H           4.92783893923783     -4.69080529967601     -0.20952034619284
C           3.22688915041847     -5.95661476140221      0.08092706196483
H           2.57096925917941     -5.36428829918041     -0.56374053277277
C           2.81523658142333     -7.42182457125367     -0.01797315945314
H           3.51338485737003     -8.05162423445725      0.52816835322523
H           1.82672704835423     -7.55260814730173      0.41367848315395
H           2.78237709969916     -7.75406223299917     -1.05262324294433
C           3.06374658780601     -5.45679237349885      1.51469584913803
H           3.35704722475014     -4.41258371297452      1.58935401647164
H           2.02930463184941     -5.54938411732579      1.83522472865074
H           3.68515748714722     -6.03736745619280      2.19385135099646
H           4.19211571712364     -5.61284985902002     -2.48130394330361
H          -0.13425198684657     -5.59481025334577     -4.53325033181581
C          -1.01699999989918     -5.24900000226746     -3.99300000267968
H          -1.43482758159771     -6.06357495112393     -3.40194077323501
C          -0.63245780438126     -4.06121852902907     -3.09867268664388
H          -0.33718295172873     -3.23650246826831     -3.75690080732095
C          -1.82518636019981     -3.61859117893816     -2.25651614728272
H          -2.22053888222499     -4.45856555388864     -1.68965960731449
H          -1.52036376049861     -2.84451436368139     -1.55648652356438
H          -2.62042098339389     -3.21983209402784     -2.88151503200251
C           0.55130682962069     -4.42184212770092     -2.20585619825015
H           1.40187404025724     -4.73209796263951     -2.81052828695154
H           0.84429694075629     -3.56283450001508     -1.60560483996180
H           0.28807803539869     -5.23333361870489     -1.53176454538357
C          -2.02025903436624     -4.76433781043374     -5.02616550241454
O          -1.72127948500642     -4.01847399038629     -5.94145413961364
N          -3.28808194438363     -5.20498752241462     -4.85347372891438
H          -3.52878214533071     -5.79419098294661     -4.06524911208965
C          -4.36400000104739     -4.76400000190657     -5.72099999884182
H          -3.89241623329962     -4.14257445503635     -6.49008429779304
C          -5.08874277741224     -5.95979869825215     -6.37109669175662
H          -5.47089460710903     -6.58907966384148     -5.56066708926474
C          -6.26770078036816     -5.46028553255886     -7.20367722441121
H          -5.92440949067187     -4.78317734820677     -7.98493544374710
H          -6.78256755095029     -6.29361784974963     -7.67373802057604
H          -6.98493359152257     -4.93625522286878     -6.57641538104355
C          -4.10365139811890     -6.77747352371377     -7.21123901292182
H          -3.88100792907960     -6.23538373439878     -8.13342775481637
H          -3.16999464576157     -6.87724811050988     -6.65514126106250
C          -4.62424241918832     -8.17022140623454     -7.54510846270440
H          -5.52855559874381     -8.12195468462706     -8.14730001757577
H          -3.87505642521380     -8.72736755988885     -8.10348920207158
H          -4.84878177472013     -8.71721295955849     -6.63234234590859
C          -5.35691393966224     -3.95875150761883     -4.88753579083532
O          -5.94885274707376     -4.45969265698521     -3.94707381121275
N          -5.53715312294651     -2.68821217396793     -5.27292549688345
H          -5.03108985991553     -2.33573926481717     -6.07074660904216
C          -6.53600000455886     -1.83699999762560     -4.67000000511636
H          -6.77557751461598     -2.24144830202754     -3.68297069169603
C          -6.10132856735838     -0.38899313612120     -4.54024500680506
H          -5.84671589725390      0.04253020428928     -5.51091170654108
H          -6.94107367947659      0.17705956667359     -4.13154694628168
C          -4.92690140360824     -0.16535600005459     -3.59852714479030
O          -4.47600343134571     -0.98505921364734     -2.84434930251417
O          -4.47692656334175      1.07113431416687     -3.72776316236651
H          -3.68765240184804      1.26823319437024     -3.13155080529798
H          -7.45239725360230     -1.87467929358150     -5.27527135713894
H         -11.52701908014352      0.68893652509649     -4.98084061036202
C         -11.82100000195232      1.71200000003139     -5.20500000029212
H         -12.17383015222084      2.17606603761948     -4.28638346364391
C         -10.64771334217001      2.49433245447048     -5.78570574108919
H         -10.31996993496999      2.03121843954721     -6.71890413730680
H         -10.96298575371462      3.51421318515520     -6.01718594952076
C          -9.47148542825499      2.55302303725598     -4.82296186204952
H          -9.75987594804767      3.02532061648068     -3.88231812621588
H          -9.07631776217088      1.55549678972497     -4.62315768782958
S          -8.12605373326302      3.56174986151175     -5.54799294003785
C          -6.96865765539348      3.58380020090586     -4.14967625378765
H          -6.48610442033301      2.61774371263065     -4.03720504655384
H          -6.21554022154570      4.33211109092314     -4.37605478840903
H          -7.51466223747158      3.84866302846344     -3.24957324880072
H         -12.64361917300766      1.68513604748382     -5.91468905972627
H         -11.60754219998302      2.13367857861038     -0.53548064545184
C         -10.64099999655711      1.70300000082481     -0.80400000024399
H         -10.63342198420109      1.49207953851540     -1.87522817330651
C          -9.53707832126399      2.70396331049385     -0.44843654286242
H          -9.73706937700396      3.65214416110976     -0.95888026307026
H          -9.57093658016504      2.88668876003056      0.62718727243105
C          -8.13394473835615      2.23894967546579     -0.82483822046867
H          -8.13548513563508      1.72794399227419     -1.78967902772564
H          -7.46331908455438      3.09622728242174     -0.86982090431649
S          -7.39953849388481      1.09716619440981      0.41393816841409
C          -5.67137899340310      1.66178828115996      0.33083086840548
H          -5.62178734719865      2.72431803919577      0.55068317481481
H          -5.11935655600457      1.10761116432659      1.08408386260494
H          -5.26088633055801      1.45649802192005     -0.65382195154004
C         -10.45901599643552      0.42148390872337      0.00345764238164
O         -10.55964813158484      0.42632936326050      1.21566484762925
N         -10.21162095131605     -0.67243132983083     -0.72962189907645
H         -10.02118031085180     -0.58931172330191     -1.71933508409391
C          -9.79399999546021     -1.95100000052517     -0.18900000417668
H          -9.71746143045297     -1.85609215247477      0.89626945889202
C         -10.76848248504309     -3.06287836991997     -0.58114238907423
H         -10.76629640585115     -3.16257449886821     -1.66948930252545
H         -10.41039201741696     -3.99995001984628     -0.15307420174309
C         -12.18535664317532     -2.79060812238320     -0.08864997730234
H         -12.18703203079082     -2.45458943381522      0.94799016602636
H         -12.64980520430431     -2.00509087960651     -0.68996092397173
C         -13.05004268086859     -4.03674696482342     -0.18717931534886
O         -12.92683946567361     -4.84796665699403     -1.10993155830180
N         -13.95745454537429     -4.12977046081785      0.77364491183079
H         -14.52172487984159     -4.96341116354766      0.82565611801902
H         -13.87497754531121     -3.50140297365938      1.62154400876249
C          -8.43408051906431     -2.25654180736926     -0.81806598608895
O          -8.23730924101429     -2.00820193241794     -2.00204758301706
N          -7.54236860308150     -2.82409521479136     -0.00531840474780
H          -7.72436544801241     -2.86110233759829      0.99477071373487
C          -6.20800000004706     -3.14900000133655     -0.46299999551711
H          -6.18689148522142     -2.95730613821864     -1.53978954582624
C          -5.14871425413413     -2.29080646213325      0.22564472046811
H          -5.01818105591746     -2.58880252631393      1.26257272395642
H          -4.20145772673548     -2.39168243329630     -0.29738390844555
H          -5.45089757877069     -1.24855804442248      0.19368728201507
C          -5.94431123706880     -4.63136874183370     -0.19416764537520
O          -5.81819269294792     -5.08994552290785      0.93712954165538
N          -5.86699457277510     -5.39828287102778     -1.28242656795497
H          -5.92827193133621     -4.99464928007481     -2.21251400458097
C          -5.75400000417505     -6.83799999998075     -1.20699999942094
H          -6.17028491025736     -7.15440010401743     -0.24359123060381
C          -6.53485127609655     -7.48156865060350     -2.36756932862116
H          -6.27751921132720     -6.93562860745737     -3.27711360181464
H          -6.19712187383114     -8.51440253614808     -2.47950631339891
C          -8.02194515782548     -7.45302246319484     -2.14441990614695
C          -8.75121021716121     -6.27813168380300     -2.29440321937169
H          -8.25105344457242     -5.37117253184398     -2.59981771718104
C         -10.11357506968603     -6.25792332560294     -2.07079452468135
H         -10.68044754760625     -5.34811007586122     -2.18640383707821
C         -10.79448531226613     -7.41347988008529     -1.69334542191135
O         -12.12002398619531     -7.42890073817717     -1.46858235969831
H         -12.46506667791366     -6.50832182752371     -1.39744823447678
C         -10.06975320836302     -8.59947378176446     -1.56871733285770
H         -10.59330454319350     -9.50253652021624     -1.29335320986243
C          -8.70506469787784     -8.60767975267013     -1.78163596434334
H          -8.15858652318199     -9.53525144348029     -1.66700793802752
C          -4.28120534036120     -7.26454304246518     -1.29275316364646
O          -3.64467677939307     -7.21874691929430     -2.33203492859214
N          -3.79704764250059     -7.75134781066708     -0.13513994013559
H          -4.28820301350097     -7.51879358899752      0.71433033304515
C          -2.44699999833344     -8.26200000036602     -0.00000000204855
H          -2.25621271558473     -8.91322304396062     -0.85786779477131
C          -1.40032076049922     -7.13732264618680      0.01375011494375
H          -0.40978248144522     -7.59565757417161      0.03681896982561
H          -1.50266199620400     -6.59166679879251     -0.92568044756803
C          -1.54302729267844     -6.19107384374322      1.16229352196148
C          -2.34781196442235     -5.08235914665301      1.22946538445091
H          -3.05639360288068     -4.72226726087411      0.50860995062756
N          -2.16513185732329     -4.42281672645652      2.40320166030243
H          -2.62852122835589     -3.56054693655945      2.69655626619160
C          -1.23232038374441     -5.08786950302690      3.13169622968095
C          -0.69218310075489     -4.79208814530618      4.37825880988705
H          -1.00619497768459     -3.90614778932949      4.90850586603787
C           0.24760564619067     -5.65703691859663      4.89262841819714
H           0.68921953523737     -5.45745818111890      5.85857249510019
C           0.64519981840666     -6.79784660686219      4.18666095668217
H           1.38021584958245     -7.45663690404096      4.62831259243297
C           0.12605941972408     -7.09224655283809      2.94611404009680
H           0.44316410019229     -7.98014439886269      2.41593534289605
C          -0.81912465930688     -6.22813391583438      2.39060711232436
H          -2.39853703157142     -8.84644451627975      0.92033962452184
H           4.94915178973218    -10.17522433268977     -0.16296439025291
C           5.93500000091749     -9.99800002119803      0.26200001051732
H           6.32348455630719     -9.07138551673439     -0.15068418624904
C           5.85116883320471     -9.93927262396464      1.78257803836784
H           5.15638760585612     -9.15340275812093      2.08643552126000
H           5.45123015319576    -10.88906273923714      2.14886719542951
C           7.20951810413407     -9.68420151458244      2.44447656915246
H           7.95792837221513    -10.31118934037110      1.94503245528266
C           7.62783322168126     -8.22192028812902      2.30669185612605
H           6.92236243152701     -7.57926243113687      2.83125299092612
H           8.61230778666446     -8.07447471246974      2.75020878700471
H           7.65748949614356     -7.92762526921204      1.26005292142736
C           7.16781540700881    -10.06862067833946      3.92191624167287
H           6.89002703688834    -11.11414306832853      4.04309785260166
H           8.14282383752151     -9.91379183712810      4.37919942098109
H           6.43986364460544     -9.45271463847921      4.44599096636323
H           6.58938967878534    -10.81055173478125     -0.04891959150404
O          -0.99047089369242      1.17237550556793      4.22426657432205
H          -1.13296557540033      0.93970787570870      5.14365774349684
H          -1.78141783193874      0.79144699626253      3.75957897000770
O           0.21399949423185      3.66346216892773      4.09592164288267
H           0.61507251052081      3.60576285707012      3.22536965187455
H          -0.29411444510816      2.83312117181994      4.19567708829887
O          -0.56656902597803      3.06960067524674      8.83539608138381
H          -0.58884340650608      3.93648534332159      8.38977482170324
H          -1.30743312047728      2.56764450782793      8.48343331262357
O           8.24179491897374      8.02302609071728     -0.35407872806300
H           8.29857281362189      7.11818730632258     -0.70857215058052
H           7.62824365167916      7.99379409928551      0.38310217193728
O           7.31339063824249      1.08407208020669      4.72467942204418
H           6.63509941004199      0.38972292792148      4.69124118108492
H           6.83966510087743      1.91944722823786      4.76300268896855
O           6.88626437525842      8.72597438173078     -2.71338942996254
H           7.41613991508622      8.64956386851871     -1.90256569838768
H           5.99567364682779      8.43688440112150     -2.46374485792517
O           9.94387344435461      0.17956745078162      5.15295620241183
H           9.03542129746238      0.52085353635558      5.11203898252690
H           9.89622854366456     -0.69927958164052      5.55606668973449
$end

$rem
JOBTYPE  SP
METHOD  WB97X-V
BASIS  6-31G(D)
SYMMETRY  FALSE
SYM_IGNORE  TRUE
MEM_TOTAL  10000
MEM_STATIC  2000
BASIS_LIN_DEP_THRESH  6
THRESH  14
SCF_CONVERGENCE  8
FD_MAT_VEC_PROD  FALSE
XC_GRID  000075000302
NL_GRID  1
MAX_SCF_CYCLES  200
ENV_METHOD  WB97X-V
GEN_SCFMAN_EMBED  TRUE
SPADE_PARTITION  TRUE
EMBEDDING_EARLY_STOP  TRUE
$end

--------------------------------------------------------------
 ----------------------------------------------------------------
             Standard Nuclear Orientation (Angstroms)
    I     Atom           X                Y                Z
 ----------------------------------------------------------------
    1      C      -1.8072005943     1.6257144532    -1.2779696928
    2      O      -2.4358864096     1.8599875835    -2.3102666290
    3      C      -1.8025562246     0.3531141934    -0.6144493610
    4      C      -0.9862271622     0.0481229715     0.4179603434
    5      C       0.0525215234     1.0094627158     0.9254326433
    6      C       0.3087826495     2.1281149745    -0.0884785586
    7      C      -1.0011101482     2.7031606607    -0.6052138473
    8      C      -1.1615882090    -1.2201783265     1.1624591801
    9      C       0.1361463001    -1.8607635338     1.6421912842
   10      C       1.0162705026    -0.8266854238     2.3361450284
   11      C       1.3540911932     0.2816122237     1.3263461976
   12      C       2.3060741913    -1.4500934350     2.8486147083
   13      C       3.2555386892    -0.4287202151     3.4934136112
   14      C       3.6512420351     0.5885463536     2.4279832165
   15      C       2.4002310151     1.2682925515     1.8648184293
   16      C       2.2118110461    -2.5531969814     3.9018446421
   17      C       3.6459026318    -2.6389213776     4.4526483477
   18      C       4.3872960343    -1.3747602145     3.9492279727
   19      C       2.6629457471     0.2880019473     4.7129142943
   20      O       5.2838110333    -0.8385696129     4.8994809362
   21      H      -2.5282147354    -0.3727564471    -0.9568750551
   22      H      -0.3720275353     1.4470257258     1.8391123031
   23      H       0.8815703484     1.7294895421    -0.9304733945
   24      H       0.8950429595     2.9285074688     0.3646312099
   25      H      -1.6015991835     3.0727768606     0.2302932081
   26      H      -0.8391581764     3.5313800413    -1.2956441909
   27      H      -1.7468155442    -1.9322979633     0.5799071667
   28      H      -1.7705156949    -0.9649845523     2.0425811368
   29      H       0.6760822955    -2.2919943853     0.7931903927
   30      H      -0.1010551262    -2.6716783964     2.3287030131
   31      H       0.4493590015    -0.3979524059     3.1644701875
   32      H       1.7701932591    -0.1972563957     0.4309500054
   33      H       2.8372759195    -1.8675166287     1.9827515167
   34      H       4.1930980478     0.0819532906     1.6255433524
   35      H       4.3131509998     1.3485673623     2.8481160205
   36      H       1.9483486599     1.8766533178     2.6482430570
   37      H       2.7169269877     1.9356307483     1.0616762544
   38      H       1.8849698682    -3.5027885091     3.4844011937
   39      H       1.5019129073    -2.2707312396     4.6781251668
   40      H       4.1460833590    -3.5381846061     4.0972158821
   41      H       3.6611783811    -2.6655843015     5.5437875336
   42      H       5.0148442143    -1.6224499196     3.0884595129
   43      H       2.5597603209    -0.3857761500     5.5606789287
   44      H       3.3067066208     1.1206031983     4.9948159156
   45      H       1.6797923448     0.6885147954     4.4942232228
   46      H       4.7637606156    -0.5316594563     5.6522108540
   47      H      -3.3815565196     8.4309494709    -7.6324575236
   48      C      -3.2590000229     8.1049999998    -6.5970000129
   49      H      -3.3020890848     8.9792160181    -5.9464433202
   50      C      -4.3816303889     7.1232338197    -6.2245908133
   51      H      -5.3317078967     7.6636833917    -6.2505612963
   52      H      -4.4352822855     6.3270602594    -6.9713254948
   53      C      -4.1847289929     6.5066267752    -4.8646475690
   54      C      -4.5695014707     7.1627684536    -3.7044131156
   55      H      -4.9825949058     8.1608593283    -3.7690964549
   56      C      -4.4396388332     6.5593416710    -2.4628060229
   57      H      -4.7391751310     7.0876746783    -1.5669039726
   58      C      -3.9062434006     5.2779126257    -2.3589419156
   59      O      -3.7848138252     4.6187077595    -1.1871175681
   60      H      -4.3017208515     5.0302698570    -0.4769565326
   61      C      -3.4722746083     4.6325751859    -3.5155303376
   62      H      -3.0466377396     3.6478712475    -3.4197698999
   63      C      -3.6159675601     5.2434405496    -4.7417022372
   64      H      -3.2883730244     4.7200466173    -5.6252708930
   65      C      -1.8695733452     7.4962006472    -6.4191817534
   66      O      -1.0597143431     7.9542726106    -5.6351680351
   67      N      -1.5911082677     6.4262222397    -7.1908046469
   68      H      -2.2533242146     6.1024494749    -7.8765787794
   69      C      -0.2930000011     5.7719999985    -7.1470000023
   70      H      -0.0233823880     5.6449884121    -6.0960688261
   71      C      -0.2781283711     4.4316614272    -7.8826749453
   72      H      -0.6506929020     4.6052940821    -8.9013520429
   73      C       1.1639343329     3.9363747114    -7.9864025079
   74      H       1.6119269889     3.8542752532    -7.0009506295
   75      H       1.1922682368     2.9585933639    -8.4603417868
   76      H       1.7644283421     4.6236695571    -8.5788415094
   77      C      -1.1899716381     3.3733095684    -7.2440701825
   78      H      -2.2185782704     3.7376151227    -7.2683630411
   79      H      -1.1616618509     2.4801963296    -7.8717890981
   80      C      -0.8306469905     2.9806116739    -5.8165099334
   81      H      -0.8694791129     3.8367774267    -5.1493843305
   82      H      -1.5349396049     2.2381433933    -5.4501647652
   83      H       0.1611356432     2.5405984470    -5.7679356654
   84      H       0.4523636837     6.4397277724    -7.5999843960
   85      H       1.3658211931     8.1799445287    -3.7008960500
   86      C       1.8290000021     7.5130000089    -2.9720000108
   87      H       1.5979750447     7.8731855191    -1.9688741495
   88      C       1.2617741280     6.0955834137    -3.1542415318
   89      H       1.4927007781     5.7569562147    -4.1713396817
   90      C       1.8974348698     5.1183861550    -2.1690356203
   91      H       1.6440912027     5.3967826705    -1.1497982652
   92      H       1.5394979340     4.1080119583    -2.3536845088
   93      H       2.9806985923     5.1244606899    -2.2612806867
   94      C      -0.2548917255     6.1215778727    -2.9890096839
   95      H      -0.7050135316     6.8077919336    -3.7017242469
   96      H      -0.6765405823     5.1316225963    -3.1479499553
   97      H      -0.5241718600     6.4451494214    -1.9861717732
   98      C       3.3425382082     7.5332393849    -3.1426958198
   99      O       4.1223759162     7.7493664528    -2.2273430815
  100      N       3.7642910892     7.2549329072    -4.3890430481
  101      H       3.0858489089     7.1771832729    -5.1294615062
  102      C       5.1709999536     7.1640000318    -4.7619999934
  103      H       5.6660895633     6.4817302778    -4.0635533100
  104      C       5.3102019967     6.6635916274    -6.1931362702
  105      H       4.8646827993     5.6753104210    -6.3105965811
  106      H       4.8448441366     7.3687056833    -6.8833160622
  107      C       6.8249549197     6.6125082349    -6.4658680381
  108      O       7.4330948443     5.5574841966    -6.2191952307
  109      O       7.3371744913     7.6876874889    -6.8510335026
  110      H       5.6428995401     8.1475239249    -4.6745108314
  111      H      -2.9117672050    12.2114310702    -1.2848078894
  112      C      -3.8140000105    11.6309999972    -1.1059999986
  113      H      -4.1878828841    11.2773829968    -2.0646831163
  114      C      -3.5228223803    10.4467473824    -0.1853052833
  115      H      -3.1210002097    10.8330761998     0.7591725152
  116      C      -4.8163207679     9.6928581550     0.1148273407
  117      H      -5.2559091112     9.3131645538    -0.8048740113
  118      H      -4.6325398148     8.8583175285     0.7860861792
  119      H      -5.5438305876    10.3509359348     0.5863882930
  120      C      -2.4651355158     9.5351976242    -0.8184157172
  121      H      -2.8904133796     9.0294271791    -1.6874298230
  122      H      -1.6401993990    10.1565195424    -1.1742647376
  123      C      -1.9056742904     8.4977251568     0.1470699584
  124      H      -2.6645526566     7.7833517638     0.4537539971
  125      H      -1.0973308641     7.9470591100    -0.3262877733
  126      H      -1.5130132035     8.9802315250     1.0398347619
  127      H      -4.5629949315    12.2860822083    -0.6652041578
  128      H     -10.6426732897    10.6609756383    -1.5046812856
  129      C     -10.7960001664    10.6590000987    -0.4279999845
  130      H     -11.4923035257     9.8597193004    -0.1842551376
  131      C      -9.4676362331    10.4428475689     0.3001850479
  132      H      -8.7880582114    11.2627733291     0.0545449597
  133      H      -9.6412469404    10.4556266179     1.3779124543
  134      C      -8.8446824767     9.1351700584    -0.0998196452
  135      C      -8.1829235001     9.0197074643    -1.3152526272
  136      H      -8.0953104830     9.8838300058    -1.9582986477
  137      C      -7.6295749140     7.8193093006    -1.7162682104
  138      H      -7.1251127943     7.7386278074    -2.6688666133
  139      C      -7.7222629550     6.7029429343    -0.8944097420
  140      O      -7.1686522572     5.5067150169    -1.2348916196
  141      H      -6.6322270811     5.6046297008    -2.0350273505
  142      C      -8.3953968026     6.8019148444     0.3191324561
  143      H      -8.4955308844     5.9234031487     0.9388158381
  144      C      -8.9514192598     8.0071730463     0.7032420301
  145      H      -9.4746592901     8.0680395533     1.6466414315
  146      H     -11.2406761647    11.6084510402    -0.1378503448
  147      H     -11.1104681012     2.5774246437     4.3629618211
  148      C     -10.1350000047     2.2889999909     3.9640000010
  149      H     -10.2433526113     2.0685903686     2.9027857686
  150      C      -9.1296913563     3.4203490488     4.1922049567
  151      H      -9.0021593534     3.5410619973     5.2734161396
  152      C      -7.7757874222     3.0627030616     3.5847117326
  153      H      -7.8703636124     2.8695192221     2.5187076554
  154      H      -7.0565742521     3.8672510818     3.7369809426
  155      H      -7.3820235591     2.1655352573     4.0537502761
  156      C      -9.6585236279     4.7277629550     3.6041537919
  157      H     -10.5986379691     5.0107684795     4.0733526004
  158      H      -8.9435279419     5.5358972594     3.7570955392
  159      H      -9.8356116824     4.6157655404     2.5352282678
  160      C      -9.7092943670     1.0152968607     4.7060700498
  161      O      -9.3038657185     1.0423958828     5.8582872926
  162      N      -9.8360688775    -0.1148222261     3.9929197234
  163      H     -10.1566638563    -0.0697607944     3.0313187761
  164      C      -9.6260000588    -1.4509999800     4.5319999790
  165      H      -9.5311330568    -1.3520668306     5.6179868624
  166      C     -10.7990121726    -2.3651514686     4.1535692474
  167      H     -10.8553466809    -2.3918493852     3.0616024513
  168      H     -10.5679970227    -3.3715981341     4.5126806659
  169      C     -12.1545051852    -1.9236536352     4.6927217505
  170      H     -12.2277904505    -2.0986890228     5.7672325329
  171      H     -12.3054852114    -0.8613676638     4.4870315678
  172      C     -13.2860664916    -2.7187240702     3.9540020110
  173      O     -13.3710011320    -2.4730611918     2.7237323116
  174      O     -13.9743612904    -3.5046688011     4.6021722021
  175      C      -8.3378341294    -2.0117544431     3.9260134166
  176      O      -8.2985733411    -2.4689857564     2.7905912638
  177      N      -7.2688853015    -1.9481746979     4.7286549320
  178      H      -7.3433174977    -1.4823331667     5.6213875526
  179      C      -5.9229999884    -2.1820000016     4.2460000037
  180      H      -6.0045107863    -2.8242829778     3.3697182035
  181      C      -5.2973384345    -0.8358925890     3.8535506031
  182      H      -5.8636531718    -0.3925507252     3.0299488085
  183      H      -5.3449392611    -0.1515228747     4.7035983550
  184      C      -3.8172007357    -0.9680043908     3.4266973117
  185      O      -3.3461048344    -2.1093743804     3.3131881074
  186      O      -3.2017251705     0.1018272199     3.2119303566
  187      C      -5.0703117352    -2.8190128265     5.3416489699
  188      O      -4.6850897959    -2.1650754865     6.3008628070
  189      N      -4.7601857372    -4.1153686080     5.2026326886
  190      C      -3.9905233764    -4.7914205367     6.2331792477
  191      H      -4.3281708712    -4.4602368491     7.2172553016
  192      H      -2.9314182441    -4.5347505715     6.1218895842
  193      C      -4.2335322137    -6.2717344993     5.9711460110
  194      H      -5.1555508731    -6.5854243374     6.4603023294
  195      H      -3.4083717093    -6.8952670002     6.3117680792
  196      C      -4.4190051475    -6.3104076124     4.4571673770
  197      H      -4.9467393877    -7.2012905875     4.1179831903
  198      H      -3.4521601712    -6.2553562496     3.9564962452
  199      C      -5.2270000014    -5.0330000006     4.1839999989
  200      H      -5.0392401060    -4.6555785167     3.1771424208
  201      C      -6.7206852760    -5.3552680390     4.3834645609
  202      O      -7.2257317759    -5.4070195570     5.4894970363
  203      N      -7.3547103927    -5.6573386709     3.2440784679
  204      H      -6.8845524959    -5.5130491740     2.3577383367
  205      C      -8.7100000059    -6.1540000028     3.2190000006
  206      H      -9.1864292221    -5.8597529921     4.1582227943
  207      C      -9.5156707143    -5.6319625572     2.0298987402
  208      H      -9.6049647720    -4.5487492068     2.1098543909
  209      H      -8.9924352172    -5.8797911355     1.1013500267
  210      C     -10.8651542712    -6.2940543721     2.0659021678
  211      C     -11.9403345511    -5.6851506834     2.6938278107
  212      H     -11.8413786951    -4.6913218107     3.0957520922
  213      C     -13.1552151773    -6.3359491239     2.8132555748
  214      H     -13.9626097201    -5.8321189090     3.3236447859
  215      C     -13.3112797099    -7.6080532136     2.2914066234
  216      H     -14.2601110017    -8.1208322495     2.3751138393
  217      C     -12.2442577033    -8.2257315597     1.6602599787
  218      H     -12.3601986730    -9.2173200855     1.2454577492
  219      C     -11.0273275406    -7.5774116044     1.5593273941
  220      H     -10.1951339686    -8.0665305336     1.0720525286
  221      H      -8.6905531394    -7.2536737983     3.1824557748
  222      H      -3.0997202396     6.9017405449     8.8270748933
  223      C      -2.8500000376     5.9170000488     8.4220000072
  224      H      -2.5137292347     5.2834861320     9.2439773556
  225      C      -4.0985338811     5.2989159965     7.7714438228
  226      H      -4.9127848305     5.3426947252     8.4994536518
  227      H      -4.3998118274     5.8838224364     6.8992829475
  228      C      -3.8861298500     3.8642771987     7.3645655400
  229      C      -3.7766028995     2.8802319507     8.3415410448
  230      H      -3.8323110133     3.1562799022     9.3863426943
  231      C      -3.6312032216     1.5496684814     7.9877545167
  232      H      -3.5650651399     0.7911905587     8.7537542205
  233      C      -3.6045107432     1.1851998530     6.6513499052
  234      H      -3.5390802142     0.1416305732     6.3816501612
  235      C      -3.7025333732     2.1607649715     5.6719907349
  236      H      -3.6925503070     1.8749164233     4.6306113176
  237      C      -3.8307457696     3.4935983526     6.0282903282
  238      H      -3.9108929318     4.2488410665     5.2575556171
  239      C      -1.6983055313     6.0864614239     7.4503063372
  240      O      -0.6152668859     5.5310298893     7.6110187670
  241      N      -1.9191270311     6.9283406785     6.4360062497
  242      H      -2.8359592575     7.3270073278     6.3106026706
  243      C      -0.9329999975     7.2049999941     5.4059999998
  244      H      -0.5228656972     6.2501916682     5.0601149279
  245      C      -1.5573219089     7.9802385176     4.2524278175
  246      H      -1.9772757166     8.9165799772     4.6288663276
  247      H      -0.7585242275     8.2303090576     3.5501390177
  248      C      -2.6181728729     7.2009791069     3.5207481649
  249      C      -3.9279029975     7.6526459040     3.4608087770
  250      H      -4.2134876857     8.5553772593     3.9840013535
  251      C      -4.8816971676     6.9857778699     2.7079362037
  252      H      -5.8962134295     7.3590248959     2.6549346926
  253      C      -4.5231198788     5.8487738173     1.9990911532
  254      O      -5.3819171376     5.2056353948     1.1602461783
  255      H      -6.2798102717     5.5547292458     1.2334911097
  256      C      -3.2242970802     5.3539872562     2.0979548770
  257      H      -2.9757200519     4.4497047422     1.5669738775
  258      C      -2.2866003430     6.0265485811     2.8505850809
  259      H      -1.2818474273     5.6400095892     2.9132055279
  260      H      -0.1138557010     7.7840361685     5.8498698704
  261      H       1.5239188725     6.5829080994     9.1476932366
  262      C       2.4299999828     6.0459999752     9.4379999972
  263      H       3.0931383092     6.7243477053     9.9736173946
  264      C       2.0446694226     4.8533914737    10.3198698941
  265      H       1.6164626164     4.0636852785     9.7014697080
  266      H       2.9366344062     4.4551377500    10.8063684523
  267      C       1.0209079166     5.2684408811    11.3782407618
  268      H       1.4328830757     6.0551133697    12.0116602924
  269      H       0.1239232039     5.6452806581    10.8826837230
  270      C       0.6334716689     4.0978736818    12.2713318191
  271      O       0.9341406020     4.0385648741    13.4474963121
  272      N      -0.0964439577     3.1531658122    11.6526175888
  273      H      -0.3281827938     2.3205588051    12.1688505843
  274      H      -0.2596263301     3.1531817978    10.6501141733
  275      C       3.1318874094     5.5735573598     8.1656793235
  276      O       4.3164861667     5.7789278081     7.9480976171
  277      N       2.3218945310     4.9408540722     7.2932226211
  278      H       1.3351372819     4.8954211273     7.5123372237
  279      C       2.7630000040     4.0610000003     6.2230000026
  280      H       3.1188510373     3.1110425294     6.6376579169
  281      H       1.8958691768     3.8559361200     5.5840111469
  282      C       3.8675650697     4.5981539375     5.3163220770
  283      O       4.6980581532     3.8571750229     4.8243095156
  284      N       3.7862211413     5.9133759503     5.0493673088
  285      H       3.0410866253     6.4406947499     5.4779599024
  286      C       4.6190000062     6.6090000016     4.0929999993
  287      H       5.3081189003     5.8704637802     3.6736290816
[...]
    2   0.0489531  -0.0107134   0.0043550   0.0030043  -0.0866053   0.0088667
    3  -0.0014381  -0.0349385  -0.0131914   0.0032386   0.0529778  -0.0049607
          349         350         351         352         353         354
    1   0.0172628  -0.0133268   0.0016590   0.0025167  -0.0077775  -0.0315467
    2   0.0377973  -0.0143943  -0.0355886  -0.0006465   0.0373274  -0.0221706
    3  -0.0197480  -0.0037284   0.0022786   0.0013904  -0.0069939  -0.0081468
          355         356         357         358         359         360
    1   0.0018830  -0.0005915  -0.0369720   0.0002448   0.0003367  -0.0005690
    2  -0.0006796  -0.0003787  -0.0040300   0.0005509  -0.0168274  -0.0006766
    3   0.0395884  -0.0364455   0.0104785  -0.0003615  -0.0346855  -0.0031123
          361         362         363         364         365         366
    1   0.0344695  -0.0169780  -0.0039760  -0.0359795   0.0214248   0.0202798
    2   0.0010375   0.0222287  -0.0106216  -0.0013208  -0.0194440   0.0204968
    3  -0.0140785  -0.0237373  -0.0025032   0.0117833   0.0228181  -0.0330879
          367         368         369         370         371         372
    1  -0.0071866   0.0163058   0.0013534  -0.0405656   0.0192467  -0.0285479
    2   0.0008456  -0.0152366   0.0401207  -0.0020782  -0.0268936  -0.0212511
    3   0.0099187   0.0279686   0.0047050   0.0053311   0.0207564   0.0063978
          373         374         375         376         377         378
    1  -0.0053493   0.0075657  -0.0009409   0.0291640  -0.0179061  -0.0013561
    2  -0.0027239  -0.0050464  -0.0002799   0.0230157   0.0168581  -0.0026507
    3   0.0015896  -0.0351266   0.0011603  -0.0019416  -0.0255521   0.0050704
          379         380         381         382         383         384
    1  -0.0048394   0.0439560  -0.0006557   0.0260226   0.0071923  -0.0182699
    2  -0.0027047   0.0065799  -0.0057598   0.0063175  -0.0083531  -0.0130814
    3   0.0002931  -0.0014150  -0.0062067   0.0385625  -0.0051124   0.0409949
          385         386         387         388         389         390
    1   0.0097919  -0.0394477   0.0062723  -0.0211946  -0.0112379  -0.0208164
    2  -0.0050801  -0.0163997  -0.0023656  -0.0116538  -0.0052321  -0.1090669
    3  -0.0026089   0.0025929   0.0070026  -0.0364305  -0.0020796   0.0303107
          391         392         393         394         395         396
    1   0.0025835   0.0058332   0.0104537  -0.0181918  -0.0002077  -0.0175988
    2  -0.0065808   0.0425929  -0.0071540  -0.0287838   0.0007289  -0.0196962
    3  -0.0146285  -0.0069615   0.0079195   0.0165509   0.0016025  -0.0250758
          397         398         399         400         401         402
    1   0.0112916   0.0001975   0.0062232  -0.0075792   0.0031308   0.0127370
    2   0.0307016   0.0007884   0.0126172  -0.0364528   0.0083070   0.0342955
    3  -0.0179194   0.0020658   0.0362045   0.0080736   0.0202323  -0.0027589
          403         404         405         406         407         408
    1   0.0270354   0.0024741  -0.0410666   0.0139910   0.0136783  -0.0134865
    2  -0.0122639  -0.0322455   0.0004891   0.0057119   0.0211256  -0.0018055
    3   0.0201343   0.0153905  -0.0187454   0.0085692   0.0680603  -0.0406479
          409         410         411         412         413         414
    1   0.0326280  -0.0107515  -0.0352800   0.0347378  -0.0027498   0.0037124
    2   0.0036932   0.0389548  -0.0268963  -0.0092210  -0.0037523   0.1011100
    3  -0.0268404  -0.0141162  -0.0117390  -0.0261677  -0.0101186  -0.0466470
          415         416         417         418         419         420
    1  -0.0150353   0.0006336   0.0064528   0.0044305  -0.0018923   0.0233068
    2   0.0061822  -0.0435807   0.0179795   0.0309202   0.0018963   0.0126517
    3   0.0050380   0.0143159   0.0110319  -0.0175524   0.0048488   0.0263821
          421         422         423         424         425         426
    1   0.0025452  -0.0270375  -0.0230212   0.0175004  -0.0007000   0.0235617
    2  -0.0004182  -0.0091929   0.0092674   0.0333188   0.0024915  -0.0318916
    3   0.0013924  -0.0264636   0.0351440  -0.0106591   0.0018123   0.0089007
          427         428         429         430         431         432
    1  -0.0146464  -0.0327790  -0.0116250   0.0158842  -0.0013831  -0.0115583
    2   0.0058328  -0.0130723   0.0011150  -0.1017096   0.0063831   0.0451583
    3   0.0395631  -0.0175740  -0.0021739  -0.0024898  -0.0022975  -0.0048332
          433         434         435         436         437         438
    1   0.0172093  -0.0021280  -0.0007866  -0.0079608   0.0346529  -0.0000683
    2  -0.0116104  -0.0342921   0.0022330   0.0248757   0.0104688  -0.0003068
    3   0.0054041   0.0086671  -0.0034381  -0.0253726   0.0104720   0.0017964
          439         440         441         442         443         444
    1   0.0203614  -0.0324826  -0.0048889  -0.0052778   0.0263837  -0.0049554
    2  -0.0245873  -0.0192371   0.0149037   0.0937029  -0.0832033  -0.0012381
    3   0.0198673   0.0070226   0.0090805  -0.0625323   0.0392116  -0.0091587
          445         446         447         448         449         450
    1  -0.0204811  -0.0053208   0.0182130  -0.0010558   0.0152266  -0.0019082
    2   0.1041399  -0.0075989  -0.0432738   0.0083776   0.0298881   0.0040872
    3   0.0094374  -0.0009888  -0.0088422   0.0144246  -0.0055847  -0.0005301
          451         452         453         454         455         456
    1   0.0050876  -0.0179007   0.0075036   0.0208258  -0.0147562  -0.0380846
    2   0.0209259   0.0237953   0.0009498  -0.0336433  -0.0002480   0.0239506
    3   0.0296665  -0.0212103   0.0054187   0.0072071   0.0238128  -0.0111828
          457         458         459         460         461         462
    1   0.0061433  -0.0100986  -0.0133918   0.0382670  -0.0028710   0.0498020
    2  -0.0116153  -0.0318339  -0.0050286  -0.0040990  -0.0013434  -0.0819627
    3  -0.0051938   0.0190962  -0.0376786  -0.0039099  -0.0086877  -0.0586624
          463         464         465         466         467         468
    1  -0.0002447  -0.0268615   0.0137559   0.0182835   0.0005044  -0.0230522
    2   0.0120870   0.0316981  -0.0060216  -0.0151080   0.0027923   0.0202919
    3   0.0003847   0.0244418   0.0074088  -0.0272022   0.0007343   0.0209679
          469         470         471         472         473         474
    1  -0.0025327   0.0254964   0.0225835  -0.0156289  -0.0023947  -0.0233108
    2   0.0016201  -0.0226022   0.0226762  -0.0227872  -0.0006620   0.0201426
    3  -0.0004805  -0.0195591   0.0203659   0.0264473   0.0005880  -0.0221593
          475         476         477         478         479         480
    1   0.0209376   0.0247103   0.0012339  -0.0860751  -0.0039110   0.0328588
    2   0.0261516  -0.0172137   0.0114983   0.0276051   0.0026805  -0.0081538
    3   0.0186693  -0.0253982  -0.0053146   0.0633131   0.0046246  -0.0310596
          481         482         483         484         485         486
    1  -0.0110462  -0.0250617  -0.0008557  -0.0054524   0.0258722  -0.0024562
    2  -0.0116353   0.0142037   0.0028084   0.0109549  -0.0263099  -0.0044661
    3   0.0133865   0.0188571  -0.0053874  -0.0333155  -0.0041584   0.0026364
          487         488         489         490         491         492
    1   0.0131898   0.0301272   0.0007425  -0.0194274  -0.0086178  -0.0006465
    2   0.0145424  -0.0308450   0.0036211  -0.0375421   0.0200446   0.0082491
    3  -0.0113958   0.0079595  -0.0001498   0.0200622  -0.0089258  -0.0046291
          493         494         495         496         497         498
    1  -0.0294714   0.0055310  -0.0421629   0.0029183  -0.0156079  -0.0071172
    2  -0.0247126  -0.0026849   0.0101279  -0.0066260   0.0330236  -0.0017658
    3   0.0171451  -0.0006122   0.0014964   0.0013311  -0.0152223   0.0013004
          499         500         501         502         503         504
    1   0.0282847  -0.0015932   0.0222867   0.0200449   0.0018486   0.0226249
    2   0.0291536   0.0005011  -0.0076249   0.0295701   0.0056364  -0.0241853
    3  -0.0141153  -0.0006449   0.0260471   0.0067575  -0.0003822  -0.0172367
          505         506         507         508         509         510
    1   0.0052735  -0.0254137   0.0215367   0.0062903  -0.0473606   0.0055517
    2  -0.0103710  -0.0273902  -0.0161440   0.0423490  -0.0332170   0.0046950
    3  -0.0044879  -0.0068124   0.0231179   0.0041880   0.0176965   0.0077977
          511         512         513         514         515         516
    1   0.0027396   0.0071547  -0.0053063  -0.0131858  -0.0019481   0.0013141
    2   0.1072740   0.0016788  -0.0429118   0.0100319   0.0365506   0.0014482
    3  -0.0204253  -0.0089209   0.0155748  -0.0104019   0.0016411  -0.0004907
          517         518         519         520         521         522
    1   0.0038964  -0.0298689   0.0303918   0.0095017   0.0053299  -0.0012039
    2  -0.0383667   0.0092576   0.0176606   0.0002545  -0.0920358  -0.0039649
    3  -0.0045117  -0.0246083  -0.0163676   0.0020934   0.0605475  -0.0109069
          523         524         525         526         527         528
    1   0.0053692  -0.0160691  -0.0038071  -0.0045127   0.0248867   0.0090660
    2   0.0439818  -0.0072775  -0.0355091   0.0004069  -0.0189641   0.0355309
    3  -0.0165102   0.0109826  -0.0047757   0.0032431   0.0220051   0.0095867
          529         530         531         532         533         534
    1  -0.0009286  -0.0245173  -0.0001919   0.0244215  -0.0350148  -0.0030998
    2   0.0020660   0.0213046   0.0046372  -0.0237689  -0.0047989  -0.0142339
    3   0.0020152  -0.0194591   0.0023777   0.0200234   0.0156401  -0.0353835
          535         536         537         538         539         540
    1  -0.0041564   0.0081363  -0.0378340   0.0201235  -0.0291860   0.0290389
    2   0.0008539   0.0411444   0.0005221  -0.0182416   0.0128213  -0.0121547
    3  -0.0010371   0.0074596   0.0170358   0.0283938  -0.0210703  -0.0194253
          541         542         543         544         545         546
    1   0.0020373  -0.0123423   0.0011811   0.0086736   0.0015194  -0.0156156
    2   0.0010246  -0.0311313   0.0028809   0.0244404  -0.0012186  -0.0289185
    3   0.0035703   0.0236497   0.0012200  -0.0216928   0.0008503   0.0246267
          547         548         549         550         551         552
    1   0.0072863  -0.0308198  -0.0046366   0.0311329   0.0109730  -0.0080067
    2   0.0279701   0.0150101   0.0005911  -0.0116540   0.0298844  -0.0285268
    3   0.0325850  -0.0159801   0.0001583  -0.0195668   0.0263521   0.0289170
          553         554         555         556         557         558
    1   0.0131273   0.0335654   0.0053650  -0.0095855  -0.0102176   0.0203883
    2   0.0014190   0.0667005  -0.0060719  -0.0302306   0.0005018   0.0164878
    3   0.0026864  -0.0823006  -0.0000089   0.0403636  -0.0122708  -0.0240095
          559         560         561         562         563         564
    1   0.0015186  -0.0130520   0.0012129   0.0099998  -0.0201663  -0.0282624
    2  -0.0035723  -0.0205966  -0.0016694   0.0232377  -0.0279293   0.0162863
    3  -0.0004754   0.0285546   0.0025726  -0.0293914  -0.0165046   0.0203493
          565         566         567         568         569         570
    1   0.0006854   0.0115134   0.0320779   0.0006464  -0.0318815   0.0249449
    2   0.0002104   0.0186817  -0.0010247   0.0016700  -0.0012843  -0.0212377
    3   0.0026035  -0.0303529   0.0176397   0.0013892  -0.0209468  -0.0187797
          571         572         573         574         575         576
    1  -0.0080485   0.0062670  -0.0542754   0.0009359   0.0246614  -0.0180859
    2  -0.0210075  -0.0123023  -0.0462042  -0.0027695   0.0107081   0.0033202
    3   0.0316917  -0.0026071   0.0805202   0.0086598  -0.0367897   0.0176099
          577         578         579         580         581         582
    1  -0.0136776  -0.0039257   0.0031170  -0.0327592  -0.0147651   0.0375824
    2  -0.0136083  -0.0063539   0.0176838   0.0176926  -0.0262748  -0.0878724
    3   0.0313251  -0.0017732  -0.0346179   0.0114092  -0.0022911   0.0745625
          583         584         585         586         587         588
    1  -0.0474257  -0.0115960  -0.0319011   0.0062399   0.0000616  -0.0155392
    2   0.0663318  -0.0127925  -0.0057889  -0.0374027  -0.0001347   0.0139092
    3  -0.0678862  -0.0002501  -0.0147708   0.0088577   0.0002282   0.0328459
          589         590         591         592         593         594
    1  -0.0029041   0.0095631  -0.0103287  -0.0104957  -0.0114501   0.0107156
    2   0.0000729  -0.0137727   0.0338948  -0.0061110   0.0144604  -0.0346005
    3  -0.0014194  -0.0326524  -0.0098060   0.0037969   0.0335693   0.0086690
          595         596         597         598         599         600
    1  -0.0005234   0.0058715   0.0180622   0.0286243  -0.0195086  -0.0310175
    2   0.0177597  -0.0012995  -0.0311765   0.0272775   0.0095238  -0.0031144
    3  -0.0398904   0.0094030   0.0057697  -0.0059920   0.0357679  -0.0226128
          601         602         603         604         605         606
    1  -0.0333081   0.0006475  -0.0032845  -0.0001414  -0.0069638  -0.0020506
    2   0.0114196   0.0001653  -0.0045614   0.0007772   0.0321478   0.0054645
    3   0.0091194   0.0020057  -0.0369246   0.0049920  -0.0135894   0.0371700
          607         608         609         610         611         612
    1  -0.0035533   0.0011985   0.0197029  -0.0209121   0.0118762   0.0054249
    2   0.0073441  -0.0177306   0.0306019  -0.0321769   0.0035347   0.0380318
    3  -0.0043624  -0.0321454  -0.0019363   0.0297425   0.0045715   0.0137000
          613         614         615         616         617         618
    1   0.0272096   0.0158584   0.0004246  -0.0126905  -0.0151700   0.0108681
    2  -0.0196365  -0.0092977   0.0089564   0.0035562  -0.0043461   0.0030000
    3   0.0317637  -0.0264795   0.0032276   0.1079792   0.0024288  -0.0430277
          619         620         621         622         623         624
    1   0.0027777   0.0027762  -0.0022155  -0.0001769   0.0113815   0.0007299
    2  -0.0171554   0.0036136  -0.0024843  -0.0090713  -0.0349659   0.0011776
    3   0.0122791   0.0383063   0.0005367  -0.0348060   0.0116601   0.0078727
          625         626         627         628         629         630
    1  -0.0040015  -0.0153855   0.0062302   0.0097175  -0.0063833  -0.0221267
    2   0.0151415   0.0278555   0.0032732  -0.0600686   0.0207026  -0.0402982
    3   0.0379272  -0.0164823   0.0007861  -0.0800960   0.0091345   0.0018169
          631         632         633         634         635         636
    1  -0.0001622  -0.0098768   0.0148062  -0.0045486  -0.0095596   0.0181759
    2   0.0198342   0.0054026   0.0222941  -0.0065541   0.0011967   0.0013456
    3   0.0321975   0.0003478  -0.1037290   0.0055451   0.0489734  -0.0082144
          637         638         639         640         641         642
    1   0.0004715   0.0027985   0.0111426   0.0402307  -0.0080493  -0.0010725
    2   0.0089809   0.0014982  -0.0085451   0.0007500   0.0363224   0.0112696
    3  -0.0319501   0.0051393   0.0403176  -0.0151675   0.0003182   0.0038924
          643         644         645         646         647         648
    1   0.0167507   0.0000012  -0.0021478  -0.0018517  -0.0170441  -0.0027477
    2  -0.0371374   0.0051764   0.0199409  -0.0184682  -0.0079979   0.0009195
    3   0.0977133  -0.0035170  -0.0404728   0.0021145   0.0289519  -0.0029157
          649         650         651         652         653         654
    1   0.0102430   0.0117555  -0.0066897  -0.0035871   0.0188757   0.0024184
    2   0.0147857  -0.0330919   0.0009863  -0.0067452   0.0363913  -0.0017109
    3  -0.0320118  -0.0078734   0.0020739   0.0022246  -0.0123805   0.0004599
          655         656         657         658         659         660
    1  -0.0230095   0.0255631  -0.0703709  -0.0202459   0.0032285  -0.0217162
    2   0.0358199   0.0005271  -0.0828024   0.0463892   0.0060485  -0.0337486
    3  -0.0017429  -0.0030077   0.0139826   0.0095865   0.0005831   0.0115900
          661         662         663         664         665         666
    1  -0.0046959   0.0203323  -0.0097604   0.0580593  -0.0050407  -0.0236194
    2   0.0093833  -0.0351265   0.0065113   0.0021767  -0.0133137   0.0142177
    3  -0.0010454   0.0046020  -0.0043800  -0.0921902  -0.0042509   0.0395615
          667         668         669         670         671         672
    1   0.0193763   0.0065199  -0.0015757   0.0348379  -0.0013395  -0.0023831
    2  -0.0027689  -0.0211700   0.0013491  -0.0119338   0.0162079   0.0066429
    3   0.0002086  -0.0265804  -0.0017387  -0.0023064  -0.0313283   0.0027455
          673         674         675         676         677         678
    1   0.0076318  -0.0292161  -0.0046864  -0.0195226   0.0143049   0.0052597
    2  -0.0118707   0.0174514   0.0156423   0.0485572  -0.0075864  -0.0020499
    3  -0.0097422  -0.0279474   0.0039718   0.0142170   0.0072990  -0.0014144
          679         680         681         682         683         684
    1  -0.0118399  -0.0037141   0.0153712  -0.0058985   0.0271766   0.0005191
    2   0.0386244   0.0019628   0.0102055   0.0064831  -0.0234908   0.0094593
    3   0.0188076  -0.0092419   0.0354853  -0.0055208   0.0156636   0.0072207
          685         686         687         688         689         690
    1   0.0127132   0.0004589   0.0041217  -0.0338104   0.0009309   0.0136190
    2  -0.0324547   0.0035622  -0.0201594  -0.0053652   0.0043664   0.0332803
    3  -0.0192916   0.0003676   0.0302532  -0.0173831   0.0003855  -0.0187268
          691         692         693         694         695         696
    1   0.0029942  -0.0259566  -0.0159757  -0.0032561   0.0240075  -0.0027396
    2   0.0010136   0.0262420  -0.0297129   0.0006141  -0.0204274  -0.0029205
    3   0.0003532   0.0116703   0.0133321  -0.0006279  -0.0170931  -0.0015133
          697         698         699         700         701         702
    1  -0.0250587   0.0335486  -0.0003074   0.0000796  -0.0106524   0.0327956
    2   0.0251363   0.0064016   0.0137116   0.0022359  -0.0363665   0.0081533
    3   0.0196643   0.0181102  -0.0383581  -0.0049134   0.0050792   0.0179217
          703         704         705         706         707         708
    1  -0.0254702   0.0224259   0.0737657  -0.0057432  -0.0333135   0.0017317
    2   0.0232982  -0.0275519   0.0366174  -0.0165401  -0.0263933   0.0721520
    3   0.0196268  -0.0132562  -0.0582202   0.0492794  -0.0297115   0.0755436
          709         710         711         712         713         714
    1   0.0238264  -0.0281072   0.0736384  -0.0035168  -0.0431286   0.0644801
    2  -0.0091599  -0.0531652  -0.0292908   0.0429572  -0.0291860   0.0838850
    3  -0.0480809   0.0006008   0.0637805  -0.0228780  -0.0211173  -0.0369205
          715         716         717         718         719         720
    1   0.0035205  -0.0353067   0.1094517  -0.0165183  -0.0267884   0.0308017
    2  -0.0493247   0.0009852  -0.0054329  -0.0122752   0.0603804   0.0381893
    3  -0.0170875   0.0428919  -0.0016610  -0.0009446   0.0023655  -0.0906006
          721         722         723         724         725
    1   0.0287011  -0.0500969   0.0862787  -0.0482900   0.0039173
    2  -0.0027292  -0.0172485   0.0545723   0.0257171  -0.0511385
    3   0.0465832   0.0102534  -0.0237255  -0.0041408   0.0213418
  --- DONE ESP SUMMARY ---
 Total job time:  70.81s(wall), 141.20s(cpu) 
 Sun May  3 06:17:06 2026

        *************************************************************
        *                                                           *
        *  Thank you very much for using Q-Chem.  Have a nice day.  *
        *                                                           *
        *************************************************************


