
Running Job 1 of 2 cutoff8_elec_qchem.in
qchem cutoff8_elec_qchem.in_826900.0 /media/work/klemlab/arkanil/qchem_scratch/qchem826900/ 1
/home/klemlab/Desktop/software/QChem/exe/qcprog.exe_s cutoff8_elec_qchem.in_826900.0 /media/work/klemlab/arkanil/qchem_scratch/qchem826900/
                  Welcome to Q-Chem
     A Quantum Leap Into The Future Of Chemistry


 Q-Chem 6.4, Q-Chem, Inc., Pleasanton, CA (2025)

 E. Epifanovsky,  A. T. B. Gilbert,  Xintian Feng,  Joonho Lee,  Yuezhi Mao,  
 N. Mardirossian,  P. Pokhilko,  A. White,  M. Wormit,  M. P. Coons,  
 A. L. Dempwolff,  Zhengting Gan,  D. Hait,  P. R. Horn,  L. D. Jacobson,  
 I. Kaliman,  J. Kussmann,  A. W. Lange,  Ka Un Lao,  D. S. Levine,  Jie Liu,  
 S. C. McKenzie,  A. F. Morrison,  K. D. Nanda,  F. Plasser,  D. R. Rehn,  
 M. L. Vidal,  Zhi-Qiang You,  Ying Zhu,  Huseyin Aksu,  B. Alam,  
 B. Albrecht,  A. Aldossary,  E. Alguire,  J. H. Andersen,  
 J. E. Arias-Martinez,  V. Athavale,  F. Ballesteros,  D. Barton,  K. Begam,  
 A. Behn,  N. Bellonzi,  Y. A. Bernard,  E. J. Berquist,  H. Burton,  
 S. Camps,  A. Carreras,  K. Carter-Fenk,  Mathew Chow,  Jeng-Da Chai,  
 Arnab Chakraborty,  Romit Chakraborty,  Chandrima Chakravarty,  Junhan Chen,  
 A. D. Chien,  K. D. Closser,  V. Cofer-Shabica,  L. Cunha,  S. Dasgupta,  
 Jia Deng,  Joseph Dickinson,  M. de Wergifosse,  M. Diedenhofen,  
 L. B. Dittmer,  Hainam Do,  Wenjie Dou,  S. Ehlert,  Po-Tung Fang,  
 Anthuan Ferino-Pérez,  S. Fatehi,  Qingguo Feng,  Jonathan Fetherolf,  
 T. Friedhoff,  Thomas Froitzheim,  Sarai Folkestad,  B. Ganoe,  J. Gayvert,  
 Qinghui Ge,  G. Gidofalvi,  M. Gimferrer,  G. Giudetti,  M. Goldey,  
 Montgomery Gray,  J. Gomes,  C. Gonzalez-Espinoza,  S. Gulania,  A. Gunina,  
 J. A. Gyamfi,  M. W. D. Hanson-Heine,  P. H. P. Harbach,  A. W. Hauser,  
 M. F. Herbst,  M. Hernandez Vera,  M. Hodecker,  Z. C. Holden,  S. Houck,  
 Xunkun Huang,  Kerwin Hui,  B. C. Huynh,  K. Ikeda,  M. Ivanov,  
 Nayanthara K. Jayadev,  Hyunjun Ji,  Zuxin Jin,  Hanjie Jiang,  
 Subrata Jana,  B. Kaduk,  S. Kaehler,  Richard Kang,  K. Khistyaev,  
 Jaehoon Kim,  Yongbin Kim,  P. Klunzinger,  Z. Koczor-Benda,  
 Joong Hoon Koh,  Elena Kolodzeiski,  D. Kosenkov,  Saikiran Kotaru,  
 L. Koulias,  T. Kowalczyk,  C. M. Krauter,  K. Kue,  A. Kunitsa,  T. Kus,  
 A. Landau,  C. W. Lander,  K. V. Lawler,  D. Lefrancois,  S. Lehtola,  
 Rain Li,  Shaozhi Li,  Tao E. Li,  Yi-Pei Li,  Jiashu Liang,  M. Liebenthal,  
 Hung-Hsuan Lin,  You-Sheng Lin,  Fenglai Liu,  Kuan-Yu Liu,  Xiao Liu,  
 M. Loipersberger,  A. Luenser,  C. Malbon,  Aniket Mandal,  Manisha,  
 A. Manjanath,  P. Manohar,  E. Mansoor,  S. F. Manzer,  Shan-Ping Mao,  
 A. V. Marenich,  T. Markovich,  S. Mason,  F. Matz,  S. A. Maurer,  
 Samuel May,  Alexandra McIsaac,  P. F. McLaughlin,  M. F. S. J. Menger,  
 J.-M. Mewes,  S. A. Mewes,  R. E. Moorby,  P. Morgante,  
 Mohammad Mostafanejad,  Madhubani Mukherjee,  J. W. Mullinax,  Quyen Nguyen,  
 Avik Kumar Ojha,  K. J. Oosterbaan,  Eno Paenurk,  Xiaoliang Pan,  G. Paran,  
 V. Parravicini,  R. L. Patterson,  Alexander C. Paul,  Suranjan K. Paul,  
 F. Pavosevic,  Zheng Pei,  P. Pokhilko,  S. Prager,  E. I. Proynov,  
 E. Ramos,  B. Rana,  A. E. Rask,  A. Rettig,  R. M. Richard,  F. Rob,  
 E. Rossomme,  S. Roy,  T. Scheele,  M. Scheurer,  M. Schneider,  
 P. E. Schneider,  Tim K. Schramm,  N. Sergueev,  S. M. Sharada,  
 Hengyuan Shen,  W. Skomorowski,  D. W. Small,  C. J. Stein,  
 Alistair J. Sterling,  Yingli Su,  Yu-Chuan Su,  E. J. Sundstrom,  
 J. Talbot,  J. A. Tan,  Zhen Tao,  Hung-Hsuan Teh,  J. Thirman,  C. Titeca,  
 N. Tkachenko,  Hung-Yi Tsai,  T. Tsuchimochi,  N. M. Tubman,  C. Utku,  
 S. P. Veccham,  O. Vydrov,  Z. Wang,  Markus G. S. Weiss,  Rahel Weiss,  
 J. Wenzel,  Jonathan Wong,  J. Witte,  H. Wu,  Yanze Wu,  A. Yamada,  
 Chou-Hsun Yang,  Kun Yao,  S. Yeganeh,  S. R. Yost,  Qi Yu,  A. Zech,  
 F. Zeller,  Chongxiao Zhao,  T. Zhao,  Igor Ying Zhang,  Xing Zhang,  
 Yu Zhang,  Zeyi Zhang,  D. Zuev,  A. Aspuru-Guzik,  A. T. Bell,  
 N. A. Besley,  K. B. Bravaya,  B. R. Brooks,  D. Casanova,  Jeng-Da Chai,  
 Hsing-Ta Chen,  S. Coriani,  C. J. Cramer,  A. E. DePrince, III,  
 R. A. DiStasio Jr.,  A. Dreuw,  B. D. Dunietz,  T. R. Furlani,  
 W. A. Goddard III,  S. Grimme,  S. Hammes-Schiffer,  T. Head-Gordon,  
 W. J. Hehre,  Chao-Ping Hsu,  T.-C. Jagau,  Yousung Jung,  A. Klamt,  
 Jing Kong,  D. S. Lambrecht,  Xiangyuan Li,  WanZhen Liang,  N. J. Mayhall,  
 C. W. McCurdy,  J. B. Neaton,  T. Neudecker,  C. Ochsenfeld,  
 J. A. Parkhill,  R. Peverati,  V. A. Rassolov,  Haisheng Ren,  Yihan Shao,  
 L. V. Slipchenko,  R. P. Steele,  J. E. Subotnik,  A. J. W. Thom,  
 A. Tkatchenko,  D. G. Truhlar,  T. Van Voorhis,  Fan Wang,  
 T. A. Wesolowski,  K. B. Whaley,  H. L. Woodcock III,  P. M. Zimmerman,  
 S. Faraji,  P. M. W. Gill,  M. Head-Gordon,  J. M. Herbert,  A. I. Krylov

 Contributors to earlier versions of Q-Chem not listed above: 
 R. D. Adamson,  B. Austin,  R. Baer,  J. Baker,  G. J. O. Beran,  
 K. Brandhorst,  S. T. Brown,  E. F. C. Byrd,  Arup K. Chakraborty,  
 G. K. L. Chan,  Chun-Min Chang,  Yunqing Chen,  C.-L. Cheng,  
 Siu Hung Chien,  D. M. Chipman,  D. L. Crittenden,  H. Dachsel,  
 R. J. Doerksen,  A. D. Dutoi,  R. G. Edgar,  J. Fosso-Tande,  
 L. Fusti-Molnar,  D. Ghosh,  A. Ghysels,  A. Golubeva-Zadorozhnaya,  
 J. Gonthier,  M. S. Gordon,  S. R. Gwaltney,  G. Hawkins,  J. E. Herr,  
 A. Heyden,  S. Hirata,  E. G. Hohenstein,  G. Kedziora,  F. J. Keil,  
 C. Kelley,  Jihan Kim,  R. A. King,  R. Z. Khaliullin,  P. P. Korambath,  
 W. Kurlancheek,  A. Laurent,  A. M. Lee,  M. S. Lee,  S. V. Levchenko,  
 Ching Yeh Lin,  D. Liotard,  E. Livshits,  R. C. Lochan,  I. Lotan,  
 L. A. Martinez-Martinez,  P. E. Maslen,  N. Nair,  D. P. O'Neill,  
 D. Neuhauser,  E. Neuscamman,  C. M. Oana,  R. Olivares-Amaya,  R. Olson,  
 T. M. Perrine,  B. Peters,  P. A. Pieniazek,  A. Prociuk,  Y. M. Rhee,  
 J. Ritchie,  M. A. Rohrdanz,  E. Rosta,  N. J. Russ,  H. F. Schaefer III,  
 M. W. Schmidt,  N. E. Schultz,  S. Sharma,  N. Shenvi,  C. D. Sherrill,  
 A. C. Simmonett,  A. Sodt,  T. Stein,  D. Stuck,  K. S. Thanthiriwatte,  
 V. Vanovschi,  L. Vogt,  Tao Wang,  A. Warshel,  M. A. Watson,  
 C. F. Williams,  Q. Wu,  X. Xu,  Jun Yang,  W. Zhang,  Yan Zhao

   Please cite Q-Chem as follows:
  "Software for the frontiers of quantum chemistry:
   An overview of developments in the Q-Chem 5 package"
   J. Chem. Phys. 155, 084801 (2021)
   https://doi.org/10.1063/5.0055522 (open access)

 Q-Chem 6.4.0 for Intel X86 EM64T Linux

 Parts of Q-Chem use Armadillo 12.8.2 (Cortisol Injector).
 http://arma.sourceforge.net/

 Q-Chem begins on Sun May  3 11:45:30 2026  

 Host: 
0

 Scratch files written to /media/work/klemlab/arkanil/qchem_scratch/qchem826900//
 Executable: /home/klemlab/Desktop/software/QChem/exe/qcprog.exe_s
 Number of threads = 3
 Dec1625 |scratch|qcdevops|jenkins|workspace|build_RNUM -1
 Processing $rem in /home/klemlab/Desktop/software/QChem/config/preferences:
 Processing $rem in /home/klemlab/.qchemrc:
 No nuclear gradient supported for projection-based embedding or EMFT. Set max ideriv = 0.

 Checking the input file for inconsistencies... 	...done.

--------------------------------------------------------------
User input:
--------------------------------------------------------------
$molecule
-2 1
--
0 1
C          43.02034252444705     42.25291733060330     31.13412204234976
O          43.16755778927933     41.18496321439699     31.74005349785317
C          43.14610738881662     43.54903254189415     31.72333776198954
C          43.17005946668397     44.68780736960125     30.99189354632446
C          43.20138016849731     44.68053990120291     29.49349773933734
C          43.44950163687557     43.27885478373938     28.92861977768938
C          42.63120818282367     42.24330270452474     29.68151726840936
C          43.10388515550218     46.01829375740289     31.63918546372767
C          44.08722703186712     47.03183434537436     31.05519609154910
C          43.98911824774724     47.08597478855582     29.53320048382738
C          44.24069354949584     45.68481281755391     28.95393055304060
C          45.03486860124473     48.02600930875402     28.94400880139518
C          44.98262128143693     48.10269960973581     27.41249903439181
C          45.25093057447899     46.70938217666860     26.85493614115167
C          44.24440469470641     45.70533434072559     27.41957414157411
C          45.04939208481872     49.49393967461364     29.36727870335009
C          45.90159922954428     50.17541177030296     28.27883167446255
C          46.10944295937679     49.12906653271827     27.16369632237534
C          43.66735720189449     48.65973499600018     26.86502951291799
O          46.09924732130175     49.74907657652194     25.89828083188774
H          43.16970342584986     43.59373510545144     32.80424906702419
H          42.20383880283332     45.01560032137600     29.18120452037292
H          44.51224065841173     43.03235909479576     29.01422337126006
H          43.17711544301520     43.24899131847044     27.87333508199148
H          41.57256425940102     42.51510706961542     29.63188334358091
H          42.76827444306402     41.23932564689818     29.27317547188506
H          43.24789750628499     45.93187246613208     32.71693792351664
H          42.07815442298732     46.38779700943025     31.48445247457205
H          45.10608598370941     46.75179906432165     31.34119506228370
H          43.87950912194233     48.01426210685486     31.47931678133867
H          42.98470108780820     47.41243372265190     29.25969651328125
H          45.23283973513554     45.35364407502587     29.29024403507237
H          46.01970433446563     47.60996000199930     29.19744500201548
H          46.25988990271351     46.39934255081635     27.14163332923917
H          45.19970177595766     46.71094764826607     25.76385589046514
H          43.24077203965496     45.94296360547473     27.06849969419816
H          44.50916101638195     44.71860738190913     27.03761727945029
H          45.48835317116869     49.62286996784501     30.35237346864366
H          44.03715592911456     49.89486032042086     29.39907717591224
H          46.86060312967602     50.49616971398543     28.67918468056102
H          45.40652327032537     51.04632066096465     27.85193810810323
H          47.08057542079692     48.62605657089379     27.31018500164044
H          43.51819266024943     49.68243695525845     27.19342977198956
H          43.70460879913350     48.66252911920918     25.77781863657416
H          42.81827082328545     48.06603659678025     27.18411759730188
H          46.08944331996987     49.05911454535664     25.22406776626750
--
-2 1
H          45.41157774347086     32.12244644710448     35.07388750867293
C          45.64800001567263     33.16399982718325     35.28300001509245
H          45.16597590574566     33.78254970471116     34.52916549365615
C          45.16322604147280     33.56314920421134     36.67251761887383
H          45.63434400673914     32.93143162119154     37.42870584315973
H          45.46512100160138     34.59468928126675     36.85847116588249
C          43.65175256546527     33.43644637173673     36.77802023319462
H          43.14849954881184     34.03297135085488     36.01655037256338
H          43.34046141526073     32.39665051057263     36.67654812435978
S          42.99328722034819     33.96451623700735     38.39382031477066
C          43.23210840845337     35.75685054379519     38.24457158986358
H          42.71538003290566     36.10185810913381     37.35433248564141
H          42.81587105080268     36.22520592024870     39.12993293664598
H          44.29341790914372     35.97018509766479     38.18320393914559
H          46.72436976484402     33.29903469076440     35.20929412819174
H          46.90138234847262     33.64537985836025     30.91144928049031
C          46.30899999583117     34.45099998096873     30.47100002284683
H          45.90648423713685     34.11207981532677     29.51723165699095
C          45.15928720815098     34.82499106894070     31.41961808203985
H          44.60295675401214     33.91598553263056     31.66365192076855
H          45.56443903841227     35.23279624342698     32.34812048702193
C          44.23464234859460     35.82469662134432     30.78276387901349
C          43.40914275104302     35.43512102026591     29.73713390198410
H          43.41601266165334     34.40864550413670     29.39920723395015
C          42.56660157463132     36.34268349360229     29.12651230487834
H          41.92336699773546     36.01753135727679     28.32013879021991
C          42.53365548271055     37.66155006436684     29.55963604645139
O          41.69437405345069     38.58126580277338     28.98788656550739
H          41.39228282513590     38.25704090385211     28.13048729843608
C          43.34503415648881     38.06433691331883     30.61173968193553
H          43.30469639794040     39.08575158166712     30.95614531714200
C          44.18782236720982     37.14568925791367     31.20850443181433
H          44.81340631392455     37.46897840276048     32.02560351352495
C          47.21390536516351     35.64490256331973     30.19552754340707
O          47.22503245604775     36.21519809216749     29.11602736155803
N          48.00421889484192     36.01532485749195     31.21696821221316
H          47.97633969789836     35.49686367921008     32.08104859420342
C          48.93800000514171     37.12599997278404     31.15600002910397
H          48.60055445271491     37.78236759858353     30.35211628908489
C          49.02713357943310     37.89335660466758     32.47905919306621
H          49.37993814681244     37.19493240425319     33.24935998898701
C          50.06048838884280     39.00973664564360     32.34046007122235
H          49.79561805377121     39.67803519982525     31.52721287733251
H          50.10884289058935     39.58942450071174     33.25856407538033
H          51.04719627416300     38.60259422375014     32.13143681536256
C          47.66994850925831     38.43467088433336     32.95241685752278
H          47.01221982691261     37.58821632062899     33.16310846404038
H          47.82949673456682     38.96071932252644     33.89572632192417
C          46.97615398693268     39.37498501792528     31.97506125458631
H          46.72636629695707     38.86282726670501     31.05008705280145
H          46.05477397682584     39.74902827876372     32.41487448600251
H          47.60229230502028     40.23278510005142     31.74958576421957
H          49.93460638613522     36.74881355998051     30.89267757261235
H          49.28592236047497     35.26586958700486     27.06893203361852
C          48.83900031920166     35.38700088031565     26.08099942022960
H          49.47685447671113     34.92576712174166     25.32902615422034
C          47.44001456649318     34.76326957885993     26.07015379015077
H          46.78901682077549     35.37181392240063     26.70150315869951
H          47.04688978033483     34.79025261635926     25.05132859155758
C          47.39987449087473     33.32570439496244     26.59678938786055
H          47.80566553975958     33.32626306353418     27.61517939185911
C          45.95068483144697     32.84353322249504     26.65242713317843
H          45.53654936811600     32.77837682487215     25.64826216015479
H          45.88754727064666     31.85924850363140     27.11233721221701
H          45.33830221316113     33.53550333279581     27.22635553252490
C          48.23266465633048     32.37647828188414     25.73945737311379
H          49.28542632086239     32.64263978542843     25.77271717748155
H          48.12992532402541     31.35367211796204     26.09721082684611
H          47.90001494720013     32.41322848759526     24.70403276175601
C          48.71410585279754     36.87270362081609     25.74773645107084
O          48.92431346781109     37.31528275253718     24.63553857843745
N          48.35087302494249     37.65046452099542     26.79184130657208
H          48.04352004434469     37.20960868670507     27.65043731802474
C          48.10600000349196     39.07699995438692     26.63099991501967
H          47.40612047359007     39.23910596676450     25.79992204738150
C          47.51842135880183     39.66920212467014     27.92370847809042
H          48.16084610868824     39.35684457646695     28.75534059385478
C          47.49728902788743     41.19462624000241     27.87470751958642
H          46.91990145656118     41.53265919879709     27.01940434827879
H          47.04698962550315     41.58705749887582     28.78374198195455
H          48.49926458171217     41.60151737328071     27.78177324868038
C          46.10307324890152     39.14144635083644     28.15995751053206
H          46.09313435936167     38.06249658338775     28.28772705174011
H          45.67942084771278     39.59175366143480     29.05455963918802
H          45.46371672569399     39.39698792890032     27.31856724777318
C          49.40321322141969     39.79560625628704     26.22501997529609
O          49.39733217162966     40.74535155064725     25.46355096689109
N          50.50932317044012     39.33747001972933     26.82983405521213
H          50.45810232646504     38.46283045793835     27.32926463894070
C          51.83600000889167     39.82499998315073     26.48599999947492
H          51.78428250580006     40.91788379165519     26.46369709446030
C          52.88405865255466     39.36206750597346     27.48527764513261
H          52.64972252445523     39.68347478760788     28.49870789676918
H          52.99233780824824     38.27737637998995     27.45012821014321
C          54.19505032225169     40.01375115706141     27.02416229588001
O          54.42456301144078     41.19013074042330     27.34354750292828
O          54.90984133337231     39.31020577395152     26.26332830220646
H          52.10253085277908     39.47946986281354     25.47969554624038
H          48.70291147567053     38.79633553291063     22.62945900434866
C          48.73899999002573     39.50499994173579     21.81200004436787
H          47.78060140453753     39.99988541779317     21.71152088883743
H          49.50364199546294     40.24039419375722     22.02225468771741
H          48.97823429328412     38.98687559513959     20.89152507791169
H          44.72109245281548     37.12919433748976     20.71273445611577
C          43.66900006094848     37.30899999859577     20.91899999339891
H          43.59909004601420     37.99139080314912     21.76096423127163
C          42.96580319008633     37.88451325332013     19.69518940351758
H          42.96142229357346     37.11147621758397     18.91445527111187
C          41.51303324370964     38.21160833907466     20.03930325499566
H          41.46953997523906     38.97707059628048     20.80945655352844
H          40.96347910382112     38.55731803908998     19.16641782649397
H          41.01577315967794     37.32316620269554     20.42271708670831
C          43.73244702723937     39.08841129284445     19.12707438984388
H          44.71916694203770     38.74354692132652     18.81064963884283
H          43.21492169064756     39.44335014615828     18.22919177028916
C          43.92126391112554     40.25396473658894     20.09203275066650
H          44.53196518441291     39.95619920733927     20.93881931464739
H          44.43478125634049     41.06957182866515     19.58754269992614
H          42.96999811182212     40.62815838590158     20.46330819348118
H          43.21216884988517     36.36492618559482     21.20883537850752
H          43.54068981334251     34.30903941561632     24.67476725036127
C          42.59499998958345     34.65899999951018     25.08100001045609
H          42.60007812449781     34.48007282988916     26.15396847236156
C          42.40512043462125     36.14722730110168     24.79007152481744
H          42.43473768181360     36.29576145161835     23.70437485145817
C          41.03774857621134     36.60701024307637     25.29244502429615
H          40.94447654861917     36.41414347802587     26.35847507639856
H          40.88223777545249     37.66795576554838     25.11263591097180
H          40.24614757870169     36.05852134851506     24.78552544271290
C          43.55820226257775     36.94663740460386     25.40716064943097
H          43.55568036301531     36.82335517250664     26.49234144325162
H          44.49574210828867     36.52696298106253     25.03639058378115
C          43.52248557473484     38.43114897750017     25.06397447627632
H          42.72561630226094     38.94740868636572     25.59425816338424
H          44.46761408229799     38.89342480668677     25.33312464037298
H          43.37048650309210     38.56928090348956     23.99532437987584
H          41.79192633950039     34.07240242262536     24.63908466694651
H          37.69790553338404     32.57393625160502     28.12359303083280
C          36.63399977920517     32.65399973732947     28.33599989133655
H          36.48926695465362     32.53050899921163     29.40601884676010
C          36.10274042479630     34.01824483123568     27.88354059745105
H          36.21427467785622     34.10394135960333     26.79997213262673
H          35.03909239487469     34.08389791836024     28.12210421860433
C          36.84430025080408     35.13855396665344     28.55876935773587
C          37.97924672288890     35.69136464440965     27.98322321361910
H          38.30865389817717     35.34808818126390     27.01200279958661
C          38.69952552265750     36.67832119969025     28.63051800728052
H          39.56771526725964     37.11052838933397     28.15498001082567
C          38.31558042631001     37.12565003000789     29.88975220274888
O          39.01635292202213     38.05026358297371     30.58540063124172
H          39.73690787108942     38.42345683742490     30.05352759383858
C          37.15806793982902     36.59756594187379     30.45940462497992
H          36.83968958195131     36.95975785598120     31.42337155900220
C          36.43715045753223     35.62464609728832     29.79652921731845
H          35.53511558018499     35.23743212718745     30.24837202103319
H          36.11263425424914     31.85155207705753     27.81870851602527
H          33.33689023657521     40.77373569942600     31.42714072124044
C          34.28099902433209     41.31900000362680     31.36400031108344
H          34.97537975027122     40.90678270758148     32.09463822654575
C          34.84534951622096     41.21058321852784     29.94332652216549
H          34.10899666089058     41.64746405547535     29.26014608942949
C          36.14358928138151     42.00605151877244     29.82627659263020
H          36.88445328004183     41.63463841954366     30.52967734421871
H          36.55288101750914     41.94313576791586     28.81888315212330
H          35.96085823256359     43.05400713958451     30.04589677137352
C          35.07412258053395     39.74757341437962     29.56310874597883
H          34.17093453056750     39.16113319370358     29.71657510691691
H          35.35193475083397     39.66130451525828     28.51158254571774
H          35.86684137552677     39.31570115962563     30.17149298291854
C          33.98756121584257     42.78544570564775     31.70210530586161
O          33.37641506640267     43.51299112659033     30.93552982605191
N          34.46561831134735     43.19631732647804     32.88952778299049
H          34.94609164124345     42.53607630194508     33.49484178133586
C          34.25100003940202     44.52899999799421     33.42999993611708
H          33.65427078971142     45.08053336213460     32.69655143345714
C          33.53318636266151     44.47347424373906     34.78578724477833
H          34.16770408184939     43.92413652571739     35.48558462859203
H          33.43065281410687     45.50206102961493     35.13892471913555
C          32.17149988362038     43.80432065206708     34.72472093471350
H          31.45378470862532     44.39918262364832     34.16115559306893
H          32.25418122669971     42.80781573373086     34.28860567489079
C          31.61169316826768     43.61017986782321     36.20092563868845
O          32.28680520984481     42.83966142298436     36.89616379822495
O          30.59280880786123     44.23541756052705     36.46562457684218
C          35.63030451657960     45.16820655112566     33.61607177525809
O          36.36496784902831     44.83007893672030     34.53449260679404
N          35.97241855525735     46.06523049841799     32.68830512143378
H          35.33989040192701     46.28001761136329     31.93223459674646
C          37.33899999854878     46.52400000051125     32.53100001010642
H          37.81088894667855     46.47660528575873     33.51307533672310
C          38.05247417620336     45.56048932227208     31.56905406386055
H          38.12071139049978     44.57478163388681     32.03881361641479
H          37.46403916691600     45.45944616651968     30.65468612414111
C          39.48112005131163     45.99422084411960     31.16726150699786
O          40.06993904246295     46.83395351300850     31.85726000910082
O          39.95288696274793     45.43279771021545     30.14703834058382
C          37.37030502212873     47.94559433208840     31.97096258726939
O          37.14400388190874     48.15312567937664     30.78384170458918
N          37.67243890236401     48.93086106736433     32.82221198663846
C          37.64857062599196     50.31493072265558     32.37324703978630
H          36.82853983130708     50.45324023518925     31.66578735509128
H          38.59256933317506     50.54913165376083     31.87017829605703
C          37.49797586103533     51.12051903674457     33.65656670235910
H          36.44581163660833     51.18135938065074     33.93579566723102
H          37.90718035005040     52.12427762086730     33.56701315535503
C          38.25480013353143     50.26428859934651     34.66658310587398
H          37.99092246312832     50.48569984823764     35.69830122604866
H          39.32966040998817     50.40297685082682     34.55076756184097
C          37.86200002548081     48.83799999265665     34.25999998584322
H          38.64949928492677     48.12699751886886     34.52004255912961
C          36.54239167374359     48.44294428247314     34.95175991896716
O          35.45320989450951     48.63929722790222     34.44536058886450
N          36.73749608941035     47.93517860826906     36.17535099684461
H          37.67833867977443     47.67778983142254     36.44888924544029
C          35.67100002086973     47.58600000037301     37.07899998591666
H          34.72859649035345     47.73491205259743     36.54577778450042
C          35.77496721880643     46.14676252461869     37.59264642790396
H          35.64652022609543     45.46112071150036     36.75507480502305
H          36.77127242138725     45.99596408514206     38.01696933943445
C          34.72632292484158     45.92820287369539     38.64641191806029
C          33.39669292444856     45.72617900257162     38.30082990286255
H          33.11069055644870     45.67592232108944     37.26373323384651
C          32.42434546390286     45.57905060919161     39.27210676587178
H          31.40143468536671     45.40850781024596     38.97100681386515
C          32.77026901579453     45.63817721293946     40.61210916355153
H          32.01323389836870     45.52171906910943     41.37601640890572
C          34.09010541386694     45.85232275023993     40.96991769328573
H          34.37208462218327     45.89476421832548     42.01142872146866
C          35.05781202291080     46.00166913608095     39.99237706577093
H          36.08536938105444     46.17443176020513     40.27763329297250
H          35.69197219030149     48.27158669760974     37.93778956830811
H          36.94423081100424     43.84727280479306     22.30145960180189
C          37.40400001120134     44.34200000057278     23.16499999900494
H          37.19401752956183     45.40997733440744     23.08613582802064
C          36.77507679196887     43.78669863226101     24.45117041040905
H          35.69575158636914     43.72798914150371     24.28912534476169
H          37.12833756066919     42.77342995188460     24.66124892123621
C          37.03096411598807     44.67382330855494     25.64013419258438
C          36.43019160710976     45.92565520542840     25.70237917229800
H          35.79310214708482     46.24927475450257     24.89079738192657
C          36.61812594350997     46.74254645589692     26.80202038354991
H          36.13515177484560     47.70700092674069     26.84622834868167
C          37.40843796177835     46.31844607688058     27.85746047110610
H          37.53039529286688     46.94737115740278     28.72704267222364
C          38.01945287017401     45.07585937527487     27.80035337357254
H          38.64948329276213     44.75491852811119     28.61779158049080
C          37.83526167294977     44.25987655278356     26.69303334746161
H          38.30435823304597     43.28279218911790     26.65972466688867
C          38.89501909024850     44.16239865397640     23.01148213292343
O          39.62752352080244     45.05720720466382     22.61166012186548
N          39.36876200833596     42.91171587274804     23.18237626957767
H          38.79369240549514     42.23347625985364     23.66427019220350
C          40.79299999431631     42.62699999081303     23.18999990247568
H          41.28143417103805     43.17999399784762     24.00473522456129
C          40.99290085878881     41.11701895986288     23.41808900208374
H          40.54879836203464     40.56561250345879     22.58537786002878
H          42.06424693387009     40.91451808458941     23.44543723038382
C          40.34764044339139     40.71822156709585     24.71760896085892
C          39.08441900654569     40.14009180440026     24.75212340754945
H          38.58041713812010     39.88600782943493     23.82803778481389
C          38.45793026406761     39.85611556353533     25.95582264824894
H          37.47352046442333     39.40833203151344     25.96380563609933
C          39.09811547760881     40.14786016172964     27.15469633854315
O          38.56336503373432     39.88819247541902     28.36502738865714
H          37.63640893900188     39.62153829602790     28.31043230373198
C          40.37221327637678     40.71761015549735     27.12648773835668
H          40.85362856083681     40.92915790925051     28.06508700813429
C          40.98021717328376     41.00423933180948     25.92479489281028
H          41.95910834142103     41.45897869396462     25.91842083878063
C          41.48686826564828     43.06101343740327     21.90412225018521
O          42.65472081969146     43.40172642721471     21.90403894680198
N          40.77322298259208     42.97564855037387     20.76371168725603
H          39.78169333288276     42.79881120783591     20.80183401192723
C          41.35899999852714     43.40399991435892     19.51000006224643
H          42.37948313624044     43.00327006320629     19.47582657675850
C          40.56776849740621     42.89412707469540     18.30870375953964
H          39.51469427848718     43.16303172582449     18.41939951490827
H          40.95467593187525     43.40665750593767     17.42628063840104
C          40.72754494399240     41.38789748434988     18.13381433644093
H          41.79361290153221     41.15688598517595     18.13754765196676
H          40.26605722967145     40.85944048674745     18.96863257797857
C          40.12444607817083     40.88643326407137     16.82516419609778
H          39.03729968452335     40.99399640485187     16.83780676253510
H          40.52568261799705     41.48297390506264     15.99131720396462
N          40.43089835030649     39.48234475840422     16.67346040211862
H          41.38363619888714     39.23008278115800     16.90193655941086
C          39.80732313526502     38.67987508524085     15.75609006883279
N          38.70961268617064     39.14905630381984     15.05921818386963
H          38.81530664253315     40.06551178752565     14.64733804566501
H          38.29837987980665     38.47358875196372     14.43417636776931
N          40.01567399280093     37.31276355792324     15.82556109724925
H          40.81266970842823     37.03483425398014     16.37695189187951
H          39.93918208845657     36.80977014331632     14.95277713718307
C          41.52628659785756     44.93391590927907     19.37486461061984
O          42.30950309050712     45.36993152557883     18.55645163787670
N          40.73137926483408     45.68866299656758     20.14594780623440
H          40.26676861558343     45.28624694555735     20.95435029602768
C          40.96500003095927     47.12199995898246     20.24499997565251
H          41.17093835913354     47.49160250263454     19.23551235349045
C          39.79232210443066     47.85886557981219     20.89973721022360
H          39.86200874074975     47.73817705621174     21.97915396070799
H          39.89113929681937     48.92156381869004     20.67468143210183
C          38.42688040345241     47.35948370064805     20.43258740833618
H          38.27024426477050     47.58368634159589     19.37694966102216
H          38.36332083442534     46.27857375813223     20.56766535222824
C          37.26394070271241     47.96291566441171     21.21456671738868
O          36.29352993491524     48.43421281246791     20.65740160801083
N          37.34397074523310     47.84454173339869     22.55556282542183
H          36.62174439194947     48.29590521732525     23.09453616077080
H          38.19890917189770     47.60725859155812     23.04796103756139
C          42.23901773304185     47.29130653123549     21.09702557182988
O          43.25859745024257     47.81223236278273     20.66451199642043
N          42.15265580029762     46.73671203313515     22.31056006695812
H          41.26140148201218     46.37224557520969     22.62608621232992
C          43.14600000979345     46.94499998145452     23.34199999062517
H          43.18370336131504     48.00469011953819     23.62102984714323
H          42.84933615928218     46.36801106306882     24.22060484446646
C          44.57227656417444     46.54609625220098     22.95856560075505
O          45.52371313208296     47.24604633213644     23.27038396434548
N          44.69251658867226     45.39373004855962     22.28751939107316
H          43.88327087112413     44.79645731771099     22.16169586360478
C          45.97499999609474     44.78300001321983     22.00300006529998
H          46.74926273610921     45.33958311431972     22.54110308133462
C          45.97940871795554     43.31539129310664     22.45861506567358
H          45.24867257916186     42.77126901106868     21.85449437527409
H          46.97054768619370     42.90468154761977     22.26785799636661
C          45.64147429414472     43.12345124976726     23.94045809831940
H          44.65776331284850     43.56620127134583     24.13807771574727
C          45.56891077609070     41.62814432901443     24.24424925607693
H          46.55308437275070     41.17880249791566     24.13467684673833
H          45.22526758321663     41.46607076743544     25.26404476714195
H          44.87790295694369     41.12905533844224     23.56658840616357
C          46.67988242028752     43.78730810573287     24.83677035864298
H          46.68048599041530     44.86392301326482     24.69832303772858
H          46.46255665900277     43.58643745372246     25.88290960693316
H          47.67013480142455     43.40227833443114     24.60982581674415
C          46.33921857160285     44.80761512878227     20.51975461112658
O          47.44152346304898     44.43057805886161     20.13385934051952
N          45.37983707162790     45.22826901169309     19.69271792915233
H          44.52014261800404     45.58790709779787     20.07873405185989
C          45.48899999391271     45.19800002248010     18.25399998692252
H          45.40489017931967     44.17105490003975     17.88310627157414
H          44.67054643829604     45.79034149013125     17.83823115700047
C          46.79972584692401     45.76401806465039     17.70362359718341
O          47.27827548879198     45.34667829650538     16.66661502444229
N          47.34674995845172     46.76245549152538     18.42113517889542
H          46.89223451217624     47.11596817711708     19.26097782123217
C          48.51000028998556     47.46499999551828     17.94699997745396
H          48.50730208601489     47.42953098139418     16.84938792930871
H          48.46047331670317     48.51127150903083     18.25668045234200
C          49.85994073467012     46.90873796236357     18.36265765148148
O          50.88459166571319     47.53918630222507     18.11736713257951
N          49.86821363780003     45.71566369601351     18.96145597846843
H          48.99099250142550     45.26297337203814     19.20111543567037
C          51.09700002888805     44.96799987774908     19.12699993476788
H          50.85437876218020     43.91071378104015     19.23692683436566
H          51.70820608941648     45.10561429297343     18.22606820116402
C          51.95243842232883     45.38926000662417     20.32082154951916
O          52.32864201074667     44.57362760422326     21.15105734992824
N          52.26445509970506     46.68667590537697     20.34177596236445
H          51.92639359590788     47.26882631075962     19.57338146798547
C          53.13000000997125     47.28000000590248     21.34800000796836
H          53.92219414649706     46.55068971106309     21.56465492937723
C          53.72221627447140     48.58766579230236     20.82586294911947
H          53.85017692087885     48.49359557656172     19.74522081055253
H          53.00732412260695     49.39152389584283     21.01197507577769
C          55.07480676238191     48.97108769388795     21.43492056326338
H          55.78936499432374     48.15903621364543     21.27636804510776
H          55.43832715036147     49.83777256149882     20.87877619584931
C          55.02928689970995     49.32830161019216     22.92615307208868
H          55.73144918613176     50.14130238878806     23.13008902268244
H          54.03038797183031     49.68365785349739     23.17913230761057
C          55.38413946021691     48.14657785917768     23.83905534103488
H          54.79091329192391     47.27218330272051     23.56745489153825
H          56.44306467793849     47.89471597567530     23.70308021592500
N          55.16962350540592     48.38091412547418     25.25832969624096
H          54.17351692802768     48.42897160139028     25.45488925842168
H          57.06222032392989     48.64981268540870     29.63325117010235
H          55.57295138464841     49.27391849905040     25.52554615098382
C          52.32482902744145     47.49110868696087     22.65924159601865
O          52.09138015803207     48.60339314672353     23.11635656056860
N          51.93381347005840     46.35668945172613     23.22634123243369
H          52.11725753711679     45.46633524138976     22.75974260027830
C          51.42499996725163     46.22900002896640     24.57899996929591
H          51.65558340021293     47.15337604256199     25.11786637208108
C          49.91136069640045     45.95883966765818     24.65679960488443
H          49.69956879302730     45.01778698283668     24.14296676432387
C          49.50553610854511     45.85589716872787     26.12471263226212
H          49.77959410025885     46.76123573296490     26.66379862021055
H          48.43117492064802     45.72096992437986     26.20496778475943
H          49.98960041421193     45.01027042660439     26.60688030476617
C          49.14620917183615     47.07916753991289     23.95724367485986
H          49.39576403124759     47.10513749409478     22.89934957210023
H          48.07499606885735     46.92246622386642     24.05148749159921
H          49.39035760382803     48.04263744138685     24.39791115415972
C          52.22825905238020     45.06440817760605     25.15034544967062
O          52.39880950594326     44.04349364030417     24.48532535608532
N          52.80078652432678     45.26055408630264     26.33373805824932
H          52.63689611769957     46.13186860117042     26.83392470692664
C          53.48299999870028     44.20399995575426     27.04800000706032
H          53.39798156078616     43.28092286907176     26.47286999211121
C          54.96367650610336     44.51859676069252     27.32610680158317
H          55.03036318008911     45.12257457555390     28.23461741887431
H          55.45183832982267     43.56250670239588     27.52042935759752
C          55.67807292656415     45.28028574768363     26.20774050860077
H          55.24087337599221     46.27246471150813     26.08201420687344
H          56.72052449060037     45.41873851654679     26.50946218680284
C          55.65404438295876     44.57849964225391     24.84772623454130
H          54.63823732267718     44.49035829448156     24.47654819770960
H          56.22274479160551     45.18367599062936     24.13320555276324
N          56.25184138832547     43.26497575533210     24.90978404384595
H          57.18493607530703     43.24710028980068     25.29378842742982
C          55.63868506664146     42.06846468582989     24.80904475609294
N          54.38996354878611     41.96757342891388     24.38500570450695
H          53.74548374532389     42.74910187818180     24.30455906156098
H          53.95997743452544     41.05750815311756     24.33325350915830
N          56.34860613682744     40.96600737660034     25.01354029403523
H          57.27853124000876     41.09422645900637     25.38134219708655
H          55.78887450132881     40.13901149750986     25.50059402375563
C          52.77392164071448     44.04003243052331     28.39899926862128
O          52.18062617229081     44.99292036636918     28.89717455143544
N          52.87117816262084     42.84790255011620     28.97312199418905
H          53.38359771634585     42.08450113065244     28.49885694137243
C          52.17999998185486     42.58200002032682     30.22400000413683
H          52.14515335152036     43.50435864091428     30.81077658223592
C          50.75657171983165     42.08620621727296     29.93736201771241
H          50.79581193711804     41.12068208917871     29.43718786871514
H          50.19804770358599     41.99111954536706     30.86498474686056
H          50.25058872178837     42.79524611364040     29.28653803581579
C          52.91201448978098     41.48295998731707     30.99073201505824
O          53.30527646563705     40.46577221875065     30.45053895166319
N          53.03256319772824     41.69382212255683     32.31411335547372
H          52.71676304012207     42.57052975385947     32.71866489616743
C          53.69800046833429     40.71700007680744     33.14800014549564
H          54.09226751632619     39.95467903282770     32.46929118158690
C          54.83227013123005     41.33478522096705     33.95196299797758
H          55.49723860276979     40.56109864548496     34.33604266564957
H          55.39182657753515     42.04201848709216     33.34197829928726
S          54.14680627138041     42.24005790855671     35.39713188647966
H          55.24946818692193     42.93122743547274     35.68055851795634
H          52.97924520043310     40.24559323524326     33.83001807176105
H          45.38960992849635     38.78454826523723     40.52632157734195
C          46.46000000672397     38.72300000421924     40.34000000407499
H          46.94592875523378     38.31308663040063     41.22133851465998
C          46.73317226477615     37.84182140337060     39.12587715005182
H          47.80444509787530     37.81859890627232     38.91216918712167
H          46.41885179524445     36.81809656158944     39.34331304836140
C          45.98553213798033     38.33428058262093     37.89502588962465
H          44.91201918862772     38.36354452138035     38.09013384590652
H          46.33377141276144     39.32106654894817     37.58551669909615
S          46.27501185635073     37.18316910242608     36.49953966077673
C          44.91098829496794     37.64461872675668     35.39446143792690
H          45.05674175073710     38.65111315196397     35.01293750146214
H          44.91598262614319     36.93211785236666     34.57630886532235
H          43.97161238336322     37.56217263131568     35.93166698579173
H          46.83950713051218     39.72957663926479     40.17478656709466
H          49.45317047307809     42.78025601398197     37.71531604254693
C          50.25400000285998     42.79200000401485     36.97499993911882
H          51.21001843063880     42.60699194643179     37.46935233163272
C          49.99792965164851     41.71330808130001     35.91251361307446
H          50.79036751587123     41.73799360375236     35.16034458645689
H          50.01833690196964     40.73283745027644     36.39757350487543
C          48.66208864071103     41.93624040532233     35.26136769695539
C          48.56539299362698     42.41616433368679     33.96356148547817
H          49.46707943596129     42.61598788429209     33.39966067082113
C          47.32573768230735     42.65674307120327     33.39495407138165
H          47.25981997635004     43.03188161254835     32.38414575745338
C          46.17203114666384     42.43138043378150     34.12338725679811
H          45.20602367308764     42.63353011699332     33.68977301371805
C          46.26065176034007     41.95918659579713     35.42181351160330
H          45.35971461750281     41.80659912626060     35.99739924869503
C          47.49713373916063     41.70821483317567     35.98356017170167
H          47.57005474098835     41.35120622691426     37.00123518453669
C          50.27037910626776     44.17717737743541     36.35959612802962
O          49.40220113877026     45.00919409328442     36.52933308575631
N          51.35635775660503     44.41673318827714     35.60582277373775
H          52.04698448707052     43.69750265702994     35.45322886110939
C          51.57200000160733     45.67199998759322     34.93499999656451
H          50.76758220266399     46.35055467531789     35.22761204607009
C          52.92769292334221     46.25174035485529     35.36179179944303
H          52.85175540792753     46.53196828411148     36.41162752572104
H          53.68986937257483     45.47413112218989     35.25601508418685
C          53.32101507961142     47.47001075954264     34.53554471431708
H          53.52044086558797     47.16914307737483     33.50608311226286
H          52.49134352211768     48.17644919931881     34.52605076047744
C          54.56171465845679     48.15961544916194     35.10000075450549
H          55.28999686690810     47.40531467897358     35.42703113985394
H          55.03200475660567     48.75450132904125     34.31022081863429
N          54.18768962009697     48.99860982852756     36.21565362765573
H          53.28708203061770     48.75133077464925     36.74728385292740
C          54.86323423848356     50.04019985018127     36.64876747722169
N          56.06857590227099     50.37085885050164     36.09883087020546
H          56.30370362231502     49.99186708817091     35.19511175444327
H          56.42602681512464     51.29194025388691     36.28684207784087
N          54.39690409075644     50.73123207991696     37.67095313543740
H          53.40732027314773     50.53396349350943     38.10808270570968
H          54.90236329283203     51.53816832620585     37.99044621744053
C          51.54310340975141     45.45758598786657     33.42073876178545
O          52.06658193776387     44.47476540020519     32.89699429916212
N          50.91686632656881     46.42525141425633     32.75506128943280
H          50.54060214873561     47.21550613973658     33.27471298179286
C          50.92899999235957     46.54000000811861     31.31600000359508
H          51.43925250110962     45.65605674955880     30.92061103512707
C          49.51093520594634     46.57564909101234     30.70813481518569
H          49.63188533161272     46.70400000363630     29.62782637822742
C          48.80391253231772     45.25292285610933     30.98352943975711
H          48.70026465678266     45.10073995277014     32.05556078118047
H          47.81211555847199     45.26203405251498     30.53720894767687
H          49.36618263878918     44.42531813237265     30.56362714422206
C          48.69046580370191     47.73127392443049     31.25961337555031
H          49.19815965877559     48.66939649831419     31.06306388455772
H          47.72003720410992     47.76961810145673     30.77114863754082
H          48.53658595201863     47.61160001452239     32.32935458994262
C          51.75374748789867     47.76803160860412     30.93538736432173
O          51.83768909099218     48.75432231154844     31.65933483132969
N          52.43609860409039     47.65676633642950     29.78738254600021
H          52.33244527205553     46.81286032479854     29.22771056823808
C          53.19700001689001     48.76299998827363     29.24899999096171
H          52.91216022419532     49.64579415402366     29.83372264305402
C          54.71233703656356     48.58955748728945     29.41601179870757
H          55.05715226319254     47.74646913598176     28.81176132033126
H          55.16771564451531     49.51181634816552     29.04610998196825
C          55.02303615801694     48.39495357450522     30.90895018575427
H          54.24753208934398     48.87136020508068     31.51186546700740
H          55.00198012504023     47.33071936522960     31.16285168053217
C          56.34593143275760     48.93913854819645     31.39127464103067
O          57.35071644832816     48.95286140289121     30.50575549573810
O          56.52491715216023     49.31939475253463     32.51960623312658
C          52.76562192915713     49.01382034671268     27.80107586840299
O          52.60132063045166     48.09310766387593     27.00836509263602
N          52.54861997407522     50.29513774502862     27.51250518309495
H          52.83418673589085     51.03662091285420     28.15086123066569
C          51.95599999089203     50.75300001847454     26.27299999861723
H          52.48650535490548     50.28537408306446     25.42899910539714
C          50.48085187263906     50.34444093099929     26.14882712779255
H          50.12304101726672     50.64087329721723     25.16391467064543
H          50.43189127116066     49.25551661539161     26.20824739423912
C          49.56544509196762     50.93573850048700     27.20988690873159
H          49.83311415482253     51.96304423126814     27.45008182258200
H          48.53226297554147     50.90269523382504     26.86407389439297
S          49.63112781892673     49.96336243522700     28.76289666738090
C          50.20078876783854     51.22667885267597     29.92783945016955
H          49.41682909860025     51.96357299620495     30.08046344232704
H          50.41786897497097     50.71860860530847     30.86021724967143
H          51.09907871055476     51.69650284818985     29.54209199107119
C          52.19641851114835     52.26613016405768     26.17061177953036
O          52.91386308277353     52.84303922456672     26.97217454592177
N          51.60118687929344     52.88103962341916     25.13814264503005
H          51.10372875178189     52.34278422014307     24.43658046225414
C          51.96799995068633     54.23299981961739     24.77400002645508
H          52.81490245625584     54.50076485583715     25.41813302547274
C          52.40051745344379     54.30182462237372     23.29688887307402
H          51.51212801038304     54.11319536126313     22.68711039091077
C          52.93227172179723     55.69823769359316     22.98219013046721
H          53.80315758842586     55.92146335372989     23.59644445104874
H          53.22366316934361     55.76204238476286     21.93632413840100
H          52.17180642510156     56.45158844324065     23.17092537579484
C          53.45624028865770     53.24311262297504     22.98841284511481
H          53.03300784895561     52.24622837133931     23.05921155946944
H          53.83474601747748     53.37989118853528     21.97827284252500
H          54.28990729023506     53.32225473495117     23.68397397871406
C          50.83334059211724     55.25068087116109     24.99488400725345
O          49.85600702388997     55.31121254017365     24.28004610176979
N          51.10128906831786     56.14333949572850     25.97441629978720
H          51.78405069810084     55.89046729621704     26.67240739299579
C          50.22600005184879     57.25399997361438     26.28199997940175
H          49.64351157771869     57.45378855241422     25.38082900338070
C          49.27288154743845     56.95621590457750     27.44880474800961
H          48.76143942884579     56.01487459276742     27.23556970489345
H          49.84824056246629     56.83870506072557     28.36861164969468
C          48.27124308984521     58.04552671830059     27.62582329462643
C          48.18149141232474     58.92946562929126     28.65994905261110
H          48.79284165514265     59.01181571305984     29.53922106980206
N          47.13418900816854     59.78991382495462     28.45908394837282
H          46.83429616131633     60.50278536410128     29.10119247266059
C          46.51892069637016     59.46922146663777     27.28351630102942
C          45.42189268763516     60.04207257712292     26.65265252828307
H          44.90024268468599     60.88028377785199     27.09192243564078
C          45.02266094178084     59.49690959763950     25.45158822643945
H          44.17202199840357     59.91631971944545     24.93407345278611
C          45.69191191398607     58.40558484179602     24.88996995305338
H          45.34012863702725     58.00547929121643     23.95039538700671
C          46.77983764153063     57.83261304349469     25.50880847013866
H          47.28381222808436     56.98482193870780     25.07026963348778
C          47.21122827279856     58.36967369084930     26.72214039697413
H          50.84028348772543     58.12974466368306     26.51229036701394
H          54.08275821753102     54.38125026963105     28.96847533444792
C          53.71399999982495     54.46999999840749     29.99200000075602
H          54.44236301242048     55.01130576979781     30.59945033254913
C          52.38327485345897     55.20929108709871     29.99456729933601
H          51.92568133987741     55.22182022778762     30.98230552188067
H          52.51148839314104     56.23456753702102     29.64108592234869
S          51.20734280792263     54.36144376736639     28.86268499846362
H          50.10659058044553     54.67537999268066     29.55241770535369
C          53.55471657284969     53.04635074708391     30.53654176412437
O          53.76174260946939     52.04966274059280     29.86665983968908
N          53.19657176875692     52.99142154837779     31.82911005029232
H          52.90551777080555     53.82450055812816     32.32455744812503
C          52.84400001185916     51.77299999314477     32.52300000289753
H          52.81499359736345     50.95563948708777     31.79951654856269
C          53.84922332120103     51.46490803051776     33.63308042347601
H          53.92605512239590     52.31692684045776     34.30620967618693
H          53.50073716091693     50.60677732583985     34.19830535852099
H          54.82837556533604     51.25031684933401     33.20976690953410
C          51.46250969246407     51.97082423031952     33.16605395054822
O          51.07676675634721     53.09646325854192     33.44692777768434
N          50.79630170898703     50.84252050306463     33.39886410555679
H          51.13866855242286     49.95606753621716     33.03715509060503
C          49.55600000161858     50.79399999508465     34.14699999314471
H          49.51962317763331     51.69263635506517     34.77006336854221
C          48.33156349266343     50.75082156678076     33.22067637466812
H          48.38981077695187     51.60204950218918     32.53904732676916
H          48.38800895575628     49.83907919304867     32.63047007850322
C          46.98612702340096     50.78503441434047     33.95966107094109
H          47.04992848327898     50.14921981849633     34.84729080091169
C          46.63379975581129     52.20318284238646     34.39004588572150
H          46.47435633146099     52.82741138680697     33.51304886222793
H          45.72304073306790     52.21645434459532     34.98010170810703
H          47.42847767811741     52.63223173203190     34.98687454721166
C          45.89082442255192     50.23610074269651     33.04953366784948
H          46.11778417899731     49.21898180536612     32.74052486912787
H          44.93341135501092     50.23377725259707     33.56137457618449
H          45.79540919869907     50.86221050574026     32.16457070145411
C          49.58897597699966     49.54986923703250     35.03949150322310
O          49.91136388160616     48.45697446431862     34.58055697136371
N          49.24375340959978     49.75984665804758     36.30763721482116
H          49.04617805585040     50.70974933730422     36.61488578199050
C          49.21200004496106     48.70999999390742     37.31599999055952
H          49.75226568536029     47.85267909190902     36.89564051372513
C          49.96073087374454     49.17630868176129     38.56006523366818
H          49.57591680219705     50.12856869355678     38.92553128389407
H          49.86820590654791     48.42541177224131     39.34715165232741
C          51.45391836004617     49.33426762030540     38.20420821755204
O          51.97179259877500     48.45195997751219     37.49061750511040
O          52.05351488672085     50.33700019043275     38.64869019436600
C          47.74421205159900     48.29894044529733     37.54099403847680
O          46.87629096643963     49.13536246757224     37.75489340903550
N          47.50765781959473     46.98941626692510     37.42514977864881
H          48.25357127933046     46.32930572516600     37.22175699394695
C          46.18499999400882     46.40899999252171     37.33500000119162
H          45.45116698672201     47.15391213385380     37.65454246713522
C          45.90622811396584     45.94739149146709     35.88095190499899
H          46.61955795521290     45.14552577971595     35.65700541724567
C          44.48294586898465     45.41304590535414     35.74714313761620
H          43.76909678933256     46.14096265723821     36.12578526689236
H          44.26030386077009     45.22306222742056     34.70030915953846
H          44.34659855864254     44.47893506328332     36.28436543627763
C          46.13135550570237     47.09013631173439     34.89438498944152
H          47.15967463027741     47.44048914539563     34.93130582304223
H          45.92551853946887     46.74575429809165     33.88353552225089
H          45.46850230964268     47.92285444570748     35.11457846056132
C          46.10918060437491     45.15044500607561     38.20823396530556
O          47.03895491118161     44.37466131601791     38.32405601786095
N          44.90828878912697     44.92575268343439     38.78503953671146
H          44.16649095256857     45.61565089391468     38.71914467321126
C          44.60400002674678     43.65300000470857     39.41599999228856
H          45.47648792854541     43.01304842062665     39.24814058025178
C          44.34022990452926     43.79634679082419     40.93075676708045
H          43.47432168931502     44.45566536491131     41.05220303318297
C          44.00644937560255     42.42886125055239     41.52406458846797
H          44.84562254300891     41.74521753777967     41.40544242419239
H          43.78305832383630     42.51824315714111     42.58336488824209
H          43.13608807918359     41.99408618065487     41.03744587886453
C          45.54878684172238     44.43818143380113     41.61701176290274
H          46.37637027621400     43.72549653469336     41.62837065606274
H          45.86586756970452     45.29980345852594     41.02775771984144
C          45.24797272752567     44.90350367281630     43.03659666002272
H          45.00764106046864     44.06607264765665     43.68730514706964
H          46.11189435167282     45.41720801712560     43.45190048697351
H          44.40677695029559     45.59284963113585     43.03830105082326
C          43.35358387468467     43.08799940068690     38.75153475490430
O          42.31546906607569     43.72567751731192     38.71744412644661
N          43.46904002483299     41.86795012026619     38.19960982008279
H          44.28940456507844     41.31004317638453     38.38528940750141
C          42.31000002021477     41.17299997835676     37.69099997021633
H          41.53353751005189     41.91484389311506     37.48908280896551
C          42.61328145111120     40.35760384489789     36.43883809412146
H          43.48929809383007     39.72999791928976     36.61372146991437
H          41.76584793737300     39.69672722970181     36.23807956765290
C          42.84587530119133     41.14961034688464     35.16200845726905
O          42.83321812794115     42.34536443245201     35.06496357545475
O          43.07169850292410     40.30641907769612     34.16925495864967
H          43.16341379608502     40.76744581457883     33.27425769723482
C          41.81865677616887     40.13336371614849     38.71785787115687
O          42.59840117626193     39.36288220843038     39.26215316942853
N          40.49516296041450     40.12137059901268     38.88900387068776
H          39.91609664888132     40.77166927075972     38.35283708715274
C          39.79799977820962     39.08900002241165     39.63500061510528
H          40.55315610622029     38.49262468907714     40.15694870882716
C          38.80929866084464     39.71540686440351     40.63699189227847
H          38.08295774236364     40.29853948925059     40.06271341765736
C          38.06185195190326     38.62793524660290     41.40321325380965
H          38.75550691487106     38.01432875978376     41.97640186144227
H          37.35783111487314     39.08712185268534     42.09194442385867
H          37.50276975283188     37.98572378618430     40.72593602155080
C          39.54820903394965     40.64535660989021     41.59381517359065
H          40.05918103603246     41.43388058764854     41.04809134116748
H          38.84399849421783     41.10964649529655     42.27868278081291
H          40.28445062002159     40.08983258533615     42.17226590377454
C          39.04261654103175     38.25544430988598     38.60124768468432
O          38.38204581431342     38.77408784398109     37.71901511688765
N          39.15869374623586     36.92066250999981     38.71282698811095
H          39.77002984348137     36.52180817182888     39.40727676711878
C          38.53799999969791     36.01799999052615     37.76999998935547
H          37.80701008327017     36.60028354724976     37.20554675646658
C          39.56208380144374     35.38557950088941     36.82288597104302
H          40.36607902285138     34.93045346872911     37.40632958766262
H          39.07398393227631     34.59231276499127     36.25532482491126
C          40.13773876085012     36.40802576421491     35.85523280730150
H          39.35889207128556     36.80814092671186     35.20742150248269
H          40.61789109389269     37.23117769587404     36.38784593158058
S          41.38815410976486     35.62054904873798     34.77507204504636
C          41.52629670503303     36.87429526369855     33.47605267285767
H          41.89556505671469     37.80714535420476     33.89341795904370
H          42.23696447226396     36.49415267723091     32.74918214125481
H          40.55850658532843     37.01329974303098     33.00195330293322
H          38.01841814101528     35.23042487428898     38.32362077087836
H          36.50047444942409     31.51670071961734     31.91400646336148
C          36.73400002733403     32.23700003762120     32.69600000159100
H          37.17452896737323     31.69948057352867     33.53366827556642
C          37.69988346668492     33.30538209158047     32.18151049140248
H          37.22110350006759     33.83588430073453     31.35226977825526
C          38.00471519339119     34.31776753524375     33.28120149655874
H          38.60195421372315     33.85574162533679     34.06453514299684
H          38.55704153937690     35.16121386172351     32.87751662296916
H          37.08296905745697     34.69320276596230     33.72078833089326
C          38.98178891731961     32.65646385342086     31.64886030092017
H          39.51379022364244     32.17881426277265     32.47515576337516
H          38.70557186386474     31.87378200730055     30.93695575205841
C          39.91166721575130     33.64519128607855     30.95372669067798
H          40.32801347795588     34.35637713642276     31.66112536776481
H          40.74002060546628     33.11735194057064     30.48528210336270
H          39.37462067286075     34.19691330474607     30.18476985185520
H          35.80493658351480     32.69217270066236     33.03188686906808
H          35.87444276752368     38.42804691978121     34.39404460040765
C          36.78100001131702     38.93000001782596     34.73599999932726
H          37.15354062116962     38.43982664009008     35.63493826179896
C          37.84016134708043     38.88122541927292     33.62996960476349
H          38.08547904895367     37.83607487723955     33.41483749369991
H          37.42711024425523     39.31399638492548     32.71678611228949
C          39.11785504342467     39.62800461695670     34.00231936610781
H          39.30555465003600     39.56714176706983     35.07421572930360
H          39.97572557097037     39.23423825426132     33.45963464231284
S          39.06086073923674     41.40838866458473     33.60639473518498
C          39.59982852073584     41.32709460359177     31.87235588810502
H          38.94374095443544     40.66984786946112     31.30919691947299
H          39.54587638536168     42.33796071990011     31.48024584843077
H          40.62327632965530     40.96498071830774     31.82970244812652
C          36.44199222699889     40.38737285872816     35.04386464939924
O          35.71874318092600     41.03465761319730     34.30252191377633
N          37.00411881847731     40.86340012086588     36.15912125555819
H          37.59086425750424     40.25936775632378     36.72256863499609
C          36.99199998657839     42.25199999577487     36.57099996178848
H          36.41203266665854     42.82071261455449     35.84174449216099
C          36.42759004415991     42.40156412843226     37.98486448315786
H          37.08491486934737     41.86498119078212     38.67279954640944
H          36.44318011231101     43.45818599574012     38.25612311490548
C          35.01025568929423     41.86246819323596     38.12815457078681
H          34.35051728374186     42.27108614982730     37.36493999724188
H          35.01344074653760     40.77447928040593     38.02581380631102
C          34.46200963894454     42.21591443916964     39.49776744489225
O          35.15317659084671     42.17885568152368     40.51297926738217
N          33.16747552466557     42.53011509714305     39.49818243321305
H          32.74348175641596     42.86648369890473     40.34785816570282
H          32.67628745144950     42.66808695680020     38.60810610080286
C          38.43841837480857     42.74611846755371     36.62510708742375
O          39.30287711231774     42.08581795140996     37.20090388502490
N          38.65557754089139     43.93173292794032     36.06963084090023
H          37.91633551876082     44.39115236285397     35.54358075739298
C          39.96899998415768     44.53800004571798     36.04100000743192
H          40.65369224948140     43.84074235602679     36.53181522796455
C          40.43624405633624     44.77916527286660     34.60773491764940
H          39.86171680393100     45.57401450138366     34.14072416665174
H          41.48715490748513     45.05313405240945     34.60700043656663
H          40.31901070547826     43.86759945358489     34.02857982331560
C          39.93091160558085     45.85650954001150     36.81616707354405
O          39.27763857574610     46.82124254253233     36.44052617898500
N          40.65051468195798     45.85571085822365     37.93690829789040
H          41.25052749853067     45.07035780687600     38.16571872387075
C          40.69800000538316     46.97399998729527     38.85100000346527
H          39.76867838834111     47.54257102674755     38.74220185627332
C          40.86424096553267     46.45421994712179     40.28984599703911
H          41.70831000851459     45.76093393772991     40.28254639917409
H          41.12251596586862     47.30004912372161     40.93031618796448
C          39.63857824288271     45.76823498613889     40.82947164117939
C          39.22608198445169     44.52911429407569     40.34981581086748
H          39.79613458656694     44.03091203012853     39.58101546593837
C          38.09411138069683     43.91591309186475     40.85107954849330
H          37.76715546322480     42.96416193205014     40.46376141512927
C          37.34825514538075     44.51171451423340     41.86395019526960
O          36.24021586142658     43.93713942648514     42.38147281130641
H          35.90545343443833     43.23859032561269     41.78133488011186
C          37.77485977499750     45.73882790222820     42.36999864460187
H          37.20744700165898     46.20267668150299     43.16229412642190
C          38.89434701874109     46.35595192938521     41.84602910525118
H          39.19676057977640     47.31672890501760     42.23971617065599
C          41.90214906349674     47.85846493510451     38.49860621696381
O          43.04756198459405     47.44885557637158     38.63771310695133
N          41.58328906313302     49.07672562863099     38.06117317104965
H          40.62790958993659     49.34321632974157     37.84500807155535
C          42.54500001117825     50.10300002544046     37.74299996520128
H          43.21154439308496     50.24594659094019     38.60341327691457
C          43.41931027754647     49.71413844846820     36.52566544495509
H          44.17310586860758     50.48773662551306     36.37517744727356
H          43.93304190623633     48.78804711054978     36.78715465102678
C          42.63198799457835     49.52107430618409     35.27165894285093
C          41.99964478141627     48.37659365323783     34.86327836872876
H          41.91484241169035     47.43836768786304     35.37676919260117
N          41.42519050867669     48.55287029999450     33.64206128103105
H          40.90968474901322     47.86424486740556     33.10451969921475
C          41.67454699933840     49.82211240672142     33.22598815119007
C          41.32983067469852     50.45488131422692     32.03754600508839
H          40.78923303782980     49.91625535007717     31.27364622423509
C          41.70900152760890     51.76930555419376     31.87918059803527
H          41.45443731766552     52.29664685412285     30.97023202236647
C          42.42365446998780     52.44068751995115     32.87696781842865
H          42.69718234228652     53.47431346259332     32.71838693363954
C          42.79035425136357     51.81511857111605     34.04671622456701
H          43.35437357873346     52.34788772841930     34.79646565254588
C          42.42230716554458     50.48186673824998     34.23606019162637
C          41.78952897441258     51.39814584021310     37.45378833896117
O          40.58518231288370     51.40482232859296     37.26781972476100
N          42.58124820548512     52.47400859982076     37.42344094442640
H          43.57719201071500     52.39063860257758     37.58157871006598
C          42.13100001422489     53.80000000787982     37.07599998788758
H          41.49626883946389     53.71480209089355     36.18241712344276
C          41.25673633745396     54.42379843345837     38.20344794956218
H          40.45631201610419     55.00948450641925     37.74343009637381
H          40.80293088178727     53.59399107739050     38.75416424037059
O          41.97035752813419     55.20896509104073     39.11892518195853
H          41.84609549619275     56.13703899052917     38.84977700717408
C          43.35972431236356     54.63404760869633     36.70361930646385
O          44.45089536795263     54.09876522462535     36.53621922677613
N          43.12725369537360     55.92926371845611     36.51387953840400
H          42.27480853356762     56.39293841607623     36.87907889839884
C          44.19900001603861     56.84699999487530     36.19999998448534
H          44.65176733568064     56.54091392322781     35.24790744362291
C          43.68422643492372     58.27805623886584     36.10226879354750
H          44.49190359378479     58.89665352576679     35.69906142598601
H          42.85724810160000     58.31020260021318     35.38899718732448
C          43.23181013766700     58.86109221926607     37.44318856839987
H          43.77997921329715     58.39876900475798     38.26729807891365
H          43.40575472560356     59.93753160366873     37.46913506688507
C          41.69599561721462     58.65294269457713     37.74139307679045
O          41.28845754186774     57.47311015521085     37.68074246723447
O          41.06832680331534     59.66756835670813     38.01376919043535
H          44.98173801914673     56.77950412054892     36.96908439035263
H          47.06717055150440     54.50778148103353     38.63054640024797
C          47.59700000583405     53.58100000413580     38.41899998689490
H          48.27651544858676     53.37445320825414     39.25019335727630
C          46.60425872666300     52.42449002770715     38.28978273744979
H          45.78740843968173     52.74249089491686     37.63802061380276
H          47.08510060567445     51.55786060858188     37.83359519495307
C          46.03127195194340     52.01098255070413     39.63148460885291
O          46.07454197364478     52.69681115658070     40.63190622363904
N          45.41734216342288     50.80162438849599     39.59050052209523
H          45.11003589075850     50.41525378959722     40.46980431031678
H          45.68348309419410     50.14279933788747     38.86969850129228
C          48.41579866281397     53.67493488959879     37.14599637727370
O          49.05480207011322     52.72685759282162     36.71030034220136
N          48.39168807654296     54.87318837470451     36.53543027849247
H          47.77745643068962     55.57872629024390     36.91189555979638
C          48.97599999052618     55.17299999640939     35.24100000882293
H          49.37189579681894     54.24523470381171     34.82735805818002
C          47.91115011219490     55.79864834716043     34.33990787655512
H          47.06644157628416     55.11263485179299     34.26355943721956
H          47.55203468802166     56.71275532466973     34.82330715055606
C          48.40924413893725     56.15293776993489     32.93589070769709
H          49.34724941913790     56.71472697628857     33.03030203485282
C          48.66989264337103     54.90120756096405     32.10415456488803
H          47.76113280329078     54.31001164702622     32.02256364097182
H          48.97829797518344     55.18238411821246     31.09557093067269
H          49.44697626367500     54.28795615191547     32.55106652803357
C          47.37870643313647     57.03756642621587     32.23276122150045
H          47.22923157140406     57.96799615738740     32.77692338318650
H          47.69943634555931     57.27698197675326     31.22028836122533
H          46.42383036259606     56.52087207130191     32.17151295474105
H          49.81141610082383     55.87226895207313     35.37425793073916
O          40.78515913175747     47.01510519749674     28.25856937592678
H          40.22962382198312     47.78161049782410     28.41242862101553
H          40.53872957864414     46.38743267897780     29.00350141143112
O          40.57794276235128     45.74362726561395     25.93894912928538
H          39.82582376246855     45.18421800390988     26.15862669534890
H          40.74297426369567     46.24501023925945     26.78048597536495
O          39.75263189234226     47.60359239335361     24.18863961203263
H          40.04523634181655     46.87066882301928     24.77934661549126
H          39.81592268335515     48.39614775137252     24.72482369454191
O          44.31719468697872     48.24008731808404     18.02448488838581
H          43.77538225609785     48.07426541211822     18.80737600916519
H          45.13542325097007     48.61830194197000     18.35416582356507
O          49.41910559705781     43.98682309468291     22.18107900198640
H          50.29250624371429     43.71837071080972     21.88304545813424
H          48.84478593563780     44.04766724892753     21.40576603872882
O          46.13566946340227     48.10522061826029     20.63468685605629
H          46.35174578403345     47.96448568395341     21.56503018890831
H          45.16930890282144     48.14784429245703     20.61387377549864
O          51.54820443644559     41.37004789570806     23.67003811000471
H          51.60378601523328     42.33055632545820     23.70974998074063
H          50.75180986907472     41.14283861548022     24.17379377313839
O          50.81167501626570     51.04689099011622     22.98065506976879
H          51.25840324490248     50.18532018840571     23.02916444993114
H          49.97405577156319     50.89394540937808     22.53973411556776
$end

$rem
JOBTYPE  SP
METHOD  WB97X-V
BASIS  6-31G(D)
SYMMETRY  FALSE
SYM_IGNORE  TRUE
MEM_TOTAL  10000
MEM_STATIC  2000
BASIS_LIN_DEP_THRESH  6
THRESH  14
SCF_CONVERGENCE  8
FD_MAT_VEC_PROD  FALSE
XC_GRID  000075000302
NL_GRID  1
MAX_SCF_CYCLES  200
ENV_METHOD  WB97X-V
GEN_SCFMAN_EMBED  TRUE
SPADE_PARTITION  TRUE
EMBEDDING_EARLY_STOP  TRUE
$end

--------------------------------------------------------------
 ----------------------------------------------------------------
             Standard Nuclear Orientation (Angstroms)
    I     Atom           X                Y                Z
 ----------------------------------------------------------------
    1      C      43.0203425244    42.2529173306    31.1341220423
    2      O      43.1675577893    41.1849632144    31.7400534979
    3      C      43.1461073888    43.5490325419    31.7233377620
    4      C      43.1700594667    44.6878073696    30.9918935463
    5      C      43.2013801685    44.6805399012    29.4934977393
    6      C      43.4495016369    43.2788547837    28.9286197777
    7      C      42.6312081828    42.2433027045    29.6815172684
    8      C      43.1038851555    46.0182937574    31.6391854637
    9      C      44.0872270319    47.0318343454    31.0551960915
   10      C      43.9891182477    47.0859747886    29.5332004838
   11      C      44.2406935495    45.6848128176    28.9539305530
   12      C      45.0348686012    48.0260093088    28.9440088014
   13      C      44.9826212814    48.1026996097    27.4124990344
   14      C      45.2509305745    46.7093821767    26.8549361412
   15      C      44.2444046947    45.7053343407    27.4195741416
   16      C      45.0493920848    49.4939396746    29.3672787034
   17      C      45.9015992295    50.1754117703    28.2788316745
   18      C      46.1094429594    49.1290665327    27.1636963224
   19      C      43.6673572019    48.6597349960    26.8650295129
   20      O      46.0992473213    49.7490765765    25.8982808319
   21      H      43.1697034258    43.5937351055    32.8042490670
   22      H      42.2038388028    45.0156003214    29.1812045204
   23      H      44.5122406584    43.0323590948    29.0142233713
   24      H      43.1771154430    43.2489913185    27.8733350820
   25      H      41.5725642594    42.5151070696    29.6318833436
   26      H      42.7682744431    41.2393256469    29.2731754719
   27      H      43.2478975063    45.9318724661    32.7169379235
   28      H      42.0781544230    46.3877970094    31.4844524746
   29      H      45.1060859837    46.7517990643    31.3411950623
   30      H      43.8795091219    48.0142621069    31.4793167813
   31      H      42.9847010878    47.4124337227    29.2596965133
   32      H      45.2328397351    45.3536440750    29.2902440351
   33      H      46.0197043345    47.6099600020    29.1974450020
   34      H      46.2598899027    46.3993425508    27.1416333292
   35      H      45.1997017760    46.7109476483    25.7638558905
   36      H      43.2407720397    45.9429636055    27.0684996942
   37      H      44.5091610164    44.7186073819    27.0376172795
   38      H      45.4883531712    49.6228699678    30.3523734686
   39      H      44.0371559291    49.8948603204    29.3990771759
   40      H      46.8606031297    50.4961697140    28.6791846806
   41      H      45.4065232703    51.0463206610    27.8519381081
[...]
    3   0.0200412  -0.0019235  -0.0242033  -0.0135349   0.0019835   0.0206503
          571         572         573         574         575         576
    1  -0.0070182  -0.0207479   0.1044562   0.0175285   0.0011503  -0.0157961
    2  -0.0349544  -0.0016342   0.0343700   0.0356283  -0.0047570  -0.0783887
    3   0.0091709   0.0121999   0.0267567   0.1035702   0.0084031  -0.0686096
          577         578         579         580         581         582
    1  -0.0014222   0.0154481  -0.0103387   0.0161627  -0.0028211  -0.0101580
    2   0.0025744   0.0343606   0.0012489  -0.0172243  -0.0024461   0.0048534
    3   0.0066391   0.0295490  -0.0156620  -0.0262198  -0.0010152  -0.0355530
          583         584         585         586         587         588
    1   0.0000449  -0.0009722   0.0059177  -0.0306141  -0.0122001   0.0049550
    2  -0.0375154   0.0049933   0.0381541   0.0013887  -0.0434483   0.0090211
    3  -0.0005458  -0.0068539   0.0089372  -0.0058105   0.0066423   0.0087668
          589         590         591         592         593         594
    1  -0.0274889   0.0067787   0.0315740   0.0041304   0.0664193  -0.0128382
    2   0.0263113  -0.0162194   0.0210145  -0.0053681   0.0504437   0.0005540
    3   0.0092719   0.0356168  -0.0089059   0.0063583   0.0741668   0.0037528
          595         596         597         598         599         600
    1  -0.0212800   0.0091568   0.0280519  -0.0001519  -0.0306173  -0.0023148
    2  -0.0296037   0.0167721   0.0048699  -0.0009397  -0.0053500  -0.0021350
    3  -0.0351814  -0.0065508   0.0190460  -0.0020248  -0.0191720   0.0008360
          601         602         603         604         605         606
    1   0.0313743   0.0101240  -0.0259213  -0.0034830  -0.0153924   0.0141086
    2   0.0098922   0.0040162   0.0278453  -0.0006055  -0.0355632   0.0026556
    3   0.0208619  -0.0361717   0.0050139   0.0010693   0.0003069  -0.0355436
          607         608         609         610         611         612
    1   0.0313090   0.0018499  -0.0915516   0.0072143   0.0280631  -0.0137086
    2   0.0008765  -0.0079157   0.0026612   0.0071738  -0.0157311   0.0123031
    3   0.0244674  -0.0071314  -0.0685041  -0.0115659   0.0323246   0.0020011
          613         614         615         616         617         618
    1  -0.0181395   0.0010880  -0.0156513   0.0177873  -0.0010698   0.0100309
    2   0.0078181  -0.0020776  -0.0339024  -0.0091953   0.0033644  -0.0188046
    3  -0.0295418  -0.0006413  -0.0043399   0.0303308   0.0030725  -0.0092894
          619         620         621         622         623         624
    1   0.0252010   0.0022984  -0.0147812  -0.0077061  -0.0002000  -0.0219604
    2   0.0012371  -0.0008476   0.0322641  -0.0090822  -0.0061802   0.0315590
    3   0.0362926  -0.0033697   0.0304759  -0.0202822  -0.0075020   0.0153894
          625         626         627         628         629         630
    1   0.0062543  -0.0325163   0.0036167  -0.0130849  -0.0059271   0.0197213
    2  -0.0033747   0.0155032   0.0010933  -0.0160528   0.0051685  -0.0338536
    3   0.0043915  -0.0189054   0.0067300  -0.0351832  -0.0003924  -0.0181598
          631         632         633         634         635         636
    1  -0.0011524   0.0170313   0.0136982   0.0017427   0.0267601   0.0060689
    2  -0.0007162   0.0309678  -0.0080908  -0.0034440   0.0184400   0.0068965
    3  -0.0006851   0.0049822  -0.0326032  -0.0043476   0.0179744   0.0080747
          637         638         639         640         641         642
    1  -0.0179728   0.0036222   0.0057081  -0.0487385  -0.0003927   0.0223330
    2   0.0028187   0.0335033  -0.0255154   0.0101373   0.0029946  -0.0860334
    3   0.0334173  -0.0088052  -0.0358226   0.0281161  -0.0097617  -0.0631253
          643         644         645         646         647         648
    1   0.0130203  -0.0178371  -0.0049940  -0.0021764  -0.0001634   0.0020485
    2  -0.0020790   0.0356818  -0.0185833  -0.0265264  -0.0012250   0.0287062
    3   0.0027646   0.0220843   0.0051757  -0.0248548  -0.0006448   0.0261840
          649         650         651         652         653         654
    1  -0.0113865   0.0340616   0.0061095  -0.0342846  -0.0007151   0.0149553
    2  -0.0313572  -0.0093298   0.0047602   0.1014475  -0.0041882  -0.0399178
    3   0.0235650  -0.0148867  -0.0041639   0.0258608  -0.0016993  -0.0199067
          655         656         657         658         659         660
    1  -0.0200003  -0.0016605  -0.0068856   0.0012660  -0.0002197  -0.0036012
    2   0.0074588   0.0304024  -0.0025304   0.0279427  -0.0305217  -0.0000690
    3   0.0106088   0.0201826  -0.0002163  -0.0255559  -0.0234318  -0.0001674
          661         662         663         664         665         666
    1  -0.0027960  -0.0007665  -0.0087386  -0.0331747   0.0271491  -0.0024743
    2  -0.0215613  -0.0030643   0.0231822   0.0054330   0.0174061  -0.0002436
    3   0.0311079   0.0013110  -0.0306402   0.0216158   0.0236942   0.0019768
          667         668         669         670         671         672
    1   0.0030391  -0.0383654  -0.0092425   0.0011711   0.0252096  -0.0021739
    2  -0.0387328  -0.0027471   0.0184944   0.0060075  -0.0932896   0.0041683
    3  -0.0149829   0.0125118  -0.0351432  -0.0092484  -0.0367673   0.0009505
          673         674         675         676         677         678
    1  -0.0090879   0.0034016   0.0206923   0.0021170  -0.0113748  -0.0039509
    2   0.0469179  -0.0184647  -0.0220631   0.0044008   0.0326221  -0.0236445
    3   0.0114199   0.0087502  -0.0139467  -0.0006038   0.0146971   0.0279341
          679         680         681         682         683         684
    1  -0.0052973   0.0274281   0.0269288   0.0048026  -0.0741682   0.0055739
    2   0.0017268  -0.0756261   0.0826095   0.0084610   0.0745316  -0.0027497
    3   0.0008152  -0.0515516   0.0451097  -0.0021984   0.0154850   0.0049793
          685         686         687         688         689         690
    1   0.0348287  -0.0189120  -0.0245600  -0.0001431   0.0240747  -0.0001534
    2  -0.0291471  -0.0028343   0.0278291   0.0009765  -0.0254081   0.0014396
    3  -0.0101088  -0.0050614   0.0088217  -0.0040727  -0.0075224  -0.0010512
          691         692         693         694         695         696
    1  -0.0295287  -0.0142084  -0.0103883  -0.0016545   0.0361056  -0.0100671
    2   0.0272509  -0.0049975  -0.0314448   0.0009425   0.0144203  -0.0083264
    3   0.0110362  -0.0409614   0.0152143   0.0007900  -0.0018101  -0.0395697
          697         698         699         700         701         702
    1  -0.0256455   0.0082708   0.0892354   0.0015548  -0.0356165  -0.0000305
    2   0.0335676   0.0061249  -0.0673900   0.0082572   0.0371399  -0.0113516
    3   0.0029769  -0.0070486   0.0095304   0.0020864  -0.0035253   0.0117104
          703         704         705         706         707         708
    1   0.0323269   0.0014492  -0.0292153  -0.0006211   0.0289584  -0.0091113
    2  -0.0156266   0.0031908   0.0228058   0.0027240  -0.0264967   0.0011537
    3  -0.0050853   0.0028597   0.0029417  -0.0005898  -0.0020159   0.0370812
          709         710         711         712         713         714
    1  -0.0313942  -0.0006204   0.0309924   0.0126402  -0.0000699  -0.0088320
    2  -0.0184068   0.0018110  -0.0214608   0.0272404   0.0001943  -0.0273522
    3  -0.0125787  -0.0017816  -0.0023961  -0.0213914  -0.0020869   0.0250170
          715         716         717         718         719         720
    1   0.0286204  -0.0293784   0.0061670  -0.0909439   0.0023785   0.0380271
    2   0.0191518   0.0255311   0.0112840   0.0562010   0.0101305  -0.0242873
    3   0.0158677   0.0019589   0.0076053   0.0002320  -0.0130973   0.0131810
          721         722         723         724         725         726
    1  -0.0221266  -0.0263613  -0.0007382   0.0270104  -0.0292389  -0.0051083
    2  -0.0003319   0.0263041   0.0020334  -0.0256989  -0.0244593   0.0148348
    3  -0.0042058  -0.0060690   0.0062779   0.0100041  -0.0031988   0.0271258
          727         728         729         730         731         732
    1  -0.0041189   0.0052348  -0.0023309   0.0084479   0.0707247  -0.0028435
    2   0.1232549  -0.1036894   0.0062091   0.0039372  -0.0685116   0.0123568
    3  -0.0014023   0.0211602   0.0230382  -0.0042933   0.0514501   0.0033003
          733         734         735         736         737         738
    1  -0.0261068  -0.0091029   0.0281084  -0.0024643  -0.0259622  -0.0006937
    2   0.0315778  -0.0068979  -0.0149608   0.0038366   0.0209708   0.0033245
    3  -0.0249236   0.0135270   0.0181402   0.0025678  -0.0174865  -0.0007618
          739         740         741         742         743         744
    1   0.0226281  -0.0260196  -0.0229434  -0.0009429   0.0175035  -0.0232367
    2  -0.0220480   0.0152267  -0.0229493   0.0024122   0.0305547   0.0203950
    3   0.0234803   0.0237610  -0.0203482  -0.0011702  -0.0164073   0.0242875
          745         746         747         748         749         750
    1   0.0277905   0.0031220  -0.0593822  -0.0077215   0.0281545  -0.0098450
    2  -0.0164683   0.0127066   0.0463948   0.0035307  -0.0159383  -0.0100328
    3   0.0229235   0.0048505  -0.0774569   0.0001808   0.0338370  -0.0142208
          751         752         753         754         755         756
    1  -0.0260648  -0.0007515   0.0278726  -0.0150674  -0.0100556  -0.0295992
    2   0.0192108  -0.0023839  -0.0205030  -0.0287678   0.0052581   0.0160156
    3  -0.0156185   0.0029653   0.0187706  -0.0190123   0.0074866  -0.0200049
          757         758         759         760         761         762
    1   0.0122493   0.0176562  -0.0008992   0.0121376   0.0228373  -0.0359664
    2   0.0293896  -0.0403134   0.0069173   0.0318976  -0.0132636   0.0050324
    3   0.0186506   0.0068074  -0.0081365   0.0136912  -0.0285689  -0.0206434
          763         764         765         766         767         768
    1  -0.0206892  -0.0093217   0.0032103   0.0138373   0.0003907  -0.0139597
    2  -0.0241090  -0.0266108   0.0037622  -0.0200807   0.0001082   0.0177532
    3   0.0169881  -0.0262159  -0.0013658   0.0302653  -0.0017862  -0.0267516
          769         770         771         772         773         774
    1  -0.0001816   0.0231988   0.0204266  -0.0324008  -0.0032872   0.0172026
    2  -0.0028280  -0.0131720   0.0308089   0.0151827   0.0022828  -0.0182739
    3  -0.0028407   0.0282140  -0.0113204   0.0173321   0.0013884   0.0280193
          775         776         777         778         779         780
    1  -0.0089859  -0.0025945   0.0152623   0.0300138  -0.0185288  -0.0335718
    2  -0.0283736   0.0000574   0.0259018  -0.0168346   0.0219072   0.0141887
    3  -0.0225784   0.0010972   0.0245628  -0.0173412  -0.0283187   0.0128898
          781         782         783         784         785         786
    1  -0.0330972  -0.0007135   0.0108209  -0.0025571   0.0050559  -0.0159538
    2  -0.0134805   0.0006615  -0.0181607   0.0020118  -0.0343939   0.0144918
    3  -0.0087570   0.0020395   0.0325651  -0.0021523  -0.0101740  -0.0315286
          787         788         789         790         791         792
    1  -0.0034699   0.0063922   0.0250603  -0.0158493  -0.0016904  -0.0271787
    2  -0.0095219  -0.0022130  -0.0158767   0.0386247   0.0032386  -0.0200070
    3   0.0023667   0.0391753  -0.0139060   0.0280896  -0.0122326  -0.0247582
          793         794         795         796         797         798
    1  -0.0024100   0.0250736  -0.0028439  -0.0655314  -0.0056031   0.0244032
    2   0.0432416  -0.0045753  -0.0042990   0.0523176  -0.0030530  -0.0294522
    3  -0.0211180  -0.0063284  -0.0082470  -0.0657361   0.0052974   0.0269247
          799         800         801         802         803         804
    1  -0.0069069  -0.0213397  -0.0017225   0.0200503   0.0009535  -0.0044579
    2   0.0200041   0.0202142   0.0005367  -0.0128786   0.0366490   0.0043051
    3   0.0035838  -0.0254592   0.0029733   0.0262694   0.0131207  -0.0057712
          805         806         807         808         809         810
    1  -0.0289236  -0.0021205   0.0047389   0.0587961  -0.0073967  -0.0156007
    2   0.0123946  -0.0356685   0.0006221  -0.0090584  -0.0094154   0.0190179
    3  -0.0289151  -0.0065961  -0.0061823   0.0828262  -0.0114404   0.0389409
          811         812         813         814         815         816
    1  -0.0269185  -0.0112172   0.0723766  -0.0061690  -0.0384759   0.0206153
    2   0.0104815  -0.0061030  -0.0520822   0.0055556   0.0212411   0.0046160
    3  -0.0480174  -0.0001544   0.0466914  -0.0002592  -0.0263620  -0.0028108
          817         818         819         820         821         822
    1   0.0208764  -0.0004988  -0.0163359   0.0415993  -0.0014600  -0.0027326
    2  -0.0224025   0.0032352   0.0325279   0.0122823  -0.0286116  -0.0046017
    3   0.0131709  -0.0058544  -0.0231710  -0.0076377  -0.0208136  -0.0097753
          823         824         825         826         827         828
    1  -0.0531805  -0.0008973   0.0260420  -0.0014571  -0.0315494   0.0008458
    2   0.0841499  -0.0064632  -0.0351745   0.0146250   0.0153215  -0.0025962
    3  -0.0375960   0.0008739   0.0078189   0.0114391  -0.0033000   0.0011936
          829         830         831         832         833         834
    1   0.0302962   0.0119176  -0.0057152  -0.0032238   0.0221560   0.0022450
    2  -0.0199039   0.0263677  -0.0024327   0.0037264  -0.0201879   0.0040544
    3   0.0018478   0.0221038   0.0014087   0.0050096  -0.0309079   0.0008309
          835         836         837         838         839         840
    1  -0.0150938   0.0212966  -0.0549341  -0.0254126   0.0021076  -0.0235896
    2  -0.0360874   0.0127583   0.0224776  -0.0345560  -0.0015979   0.0175428
    3  -0.0172511  -0.0112183   0.0923515  -0.0348826  -0.0065140   0.0297982
          841         842         843         844         845         846
    1  -0.0021467   0.0111023  -0.0052201   0.1015537  -0.0020858  -0.0433740
    2  -0.0081647   0.0371917  -0.0091698  -0.0324046   0.0009843   0.0132119
    3  -0.0044425   0.0146616   0.0016798   0.0121636   0.0028335  -0.0125596
          847         848         849         850         851         852
    1   0.0160243   0.0211194   0.0019234   0.0302407   0.0192657  -0.0031302
    2   0.0117609   0.0053266  -0.0035466   0.0232247  -0.0277458  -0.0040530
    3  -0.0048951   0.0262737  -0.0005012  -0.0069966   0.0097701  -0.0049183
          853         854         855         856         857         858
    1   0.0123598  -0.0038397  -0.0037150  -0.0232828   0.0064061   0.0039458
    2   0.0088087  -0.0387548  -0.0088355  -0.0377057   0.0172269   0.0043602
    3   0.0111353   0.0190918  -0.0084858  -0.0340960  -0.0047069   0.0008167
          859         860         861         862         863         864
    1  -0.0197935   0.0024508  -0.0097546  -0.0007370   0.0104538  -0.0024043
    2  -0.0248982  -0.0070094   0.0172519  -0.0091186   0.0379727  -0.0008053
    3  -0.0310178   0.0068527  -0.0342045   0.0025491  -0.0048580  -0.0071115
          865         866         867         868         869         870
    1   0.0223076   0.0011645  -0.0031495  -0.1118952  -0.0011094   0.0442665
    2   0.0217192  -0.0015774  -0.0088209   0.0032544   0.0006845  -0.0024841
    3   0.0297690  -0.0024913  -0.0005808  -0.0180629   0.0032827   0.0043847
          871         872         873         874         875         876
    1  -0.0116162  -0.0195542  -0.0139591  -0.0277011  -0.0165243   0.0581179
    2   0.0176582  -0.0053473  -0.0090477   0.0234854  -0.0252759  -0.0313481
    3  -0.0004569  -0.0295426  -0.0092424  -0.0126591   0.0158629   0.0900906
          877         878         879         880         881         882
    1  -0.0113505  -0.0019440   0.0973396  -0.0183471  -0.0372374   0.0115778
    2   0.0508199  -0.0047907  -0.0436315   0.0024343   0.0218609   0.0108576
    3  -0.0153170   0.0025627  -0.0167904  -0.0096263   0.0157498  -0.0037784
          883         884         885         886         887         888
    1   0.0154211  -0.0031631   0.0245334  -0.0281243  -0.0117769   0.0192394
    2  -0.0130483   0.0002146   0.0203342   0.0023137   0.0017764  -0.0146252
    3  -0.0291852   0.0033882  -0.0144713  -0.0236024   0.0018171   0.0290825
          889         890         891         892         893         894
    1   0.0008188   0.0017755  -0.0466395  -0.0541219   0.0240126  -0.0218282
    2   0.0346154   0.0101227  -0.0829015   0.0878259  -0.0048550   0.0283247
    3   0.0047108   0.0009928  -0.0040144   0.0233800   0.0253193   0.0135744
          895         896         897         898         899         900
    1  -0.0023603   0.0194635  -0.0022983  -0.0257538   0.0152680   0.0072072
    2  -0.0009596  -0.0050631  -0.0021391   0.0122775  -0.0294202   0.0099785
    3   0.0030479   0.0293778  -0.0042203  -0.0253469  -0.0187868  -0.0014425
          901         902         903         904         905         906
    1   0.0049061  -0.0203225  -0.0141293   0.0150853  -0.0066073   0.0587300
    2   0.0650494   0.0076943  -0.0153871  -0.0333488  -0.0080828  -0.0808039
    3   0.0924161  -0.0140638   0.0403983  -0.0327093   0.0078962  -0.0366249
          907         908         909         910         911         912
    1   0.0092937  -0.0307447   0.0072552   0.0169617  -0.0004600  -0.0317760
    2  -0.0025564   0.0288267  -0.0015068  -0.0314206  -0.0024792  -0.0231583
    3   0.0032129   0.0184489  -0.0190360  -0.0129610  -0.0030132   0.0005816
          913         914         915         916         917         918
    1  -0.0173653  -0.0021906   0.0308772   0.0007822  -0.0324954   0.0071685
    2   0.0298218  -0.0016647   0.0182307  -0.0006920  -0.0238760   0.0084581
    3   0.0144970   0.0003090   0.0034004   0.0054612  -0.0033439  -0.0334508
          919         920         921         922         923         924
    1   0.0272089   0.0018710  -0.0082559   0.0077017  -0.0357176   0.0290855
    2  -0.0260767  -0.0035197   0.0323682   0.0080718  -0.0172292   0.0188248
    3   0.0147434   0.0020372   0.0186572  -0.0367170  -0.0028843   0.0038257
          925         926         927         928         929         930
    1   0.0793002  -0.0261430   0.0007436   0.0623985  -0.0420138   0.0104203
    2  -0.0265628   0.0444206  -0.0289212   0.0071396  -0.0273920   0.0251600
    3  -0.0490537   0.0130451   0.0398905  -0.0710751   0.0164381   0.0470419
          931         932         933         934         935         936
    1  -0.0253421   0.0147326   0.0036359  -0.0326502  -0.0296048   0.0469724
    2  -0.0197607  -0.0403664   0.0469909  -0.0212132  -0.0081252   0.0205814
    3  -0.0925999   0.0358088   0.0314236  -0.1112669   0.0426837   0.0171031
          937         938         939         940         941         942
    1  -0.0330872   0.0520775  -0.0356121   0.0648251   0.0082889  -0.0516930
    2   0.0214084  -0.0146285   0.0047095   0.0147657  -0.0086783  -0.0004713
    3   0.1032363  -0.0141831  -0.0409324  -0.0769967   0.0557021   0.0058382
          943         944         945         946         947         948
    1   0.0655954   0.0025652  -0.0418159   0.0450565   0.0253657  -0.0492628
    2  -0.0719136   0.0542536  -0.0123604   0.0894027  -0.0478738  -0.0070144
    3  -0.0518198   0.0042554   0.0304770   0.0341849   0.0026211  -0.0254886
  --- DONE ESP SUMMARY ---
 Total job time:  154.83s(wall), 287.15s(cpu) 
 Mon May  4 15:57:28 2026

        *************************************************************
        *                                                           *
        *  Thank you very much for using Q-Chem.  Have a nice day.  *
        *                                                           *
        *************************************************************


