
Running Job 1 of 2 19nt_xstal_distance_cutoff4_xtb_optimized_spade_wb97x-v_631gd.in
qchem 19nt_xstal_distance_cutoff4_xtb_optimized_spade_wb97x-v_631gd.in_1418856.0 ./qchem1418856/ 1
srun -n 1 /cm/shared/apps/spack/0.17.3/cpu/b/opt/spack/linux-rocky8-zen2/gcc-10.2.0/qchem-6.0-rytxnwjazd34ekd2gqyi5ufsaimxsd3r/exe/qcprog.exe 19nt_xstal_distance_cutoff4_xtb_optimized_spade_wb97x-v_631gd.in_1418856.0 ./qchem1418856/

                  Welcome to Q-Chem
     A Quantum Leap Into The Future Of Chemistry


 Q-Chem 6.0, Q-Chem, Inc., Pleasanton, CA (2022)

 License issued to: University of California, San Diego (site)

 E. Epifanovsky,  A. T. B. Gilbert,  Xintian Feng,  Joonho Lee,  Yuezhi Mao,  
 N. Mardirossian,  P. Pokhilko,  A. White,  M. Wormit,  M. P. Coons,  
 A. L. Dempwolff,  Zhengting Gan,  D. Hait,  P. R. Horn,  L. D. Jacobson,  
 I. Kaliman,  J. Kussmann,  A. W. Lange,  Ka Un Lao,  D. S. Levine,  Jie Liu,  
 S. C. McKenzie,  A. F. Morrison,  K. Nanda,  F. Plasser,  D. R. Rehn,  
 M. L. Vidal,  Zhi-Qiang You,  Ying Zhu,  B. Alam,  B. Albrecht,  
 A. Aldossary,  E. Alguire,  J. H. Andersen,  V. Athavale,  D. Barton,  
 K. Begam,  A. Behn,  N. Bellonzi,  Y. A. Bernard,  E. J. Berquist,  
 H. Burton,  A. Carreras,  K. Carter-Fenk,  Romit Chakraborty,  
 Chandrima Chakravarty,  Junhan Chen,  A. D. Chien,  K. D. Closser,  
 V. Cofer-Shabica,  L. Cunha,  S. Dasgupta,  Jia Deng,  M. de Wergifosse,  
 M. Diedenhofen,  Hainam Do,  S. Ehlert,  Po-Tung Fang,  S. Fatehi,  
 Qingguo Feng,  T. Friedhoff,  B. Ganoe,  J. Gayvert,  Qinghui Ge,  
 G. Gidofalvi,  M. Goldey,  J. Gomes,  C. Gonzalez-Espinoza,  S. Gulania,  
 A. Gunina,  J. A. Gyamfi,  M. W. D. Hanson-Heine,  P. H. P. Harbach,  
 A. W. Hauser,  M. F. Herbst,  M. Hernandez Vera,  M. Hodecker,  
 Z. C. Holden,  S. Houck,  Xunkun Huang,  Kerwin Hui,  B. C. Huynh,  
 K. Ikeda,  M. Ivanov,  Hyunjun Ji,  Zuxin Jin,  Hanjie Jiang,  B. Kaduk,  
 S. Kaehler,  R. Kang,  K. Khistyaev,  Jaehoon Kim,  Yongbin Kim,  
 P. Klunzinger,  Z. Koczor-Benda,  Joong Hoon Koh,  D. Kosenkov,  
 Saikiran Kotaru,  L. Koulias,  T. Kowalczyk,  C. M. Krauter,  K. Kue,  
 A. Kunitsa,  T. Kus,  A. Landau,  K. V. Lawler,  D. Lefrancois,  S. Lehtola,  
 Rain Li,  Shaozhi Li,  Yi-Pei Li,  Jiashu Liang,  M. Liebenthal,  
 Hung-Hsuan Lin,  You-Sheng Lin,  Fenglai Liu,  Kuan-Yu Liu,  
 M. Loipersberger,  A. Luenser,  C. Malbon,  A. Manjanath,  P. Manohar,  
 E. Mansoor,  S. F. Manzer,  Shan-Ping Mao,  A. V. Marenich,  T. Markovich,  
 S. Mason,  F. Matz,  S. A. Maurer,  P. F. McLaughlin,  M. F. S. J. Menger,  
 J.-M. Mewes,  S. A. Mewes,  P. Morgante,  Mohammad Mostafanejad,  
 J. W. Mullinax,  K. J. Oosterbaan,  G. Paran,  V. Parravicini,  
 Alexander C. Paul,  Suranjan K. Paul,  F. Pavosevic,  Zheng Pei,  S. Prager,  
 E. I. Proynov,  E. Ramos,  B. Rana,  A. E. Rask,  A. Rettig,  R. M. Richard,  
 F. Rob,  E. Rossomme,  T. Scheele,  M. Scheurer,  M. Schneider,  
 P. E. Schneider,  N. Sergueev,  S. M. Sharada,  Hengyuan Shen,  
 W. Skomorowski,  D. W. Small,  C. J. Stein,  Yingli Su,  Yu-Chuan Su,  
 E. J. Sundstrom,  Zhen Tao,  J. Thirman,  Hung-Yi Tsai,  T. Tsuchimochi,  
 N. M. Tubman,  C. Utku,  S. P. Veccham,  O. Vydrov,  J. Wenzel,  
 Jonathan Wong,  J. Witte,  A. Yamada,  Chou-Hsun Yang,  Kun Yao,  
 S. Yeganeh,  S. R. Yost,  A. Zech,  F. Zeller,  Igor Ying Zhang,  
 Xing Zhang,  Yu Zhang,  D. Zuev,  A. Aspuru-Guzik,  A. T. Bell,  
 N. A. Besley,  K. B. Bravaya,  B. R. Brooks,  D. Casanova,  Jeng-Da Chai,  
 Hsing-Ta Chen,  S. Coriani,  C. J. Cramer,  A. E. DePrince, III,  
 R. A. DiStasio Jr.,  A. Dreuw,  B. D. Dunietz,  T. R. Furlani,  
 W. A. Goddard III,  S. Grimme,  S. Hammes-Schiffer,  T. Head-Gordon,  
 W. J. Hehre,  Chao-Ping Hsu,  T.-C. Jagau,  Yousung Jung,  A. Klamt,  
 Jing Kong,  D. S. Lambrecht,  Xiangyuan Li,  WanZhen Liang,  N. J. Mayhall,  
 C. W. McCurdy,  J. B. Neaton,  T. Neudecker,  C. Ochsenfeld,  
 J. A. Parkhill,  R. Peverati,  V. A. Rassolov,  Haisheng Ren,  Yihan Shao,  
 L. V. Slipchenko,  R. P. Steele,  J. E. Subotnik,  A. J. W. Thom,  
 A. Tkatchenko,  D. G. Truhlar,  T. Van Voorhis,  Fan Wang,  
 T. A. Wesolowski,  K. B. Whaley,  H. L. Woodcock III,  P. M. Zimmerman,  
 S. Faraji,  P. M. W. Gill,  M. Head-Gordon,  J. M. Herbert,  A. I. Krylov

 Contributors to earlier versions of Q-Chem not listed above: 
 R. D. Adamson,  B. Austin,  R. Baer,  J. Baker,  G. J. O. Beran,  
 K. Brandhorst,  S. T. Brown,  E. F. C. Byrd,  Arup K. Chakraborty,  
 G. K. L. Chan,  Chun-Min Chang,  Yunqing Chen,  C.-L. Cheng,  
 Siu Hung Chien,  D. M. Chipman,  D. L. Crittenden,  H. Dachsel,  
 R. J. Doerksen,  A. D. Dutoi,  R. G. Edgar,  J. Fosso-Tande,  
 L. Fusti-Molnar,  D. Ghosh,  A. Ghysels,  A. Golubeva-Zadorozhnaya,  
 J. Gonthier,  M. S. Gordon,  S. R. Gwaltney,  G. Hawkins,  J. E. Herr,  
 A. Heyden,  S. Hirata,  E. G. Hohenstein,  G. Kedziora,  F. J. Keil,  
 C. Kelley,  Jihan Kim,  R. A. King,  R. Z. Khaliullin,  P. P. Korambath,  
 W. Kurlancheek,  A. Laurent,  A. M. Lee,  M. S. Lee,  S. V. Levchenko,  
 Ching Yeh Lin,  D. Liotard,  E. Livshits,  R. C. Lochan,  I. Lotan,  
 L. A. Martinez-Martinez,  P. E. Maslen,  N. Nair,  D. P. O'Neill,  
 D. Neuhauser,  E. Neuscamman,  C. M. Oana,  R. Olivares-Amaya,  R. Olson,  
 T. M. Perrine,  B. Peters,  P. A. Pieniazek,  A. Prociuk,  Y. M. Rhee,  
 J. Ritchie,  M. A. Rohrdanz,  E. Rosta,  N. J. Russ,  H. F. Schaefer III,  
 M. W. Schmidt,  N. E. Schultz,  S. Sharma,  N. Shenvi,  C. D. Sherrill,  
 A. C. Simmonett,  A. Sodt,  T. Stein,  D. Stuck,  K. S. Thanthiriwatte,  
 V. Vanovschi,  L. Vogt,  Tao Wang,  A. Warshel,  M. A. Watson,  
 C. F. Williams,  Q. Wu,  X. Xu,  Jun Yang,  W. Zhang,  Yan Zhao

   Please cite Q-Chem as follows:
  "Software for the frontiers of quantum chemistry:
   An overview of developments in the Q-Chem 5 package"
   J. Chem. Phys. 155, 084801 (2021)
   https://doi.org/10.1063/5.0055522 (open access)

 Q-Chem 6.0.2 for Intel X86 EM64T Linux

 Parts of Q-Chem use Armadillo 9.900.5 (Nocturnal Misbehaviour).
 http://arma.sourceforge.net/

 Q-Chem begins on Fri Aug  9 13:57:22 2024  

 Host: 
0

     Scratch files written to ./qchem1418856//
 Dec722 |scratch|qcdevops|jenkins|workspace|build_RNUM    
 Processing $rem in /cm/shared/apps/spack/0.17.3/cpu/b/opt/spack/linux-rocky8-zen2/gcc-10.2.0/qchem-6.0-rytxnwjazd34ekd2gqyi5ufsaimxsd3r/config/preferences:
 Processing $rem in /home/hklem/.qchemrc:
 No nuclear gradient supported for projection-based embedding or EMFT. Set max ideriv = 0.

 Checking the input file for inconsistencies... 	...done.

--------------------------------------------------------------
User input:
--------------------------------------------------------------
$molecule
-1 1
--
0 1
C    2.41400    1.76300    -8.72000
O    2.21300    0.68300    -8.13700
C    2.86600    2.94600    -8.06600
C    3.16800    4.08300    -8.74000
C    3.23900    4.13500    -10.23200
C    3.22100    2.73500    -10.84500
C    2.13800    1.89600    -10.18600
C    3.35500    5.36400    -8.01700
C    4.48000    6.23900    -8.56800
C    4.38600    6.36700    -10.08600
C    4.44800    4.96400    -10.71200
C    5.52200    7.20500    -10.66000
C    5.44200    7.32800    -12.18800
C    5.58700    5.93200    -12.78300
C    4.49700    5.00500    -12.24500
C    5.69500    8.65100    -10.19300
C    6.56800    9.28400    -11.29300
C    6.64100    8.26200    -12.44800
C    4.16700    8.00000    -12.69900
O    6.64400    8.92400    -13.69200
H    2.90200    2.92600    -6.98500
H    2.33400    4.66200    -10.56800
H    4.19500    2.25400    -10.70100
H    3.01500    2.78900    -11.91300
H    1.17400    2.40400    -10.29700
H    2.06600    0.91600    -10.65600
H    3.49800    5.18700    -6.95000
H    2.39900    5.90000    -8.13600
H    5.44600    5.79800    -8.30100
H    4.42400    7.22500    -8.10400
H    3.42800    6.82900    -10.33300
H    5.36600    4.47700    -10.35500
H    6.46000    6.68100    -10.43400
H    6.56900    5.53200    -12.51400
H    5.52500    5.97400    -13.87200
H    3.52600    5.31600    -12.62900
H    4.69200    4.00100    -12.62600
H    6.17600    8.70900    -9.21900
H    4.72800    9.14700    -10.11300
H    7.56700    9.50500    -10.92100
H    6.14000    10.21100   -11.67400
H    7.57000    7.67200    -12.35600
H    4.07700    9.00900    -12.31000
H    4.20700    8.05900    -13.78400
H    3.28000    7.44000    -12.42800
H    6.40100    8.28500    -14.37800
--
-1 1
H    7.31100    -6.03400   -9.60400
C    6.41900    -5.43900   -9.41900
H    6.57600    -4.84700   -8.52000
C    6.12200    -4.52800   -10.61100
H    6.97900    -3.87200   -10.78100
H    5.98000    -5.13800   -11.50500
C    4.89500    -3.69300   -10.36500
C    4.93900    -2.62500   -9.47700
H    5.86700    -2.38500   -8.97700
C    3.82000    -1.85900   -9.22500
H    3.86900    -1.03000   -8.53400
C    2.61600    -2.15000   -9.85900
O    1.49500    -1.41900   -9.64400
H    1.70600    -0.66300   -9.02900
C    2.56000    -3.22000   -10.74700
H    1.62400    -3.45000   -11.23600
C    3.68900    -3.97900   -10.99000
H    3.62900    -4.80700   -11.68300
H    5.58300    -6.11200   -9.24100
H    8.67700    -1.79700   -13.21300
C    8.21600    -0.81300   -13.25900
H    7.14800    -0.94200   -13.42200
C    8.46100    -0.04200   -11.96300
H    9.54300    0.06300    -11.81900
C    7.84800    1.35300    -12.04400
H    6.77500    1.28500    -12.21000
H    8.01500    1.90100    -11.11900
H    8.29100    1.92100    -12.85900
C    7.88300    -0.80500   -10.77400
H    8.35400    -1.78200   -10.68100
H    8.04800    -0.25800   -9.84800
H    6.81200    -0.94800   -10.90200
H    8.63200    -0.27600   -14.10900
H    -3.32700   6.54700    -6.59800
C    -2.55100   6.63400    -7.35900
H    -2.01300   7.56900    -7.20300
C    -1.58600   5.45600    -7.28400
H    -1.14300   5.41100    -6.29000
H    -2.11600   4.52200    -7.47500
C    -0.44900   5.59600    -8.31700
O    0.42600    6.46400    -8.11600
O    -0.48200   4.82800    -9.30400
H    -3.02800   6.67300    -8.33700
H    1.01200    1.71500    -17.05800
C    0.90300    2.73700    -16.70000
H    -0.15800   2.94900    -16.59800
C    1.61500    2.91200    -15.35500
H    2.67600    2.69200    -15.47900
H    1.51800    3.94900    -15.02500
C    1.04300    2.00700    -14.29700
C    1.69800    0.85000    -13.90300
H    2.63800    0.58100    -14.36600
C    1.18100    0.03600    -12.91000
H    1.71800    -0.85300   -12.60300
C    -0.01800   0.36800    -12.28900
O    -0.55500   -0.38100   -11.29000
H    0.12400    -0.96000   -10.89600
C    -0.69500   1.51500    -12.69500
H    -1.61900   1.77100    -12.20200
C    -0.16400   2.31900    -13.68100
H    -0.68500   3.22300    -13.96300
H    1.32100    3.41300    -17.44400
H    2.66600    6.86100    -17.43800
C    3.25600    7.05500    -16.54800
H    3.28600    8.12300    -16.34900
H    2.78400    6.57300    -15.69000
C    4.67200    6.53700    -16.68300
O    5.60200    6.96400    -16.02100
N    4.83100    5.56500    -17.61000
H    4.01400    5.19800    -18.07200
C    6.08500    4.89300    -17.88700
H    6.84300    5.37900    -17.27100
C    6.00900    3.39500    -17.59000
H    5.22000    2.95700    -18.21000
H    6.95500    2.93600    -17.88600
C    5.72500    3.07100    -16.11900
H    4.84500    3.64000    -15.80200
C    5.42700    1.58100    -15.96100
H    6.29100    0.98800    -16.25700
H    5.19600    1.35200    -14.92400
H    4.58000    1.28400    -16.57700
C    6.89600    3.46600    -15.22600
H    7.07300    4.53500    -15.27000
H    6.68100    3.20600    -14.19300
H    7.80300    2.94700    -15.53200
H    6.34400    5.04400    -18.94200
H    11.72900   6.63700    -16.34000
C    11.53500   6.33900    -15.31100
H    11.74400   7.18500    -14.65900
C    10.08500   5.89000    -15.13700
H    9.91900    5.00700    -15.76600
C    9.82700    5.51500    -13.68100
H    9.97700    6.38400    -13.04400
H    8.80700    5.16300    -13.54800
H    10.50600   4.72700    -13.35900
C    9.12400    6.99200    -15.57500
H    9.32800    7.30000    -16.60000
H    8.09000    6.66100    -15.51900
H    9.22500    7.85700    -14.92700
H    12.22000   5.53400    -15.05200
H    9.51800    3.37800    -2.42400
C    10.36400   2.90200    -2.91500
H    11.14000   2.71900    -2.17400
C    9.92700    1.59100    -3.57300
H    10.79300   1.12700    -4.05000
H    9.56000    0.91000    -2.80100
C    8.84800    1.81600    -4.59900
C    9.17600    2.17000    -5.90100
H    10.21700   2.27700    -6.17600
C    8.18900    2.37600    -6.84900
H    8.46100    2.64800    -7.85900
C    6.85600    2.23100    -6.50500
H    6.08200    2.38800    -7.24200
C    6.51400    1.88600    -5.20800
H    5.47400    1.78000    -4.93800
C    7.50600    1.68300    -4.26400
H    7.23600    1.41100    -3.25300
H    10.75100   3.59000    -3.66300
H    11.51200   5.74300    -8.20000
C    11.03900   6.65000    -8.57400
H    11.48800   6.90300    -9.53200
C    9.53500    6.43700    -8.73200
H    9.09200    7.35900    -9.12500
C    9.26500    5.31900    -9.73300
H    9.73600    4.39400    -9.40500
H    8.19600    5.14400    -9.83200
H    9.66100    5.58300    -10.71000
C    8.89500    6.11900    -7.38400
H    9.07100    6.92400    -6.67400
H    7.82100    5.98800    -7.49100
H    9.30700    5.20000    -6.97200
H    11.24300   7.45400    -7.86800
H    12.49500   10.13700   -12.92900
C    12.06600   10.86300   -13.61700
H    12.75500   10.99200   -14.44900
C    10.71100   10.37900   -14.11400
H    10.29500   11.10000   -14.82300
H    10.84200   9.43200    -14.64200
C    9.70400    10.18900   -12.99000
H    9.53900    11.12000   -12.44900
H    8.75000    9.83400    -13.38000
S    10.26000   8.96000    -11.74900
C    10.62500   10.05600   -10.34700
H    9.72300    10.59300   -10.06200
H    10.94500   9.42200    -9.52800
H    11.41700   10.75100   -10.61300
H    11.96900   11.81800   -13.10200
H    10.39900   11.20300   -6.49100
C    9.66600    10.90400   -5.74300
H    9.42300    11.77800   -5.14300
C    8.42400    10.33300   -6.41700
H    7.93200    11.11800   -6.99600
H    8.72900    9.55100    -7.11700
C    7.41300    9.73800    -5.43100
H    7.91100    8.94900    -4.85400
C    6.89200    10.79300   -4.46000
H    6.46800    11.63000   -5.01100
H    6.11400    10.37000   -3.83000
H    7.68400    11.16400   -3.81300
C    6.25200    9.11300    -6.20100
H    6.61000    8.32300    -6.85700
H    5.51900    8.68800    -5.51900
H    5.74500    9.86400    -6.80300
H    10.12500   10.15900   -5.09600
H    7.37200    6.68300    -2.56100
C    6.29500    6.51900    -2.55500
H    5.81300    7.39600    -2.98000
C    5.93500    5.27800    -3.36900
H    6.45400    4.41300    -2.94000
C    4.43300    5.01500    -3.32300
H    3.89400    5.84300    -3.77900
H    4.19200    4.10400    -3.86600
H    4.09100    4.90300    -2.29500
C    6.39200    5.44800    -4.81400
H    7.46600    5.61100    -4.86000
H    6.15800    4.55900    -5.39200
H    5.89100    6.29900    -5.26700
H    5.96900    6.41400    -1.52100
H    3.46800    0.99600    -2.14200
C    2.42000    1.28300    -2.19900
H    2.37500    2.35200    -2.39100
C    1.72200    0.52500    -3.31600
H    1.76300    -0.55400   -3.15400
H    0.66900    0.81000    -3.37700
C    2.31900    0.82100    -4.67700
O    3.15800    1.66500    -4.88400
O    1.80300    0.04400    -5.60500
H    2.05300    0.33400    -6.53100
H    1.94700    1.07700    -1.24200
H    -4.13700   -1.30300   -5.06400
C    -3.10900   -0.96000   -5.15400
H    -2.48600   -1.53800   -4.47400
C    -2.61200   -1.11000   -6.58800
H    -2.61700   -2.16800   -6.86900
H    -3.28800   -0.58500   -7.26600
C    -1.19800   -0.57000   -6.77000
H    -0.54600   -0.91400   -5.96800
H    -0.77800   -0.88400   -7.72500
S    -1.09900   1.25400    -6.72800
C    -1.41700   1.64100    -8.47100
H    -2.47600   1.52400    -8.68800
H    -1.11400   2.67200    -8.64100
H    -0.82900   0.97400    -9.09500
H    -3.06000   0.08600    -4.85800
H    -0.79000   5.20700    -4.18700
C    0.07900    4.64800    -3.84900
H    -0.27300   3.80900    -3.25100
C    0.90900    4.15100    -5.02300
H    1.17900    4.97000    -5.68500
H    1.82300    3.68100    -4.67000
H    0.35000    3.42000    -5.60200
H    0.66900    5.29600    -3.20000
H    1.58700    10.06400   -2.00000
C    2.65500    10.21300   -2.14700
H    3.13900    10.24700   -1.17200
C    3.23900    9.07800    -2.99100
H    4.31900    9.24000    -3.08000
H    3.08800    8.13000    -2.46800
C    2.65300    8.96400    -4.36600
C    1.92800    7.91400    -4.86300
H    1.60400    7.02800    -4.35300
N    1.62500    8.10500    -6.17800
H    1.10600    7.46800    -6.79300
C    2.16200    9.28900    -6.57000
C    2.15400    9.90400    -7.81600
H    1.66300    9.43200    -8.65300
C    2.78900    11.12000   -7.93800
H    2.80600    11.62500   -8.89400
C    3.41300    11.72300   -6.84000
H    3.89200    12.68400   -6.97500
C    3.43000    11.11900   -5.60300
H    3.91800    11.59700   -4.76600
C    2.81200    9.87800    -5.45100
H    2.79900    11.17000   -2.64200
O    0.88300    6.04300    -11.15200
H    1.05000    6.83700    -10.63900
H    0.33200    5.48700    -10.51900
O    1.21000    5.95500    -13.87700
H    0.32200    6.21200    -14.12900
H    1.18100    5.91900    -12.90000
$end

$rem
JOBTYPE  SP
METHOD  WB97X-V
BASIS  6-31G(D)
SYMMETRY  FALSE
SYM_IGNORE  TRUE
MEM_TOTAL  64000
MEM_STATIC  4000
BASIS_LIN_DEP_THRESH  6
THRESH  14
SCF_CONVERGENCE  8
FD_MAT_VEC_PROD  FALSE
XC_GRID  000075000302
NL_GRID  1
MAX_SCF_CYCLES  200
ENV_METHOD  WB97X-V
GEN_SCFMAN_EMBED  TRUE
SPADE_PARTITION  TRUE
EMBEDDING_EARLY_STOP  TRUE
$end

--------------------------------------------------------------
 ----------------------------------------------------------------
             Standard Nuclear Orientation (Angstroms)
    I     Atom           X                Y                Z
 ----------------------------------------------------------------
    1      C       2.4140000000     1.7630000000    -8.7200000000
    2      O       2.2130000000     0.6830000000    -8.1370000000
    3      C       2.8660000000     2.9460000000    -8.0660000000
    4      C       3.1680000000     4.0830000000    -8.7400000000
    5      C       3.2390000000     4.1350000000   -10.2320000000
    6      C       3.2210000000     2.7350000000   -10.8450000000
    7      C       2.1380000000     1.8960000000   -10.1860000000
    8      C       3.3550000000     5.3640000000    -8.0170000000
    9      C       4.4800000000     6.2390000000    -8.5680000000
   10      C       4.3860000000     6.3670000000   -10.0860000000
   11      C       4.4480000000     4.9640000000   -10.7120000000
   12      C       5.5220000000     7.2050000000   -10.6600000000
   13      C       5.4420000000     7.3280000000   -12.1880000000
   14      C       5.5870000000     5.9320000000   -12.7830000000
   15      C       4.4970000000     5.0050000000   -12.2450000000
   16      C       5.6950000000     8.6510000000   -10.1930000000
   17      C       6.5680000000     9.2840000000   -11.2930000000
   18      C       6.6410000000     8.2620000000   -12.4480000000
   19      C       4.1670000000     8.0000000000   -12.6990000000
   20      O       6.6440000000     8.9240000000   -13.6920000000
   21      H       2.9020000000     2.9260000000    -6.9850000000
   22      H       2.3340000000     4.6620000000   -10.5680000000
   23      H       4.1950000000     2.2540000000   -10.7010000000
   24      H       3.0150000000     2.7890000000   -11.9130000000
   25      H       1.1740000000     2.4040000000   -10.2970000000
   26      H       2.0660000000     0.9160000000   -10.6560000000
   27      H       3.4980000000     5.1870000000    -6.9500000000
   28      H       2.3990000000     5.9000000000    -8.1360000000
   29      H       5.4460000000     5.7980000000    -8.3010000000
   30      H       4.4240000000     7.2250000000    -8.1040000000
   31      H       3.4280000000     6.8290000000   -10.3330000000
   32      H       5.3660000000     4.4770000000   -10.3550000000
   33      H       6.4600000000     6.6810000000   -10.4340000000
   34      H       6.5690000000     5.5320000000   -12.5140000000
   35      H       5.5250000000     5.9740000000   -13.8720000000
   36      H       3.5260000000     5.3160000000   -12.6290000000
   37      H       4.6920000000     4.0010000000   -12.6260000000
   38      H       6.1760000000     8.7090000000    -9.2190000000
   39      H       4.7280000000     9.1470000000   -10.1130000000
   40      H       7.5670000000     9.5050000000   -10.9210000000
   41      H       6.1400000000    10.2110000000   -11.6740000000
   42      H       7.5700000000     7.6720000000   -12.3560000000
   43      H       4.0770000000     9.0090000000   -12.3100000000
   44      H       4.2070000000     8.0590000000   -13.7840000000
   45      H       3.2800000000     7.4400000000   -12.4280000000
   46      H       6.4010000000     8.2850000000   -14.3780000000
   47      H       7.3110000000    -6.0340000000    -9.6040000000
   48      C       6.4190000000    -5.4390000000    -9.4190000000
   49      H       6.5760000000    -4.8470000000    -8.5200000000
   50      C       6.1220000000    -4.5280000000   -10.6110000000
   51      H       6.9790000000    -3.8720000000   -10.7810000000
   52      H       5.9800000000    -5.1380000000   -11.5050000000
   53      C       4.8950000000    -3.6930000000   -10.3650000000
   54      C       4.9390000000    -2.6250000000    -9.4770000000
   55      H       5.8670000000    -2.3850000000    -8.9770000000
   56      C       3.8200000000    -1.8590000000    -9.2250000000
   57      H       3.8690000000    -1.0300000000    -8.5340000000
   58      C       2.6160000000    -2.1500000000    -9.8590000000
   59      O       1.4950000000    -1.4190000000    -9.6440000000
   60      H       1.7060000000    -0.6630000000    -9.0290000000
   61      C       2.5600000000    -3.2200000000   -10.7470000000
   62      H       1.6240000000    -3.4500000000   -11.2360000000
   63      C       3.6890000000    -3.9790000000   -10.9900000000
   64      H       3.6290000000    -4.8070000000   -11.6830000000
   65      H       5.5830000000    -6.1120000000    -9.2410000000
   66      H       8.6770000000    -1.7970000000   -13.2130000000
   67      C       8.2160000000    -0.8130000000   -13.2590000000
   68      H       7.1480000000    -0.9420000000   -13.4220000000
   69      C       8.4610000000    -0.0420000000   -11.9630000000
   70      H       9.5430000000     0.0630000000   -11.8190000000
   71      C       7.8480000000     1.3530000000   -12.0440000000
   72      H       6.7750000000     1.2850000000   -12.2100000000
   73      H       8.0150000000     1.9010000000   -11.1190000000
   74      H       8.2910000000     1.9210000000   -12.8590000000
   75      C       7.8830000000    -0.8050000000   -10.7740000000
   76      H       8.3540000000    -1.7820000000   -10.6810000000
   77      H       8.0480000000    -0.2580000000    -9.8480000000
   78      H       6.8120000000    -0.9480000000   -10.9020000000
   79      H       8.6320000000    -0.2760000000   -14.1090000000
   80      H      -3.3270000000     6.5470000000    -6.5980000000
   81      C      -2.5510000000     6.6340000000    -7.3590000000
   82      H      -2.0130000000     7.5690000000    -7.2030000000
   83      C      -1.5860000000     5.4560000000    -7.2840000000
   84      H      -1.1430000000     5.4110000000    -6.2900000000
   85      H      -2.1160000000     4.5220000000    -7.4750000000
   86      C      -0.4490000000     5.5960000000    -8.3170000000
   87      O       0.4260000000     6.4640000000    -8.1160000000
   88      O      -0.4820000000     4.8280000000    -9.3040000000
   89      H      -3.0280000000     6.6730000000    -8.3370000000
   90      H       1.0120000000     1.7150000000   -17.0580000000
   91      C       0.9030000000     2.7370000000   -16.7000000000
   92      H      -0.1580000000     2.9490000000   -16.5980000000
   93      C       1.6150000000     2.9120000000   -15.3550000000
   94      H       2.6760000000     2.6920000000   -15.4790000000
   95      H       1.5180000000     3.9490000000   -15.0250000000
   96      C       1.0430000000     2.0070000000   -14.2970000000
   97      C       1.6980000000     0.8500000000   -13.9030000000
   98      H       2.6380000000     0.5810000000   -14.3660000000
   99      C       1.1810000000     0.0360000000   -12.9100000000
  100      H       1.7180000000    -0.8530000000   -12.6030000000
  101      C      -0.0180000000     0.3680000000   -12.2890000000
  102      O      -0.5550000000    -0.3810000000   -11.2900000000
  103      H       0.1240000000    -0.9600000000   -10.8960000000
  104      C      -0.6950000000     1.5150000000   -12.6950000000
  105      H      -1.6190000000     1.7710000000   -12.2020000000
  106      C      -0.1640000000     2.3190000000   -13.6810000000
  107      H      -0.6850000000     3.2230000000   -13.9630000000
  108      H       1.3210000000     3.4130000000   -17.4440000000
  109      H       2.6660000000     6.8610000000   -17.4380000000
  110      C       3.2560000000     7.0550000000   -16.5480000000
  111      H       3.2860000000     8.1230000000   -16.3490000000
  112      H       2.7840000000     6.5730000000   -15.6900000000
  113      C       4.6720000000     6.5370000000   -16.6830000000
  114      O       5.6020000000     6.9640000000   -16.0210000000
  115      N       4.8310000000     5.5650000000   -17.6100000000
  116      H       4.0140000000     5.1980000000   -18.0720000000
  117      C       6.0850000000     4.8930000000   -17.8870000000
  118      H       6.8430000000     5.3790000000   -17.2710000000
  119      C       6.0090000000     3.3950000000   -17.5900000000
  120      H       5.2200000000     2.9570000000   -18.2100000000
  121      H       6.9550000000     2.9360000000   -17.8860000000
  122      C       5.7250000000     3.0710000000   -16.1190000000
  123      H       4.8450000000     3.6400000000   -15.8020000000
  124      C       5.4270000000     1.5810000000   -15.9610000000
  125      H       6.2910000000     0.9880000000   -16.2570000000
  126      H       5.1960000000     1.3520000000   -14.9240000000
  127      H       4.5800000000     1.2840000000   -16.5770000000
  128      C       6.8960000000     3.4660000000   -15.2260000000
  129      H       7.0730000000     4.5350000000   -15.2700000000
  130      H       6.6810000000     3.2060000000   -14.1930000000
  131      H       7.8030000000     2.9470000000   -15.5320000000
  132      H       6.3440000000     5.0440000000   -18.9420000000
  133      H      11.7290000000     6.6370000000   -16.3400000000
  134      C      11.5350000000     6.3390000000   -15.3110000000
  135      H      11.7440000000     7.1850000000   -14.6590000000
  136      C      10.0850000000     5.8900000000   -15.1370000000
  137      H       9.9190000000     5.0070000000   -15.7660000000
  138      C       9.8270000000     5.5150000000   -13.6810000000
  139      H       9.9770000000     6.3840000000   -13.0440000000
  140      H       8.8070000000     5.1630000000   -13.5480000000
  141      H      10.5060000000     4.7270000000   -13.3590000000
  142      C       9.1240000000     6.9920000000   -15.5750000000
  143      H       9.3280000000     7.3000000000   -16.6000000000
  144      H       8.0900000000     6.6610000000   -15.5190000000
  145      H       9.2250000000     7.8570000000   -14.9270000000
  146      H      12.2200000000     5.5340000000   -15.0520000000
  147      H       9.5180000000     3.3780000000    -2.4240000000
  148      C      10.3640000000     2.9020000000    -2.9150000000
  149      H      11.1400000000     2.7190000000    -2.1740000000
  150      C       9.9270000000     1.5910000000    -3.5730000000
  151      H      10.7930000000     1.1270000000    -4.0500000000
  152      H       9.5600000000     0.9100000000    -2.8010000000
  153      C       8.8480000000     1.8160000000    -4.5990000000
  154      C       9.1760000000     2.1700000000    -5.9010000000
  155      H      10.2170000000     2.2770000000    -6.1760000000
  156      C       8.1890000000     2.3760000000    -6.8490000000
  157      H       8.4610000000     2.6480000000    -7.8590000000
  158      C       6.8560000000     2.2310000000    -6.5050000000
  159      H       6.0820000000     2.3880000000    -7.2420000000
  160      C       6.5140000000     1.8860000000    -5.2080000000
  161      H       5.4740000000     1.7800000000    -4.9380000000
  162      C       7.5060000000     1.6830000000    -4.2640000000
  163      H       7.2360000000     1.4110000000    -3.2530000000
  164      H      10.7510000000     3.5900000000    -3.6630000000
  165      H      11.5120000000     5.7430000000    -8.2000000000
  166      C      11.0390000000     6.6500000000    -8.5740000000
  167      H      11.4880000000     6.9030000000    -9.5320000000
  168      C       9.5350000000     6.4370000000    -8.7320000000
  169      H       9.0920000000     7.3590000000    -9.1250000000
  170      C       9.2650000000     5.3190000000    -9.7330000000
  171      H       9.7360000000     4.3940000000    -9.4050000000
  172      H       8.1960000000     5.1440000000    -9.8320000000
  173      H       9.6610000000     5.5830000000   -10.7100000000
  174      C       8.8950000000     6.1190000000    -7.3840000000
  175      H       9.0710000000     6.9240000000    -6.6740000000
  176      H       7.8210000000     5.9880000000    -7.4910000000
  177      H       9.3070000000     5.2000000000    -6.9720000000
  178      H      11.2430000000     7.4540000000    -7.8680000000
  179      H      12.4950000000    10.1370000000   -12.9290000000
  180      C      12.0660000000    10.8630000000   -13.6170000000
  181      H      12.7550000000    10.9920000000   -14.4490000000
  182      C      10.7110000000    10.3790000000   -14.1140000000
  183      H      10.2950000000    11.1000000000   -14.8230000000
  184      H      10.8420000000     9.4320000000   -14.6420000000
  185      C       9.7040000000    10.1890000000   -12.9900000000
  186      H       9.5390000000    11.1200000000   -12.4490000000
  187      H       8.7500000000     9.8340000000   -13.3800000000
  188      S      10.2600000000     8.9600000000   -11.7490000000
  189      C      10.6250000000    10.0560000000   -10.3470000000
  190      H       9.7230000000    10.5930000000   -10.0620000000
  191      H      10.9450000000     9.4220000000    -9.5280000000
  192      H      11.4170000000    10.7510000000   -10.6130000000
  193      H      11.9690000000    11.8180000000   -13.1020000000
  194      H      10.3990000000    11.2030000000    -6.4910000000
  195      C       9.6660000000    10.9040000000    -5.7430000000
  196      H       9.4230000000    11.7780000000    -5.1430000000
  197      C       8.4240000000    10.3330000000    -6.4170000000
  198      H       7.9320000000    11.1180000000    -6.9960000000
  199      H       8.7290000000     9.5510000000    -7.1170000000
  200      C       7.4130000000     9.7380000000    -5.4310000000
  201      H       7.9110000000     8.9490000000    -4.8540000000
  202      C       6.8920000000    10.7930000000    -4.4600000000
  203      H       6.4680000000    11.6300000000    -5.0110000000
  204      H       6.1140000000    10.3700000000    -3.8300000000
  205      H       7.6840000000    11.1640000000    -3.8130000000
  206      C       6.2520000000     9.1130000000    -6.2010000000
  207      H       6.6100000000     8.3230000000    -6.8570000000
  208      H       5.5190000000     8.6880000000    -5.5190000000
  209      H       5.7450000000     9.8640000000    -6.8030000000
  210      H      10.1250000000    10.1590000000    -5.0960000000
  211      H       7.3720000000     6.6830000000    -2.5610000000
  212      C       6.2950000000     6.5190000000    -2.5550000000
  213      H       5.8130000000     7.3960000000    -2.9800000000
  214      C       5.9350000000     5.2780000000    -3.3690000000
  215      H       6.4540000000     4.4130000000    -2.9400000000
  216      C       4.4330000000     5.0150000000    -3.3230000000
  217      H       3.8940000000     5.8430000000    -3.7790000000
  218      H       4.1920000000     4.1040000000    -3.8660000000
  219      H       4.0910000000     4.9030000000    -2.2950000000
  220      C       6.3920000000     5.4480000000    -4.8140000000
  221      H       7.4660000000     5.6110000000    -4.8600000000
  222      H       6.1580000000     4.5590000000    -5.3920000000
  223      H       5.8910000000     6.2990000000    -5.2670000000
  224      H       5.9690000000     6.4140000000    -1.5210000000
  225      H       3.4680000000     0.9960000000    -2.1420000000
  226      C       2.4200000000     1.2830000000    -2.1990000000
  227      H       2.3750000000     2.3520000000    -2.3910000000
  228      C       1.7220000000     0.5250000000    -3.3160000000
  229      H       1.7630000000    -0.5540000000    -3.1540000000
  230      H       0.6690000000     0.8100000000    -3.3770000000
  231      C       2.3190000000     0.8210000000    -4.6770000000
  232      O       3.1580000000     1.6650000000    -4.8840000000
  233      O       1.8030000000     0.0440000000    -5.6050000000
  234      H       2.0530000000     0.3340000000    -6.5310000000
  235      H       1.9470000000     1.0770000000    -1.2420000000
  236      H      -4.1370000000    -1.3030000000    -5.0640000000
  237      C      -3.1090000000    -0.9600000000    -5.1540000000
  238      H      -2.4860000000    -1.5380000000    -4.4740000000
  239      C      -2.6120000000    -1.1100000000    -6.5880000000
  240      H      -2.6170000000    -2.1680000000    -6.8690000000
  241      H      -3.2880000000    -0.5850000000    -7.2660000000
  242      C      -1.1980000000    -0.5700000000    -6.7700000000
  243      H      -0.5460000000    -0.9140000000    -5.9680000000
  244      H      -0.7780000000    -0.8840000000    -7.7250000000
  245      S      -1.0990000000     1.2540000000    -6.7280000000
  246      C      -1.4170000000     1.6410000000    -8.4710000000
  247      H      -2.4760000000     1.5240000000    -8.6880000000
  248      H      -1.1140000000     2.6720000000    -8.6410000000
  249      H      -0.8290000000     0.9740000000    -9.0950000000
  250      H      -3.0600000000     0.0860000000    -4.8580000000
  251      H      -0.7900000000     5.2070000000    -4.1870000000
  252      C       0.0790000000     4.6480000000    -3.8490000000
  253      H      -0.2730000000     3.8090000000    -3.2510000000
  254      C       0.9090000000     4.1510000000    -5.0230000000
  255      H       1.1790000000     4.9700000000    -5.6850000000
  256      H       1.8230000000     3.6810000000    -4.6700000000
  257      H       0.3500000000     3.4200000000    -5.6020000000
  258      H       0.6690000000     5.2960000000    -3.2000000000
  259      H       1.5870000000    10.0640000000    -2.0000000000
  260      C       2.6550000000    10.2130000000    -2.1470000000
  261      H       3.1390000000    10.2470000000    -1.1720000000
  262      C       3.2390000000     9.0780000000    -2.9910000000
  263      H       4.3190000000     9.2400000000    -3.0800000000
  264      H       3.0880000000     8.1300000000    -2.4680000000
  265      C       2.6530000000     8.9640000000    -4.3660000000
  266      C       1.9280000000     7.9140000000    -4.8630000000
  267      H       1.6040000000     7.0280000000    -4.3530000000
  268      N       1.6250000000     8.1050000000    -6.1780000000
  269      H       1.1060000000     7.4680000000    -6.7930000000
  270      C       2.1620000000     9.2890000000    -6.5700000000
  271      C       2.1540000000     9.9040000000    -7.8160000000
  272      H       1.6630000000     9.4320000000    -8.6530000000
  273      C       2.7890000000    11.1200000000    -7.9380000000
  274      H       2.8060000000    11.6250000000    -8.8940000000
  275      C       3.4130000000    11.7230000000    -6.8400000000
  276      H       3.8920000000    12.6840000000    -6.9750000000
  277      C       3.4300000000    11.1190000000    -5.6030000000
  278      H       3.9180000000    11.5970000000    -4.7660000000
  279      C       2.8120000000     9.8780000000    -5.4510000000
  280      H       2.7990000000    11.1700000000    -2.6420000000
  281      O       0.8830000000     6.0430000000   -11.1520000000
  282      H       1.0500000000     6.8370000000   -10.6390000000
  283      H       0.3320000000     5.4870000000   -10.5190000000
  284      O       1.2100000000     5.9550000000   -13.8770000000
  285      H       0.3220000000     6.2120000000   -14.1290000000
  286      H       1.1810000000     5.9190000000   -12.9000000000
 ----------------------------------------------------------------
 Nuclear Repulsion Energy =       28475.48149811 hartrees
 There are      443 alpha and      443 beta electrons
 Requested basis set is 6-31G(d)
 There are 796 shells and 2023 basis functions

 Total QAlloc Memory Limit  64000 MB
 Mega-Array Size      3911 MB
 MEM_STATIC part      4000 MB

 A cutoff of  1.0D-14 yielded  90444 shell pairs
 There are    569831 function pairs
 Smallest overlap matrix eigenvalue = 3.42E-04

 Scale SEOQF with 1.000000e-02/1.000000e-02/1.000000e-03

 Standard Electronic Orientation quadrupole field applied
 Nucleus-field energy     =     0.0000002366 hartrees
 Guess from superposition of atomic densities
 Warning:  Energy on first SCF cycle will be non-variational
 SAD guess density has 885.000003 electrons

 -----------------------------------------------------------------------
  General SCF calculation program by
  Eric Jon Sundstrom, Paul Horn, Yuezhi Mao, Dmitri Zuev, Alec White,
  David Stuck, Shaama M.S., Shane Yost, Joonho Lee, David Small,
  Daniel Levine, Susi Lehtola, Hugh Burton, Evgeny Epifanovsky,
  Bang C. Huynh
 -----------------------------------------------------------------------
=================================================
        Doing projection-based embedding         
      F. Manby et al. JCTC, 8, 2564 (2012)       
=================================================

****************************************************
   Low-level SCF calculation for the whole system   
****************************************************
----------------------------------------------
 Summary of the low-level theory: 
 Exchange:     0.1670 Hartree-Fock + 1.0000 wB97X-V + LR-HF
 Correlation:  1.0000 wB97X-V
 Using Euler-Maclaurin-Lebedev (75,302) quadrature formula
 Nonlocal Correlation:  VV10 with C = 0.0100 and b = 6.00 and scale = 1.00000
 Grid used for NLC:  SG-1 standard quadrature
----------------------------------------------
 using 32 threads for integral computing
 -------------------------------------------------------
 OpenMP Integral computing Module                
 Release: version 1.0, May 2013, Q-Chem Inc. Pittsburgh 
 -------------------------------------------------------
 A restricted SCF calculation will be
 performed using DIIS
 SCF converges when DIIS error is below 1.0e-08
 ---------------------------------------
  Cycle       Energy         DIIS error
 ---------------------------------------
    1   -5527.5213265915      1.73e-02  
    2   -5494.7872917090      1.50e-03  
    3   -5495.1859534507      1.36e-03  
    4   -5495.8565936060      2.38e-04  
    5   -5495.8761573243      1.10e-04  
    6   -5495.8809067980      2.81e-05  
    7   -5495.8812377044      6.55e-06  
    8   -5495.8812654004      2.19e-06  
    9   -5495.8812694723      1.03e-06  
   10   -5495.8812705060      3.83e-07  
   11   -5495.8812706903      1.95e-07  
   12   -5495.8812707353      7.54e-08  
   13   -5495.8812707421      2.85e-08  
   14   -5495.8812707435      1.17e-08  
   15   -5495.8812707436      5.55e-09  Convergence criterion met
 ---------------------------------------
 SCF time:   CPU 63722.28s  wall 2122.00s 
 SCF   energy in the final basis set =    -5495.8812707436
 Total energy in the final basis set =    -5495.8812707436

****************************************************
             Start embedding calculation            
****************************************************
----------------------------------------------
 Summary of the high-level theory: 
 Exchange:     0.1670 Hartree-Fock + 1.0000 wB97X-V + LR-HF
 Correlation:  1.0000 wB97X-V
 Using Euler-Maclaurin-Lebedev (75,302) quadrature formula
 Nonlocal Correlation:  VV10 with C = 0.0100 and b = 6.00 and scale = 1.00000
 Grid used for NLC:  SG-1 standard quadrature
----------------------------------------------
Doing R-in-R Embedding Calculation
Number of fragments: 2
Embedded fragment(s): 1 
NOcc for each fragment
           75
          368
NBasis for each fragment
          352
         1671
Variational space of the embedded problem: 
NOcc (active)  = 75
NOcc (fixed)   = 368
NVir (total)   = 1580
Read converged orbitals from disk
=========================================================
       Doing SPADE partition for the orbital space       
     D. Claudino and N. Mayhall JCTC 15, 1053 (2019)     
=========================================================
SPADE singular values:
 1.0000 1.0000 1.0000 1.0000 1.0000 1.0000 1.0000 1.0000 1.0000 1.0000
 1.0000 1.0000 1.0000 1.0000 1.0000 1.0000 1.0000 1.0000 1.0000 1.0000
 1.0000 1.0000 1.0000 1.0000 1.0000 1.0000 1.0000 1.0000 1.0000 1.0000
 1.0000 1.0000 1.0000 1.0000 1.0000 1.0000 1.0000 1.0000 1.0000 1.0000
 1.0000 1.0000 0.9999 0.9999 0.9999 0.9999 0.9999 0.9999 0.9998 0.9998
 0.9997 0.9997 0.9996 0.9996 0.9995 0.9994 0.9994 0.9993 0.9992 0.9991
 0.9991 0.9990 0.9989 0.9987 0.9986 0.9983 0.9981 0.9980 0.9978 0.9978
 0.9969 0.9960 0.9933 0.9727 0.9718 0.1662 0.1431 0.1403 0.0979 0.0953
 0.0876 0.0735 0.0676 0.0657 0.0638 0.0616 0.0590 0.0514 0.0494 0.0467
 0.0443 0.0429 0.0412 0.0401 0.0383 0.0371 0.0358 0.0348 0.0332 0.0329
 0.0320 0.0293 0.0266 0.0248 0.0227 0.0217 0.0200 0.0178 0.0172 0.0161
 0.0154 0.0149 0.0142 0.0134 0.0124 0.0118 0.0112 0.0104 0.0102 0.0101
 0.0088 0.0081 0.0079 0.0077 0.0072 0.0070 0.0068 0.0066 0.0060 0.0057
 0.0055 0.0053 0.0050 0.0045 0.0039 0.0038 0.0037 0.0035 0.0034 0.0032
 0.0030 0.0028 0.0027 0.0027 0.0024 0.0023 0.0023 0.0021 0.0021 0.0020
 0.0019 0.0018 0.0018 0.0017 0.0016 0.0016 0.0015 0.0015 0.0014 0.0014
 0.0013 0.0013 0.0012 0.0012 0.0012 0.0011 0.0011 0.0010 0.0010 0.0009
 0.0009 0.0009 0.0009 0.0008 0.0008 0.0008 0.0008 0.0008 0.0008 0.0007
 0.0007 0.0007 0.0007 0.0007 0.0007 0.0006 0.0006 0.0006 0.0006 0.0006
 0.0005 0.0005 0.0005 0.0005 0.0005 0.0005 0.0005 0.0004 0.0004 0.0004
 0.0004 0.0004 0.0004 0.0004 0.0004 0.0003 0.0003 0.0003 0.0003 0.0003
 0.0003 0.0003 0.0003 0.0003 0.0003 0.0003 0.0003 0.0002 0.0002 0.0002
 0.0002 0.0002 0.0002 0.0002 0.0002 0.0002 0.0002 0.0002 0.0002 0.0002
 0.0002 0.0002 0.0002 0.0001 0.0001 0.0001 0.0001 0.0001 0.0001 0.0001
 0.0001 0.0001 0.0001 0.0001 0.0001 0.0001 0.0001 0.0001 0.0001 0.0001
 0.0001 0.0001 0.0001 0.0001 0.0001 0.0001 0.0001 0.0001 0.0001 0.0001
 0.0001 0.0001 0.0001 0.0001 0.0001 0.0001 0.0001 0.0001 0.0001 0.0001
 0.0001 0.0000 0.0000 0.0000 0.0000 0.0000 0.0000 0.0000 0.0000 0.0000
 0.0000 0.0000 0.0000 0.0000 0.0000 0.0000 0.0000 0.0000 0.0000 0.0000
 0.0000 0.0000 0.0000 0.0000 0.0000 0.0000 0.0000 0.0000 0.0000 0.0000
 0.0000 0.0000 0.0000 0.0000 0.0000 0.0000 0.0000 0.0000 0.0000 0.0000
 0.0000 0.0000 0.0000 0.0000 0.0000 0.0000 0.0000 0.0000 0.0000 0.0000
 0.0000 0.0000 0.0000 0.0000 0.0000 0.0000 0.0000 0.0000 0.0000 0.0000
 0.0000 0.0000 0.0000 0.0000 0.0000 0.0000 0.0000 0.0000 0.0000 0.0000
 0.0000 0.0000 0.0000 0.0000 0.0000 0.0000 0.0000 0.0000 0.0000 0.0000
 0.0000 0.0000
Early stop requested; no embedded SCF will be performed

 368 environment occs will be part of frozen-core in future post-HF calculations
 
 --------------------------------------------------------------
 
                    Orbital Energies (a.u.)
 --------------------------------------------------------------
 
 Alpha MOs
 -- Occupied --
-88.8019 -88.7751 -19.1889 -19.1792 -19.1714 -19.1469 -19.1401 -19.1300
-19.1207 -19.0833 -19.0814 -14.4007 -14.3624 -10.3334 -10.3325 -10.2778
-10.2717 -10.2636 -10.2634 -10.2438 -10.2367 -10.2300 -10.2269 -10.2242
-10.2238 -10.2234 -10.2221 -10.2220 -10.2220 -10.2202 -10.2199 -10.2199
-10.2198 -10.2192 -10.2190 -10.2189 -10.2164 -10.2159 -10.2156 -10.2147
-10.2145 -10.2138 -10.2128 -10.2125 -10.2116 -10.2113 -10.2110 -10.2093
-10.2087 -10.2081 -10.2075 -10.2071 -10.2069 -10.2067 -10.2061 -10.2055
-10.2054 -10.2053 -10.2052 -10.2049 -10.2045 -10.2042 -10.2038 -10.2036
-10.2035 -10.2020 -10.2017 -10.2013 -10.2003 -10.2000 -10.1982 -10.1969
-10.1965 -10.1958 -10.1952 -10.1950 -10.1943 -10.1943 -10.1935 -10.1918
-10.1916 -10.1898 -10.1873 -10.1869 -10.1840 -10.1833 -10.1806 -10.1795
-10.1766 -10.1761 -10.1709  -7.9674  -7.9411  -5.9254  -5.9213  -5.9140
 -5.8990  -5.8948  -5.8877  -1.1495  -1.1171  -1.1169  -1.0996  -1.0692
 -1.0567  -1.0354  -1.0227  -1.0164  -1.0059  -0.9698  -0.9311  -0.9287
 -0.9174  -0.8956  -0.8913  -0.8884  -0.8812  -0.8777  -0.8740  -0.8712
 -0.8683  -0.8599  -0.8591  -0.8586  -0.8547  -0.8460  -0.8437  -0.8352
 -0.8327  -0.8177  -0.8095  -0.8074  -0.8061  -0.8047  -0.8017  -0.8011
 -0.7982  -0.7913  -0.7890  -0.7861  -0.7770  -0.7739  -0.7622  -0.7579
 -0.7578  -0.7546  -0.7516  -0.7479  -0.7463  -0.7436  -0.7413  -0.7379
 -0.7378  -0.7338  -0.7267  -0.7218  -0.7105  -0.6981  -0.6967  -0.6866
 -0.6864  -0.6821  -0.6795  -0.6790  -0.6673  -0.6666  -0.6635  -0.6591
 -0.6569  -0.6551  -0.6538  -0.6388  -0.6321  -0.6302  -0.6284  -0.6259
 -0.6241  -0.6223  -0.6214  -0.6155  -0.6121  -0.6067  -0.6059  -0.6001
 -0.5903  -0.5893  -0.5814  -0.5637  -0.5610  -0.5564  -0.5440  -0.5429
 -0.5404  -0.5372  -0.5352  -0.5313  -0.5245  -0.5224  -0.5220  -0.5206
 -0.5203  -0.5190  -0.5187  -0.5176  -0.5136  -0.5130  -0.5130  -0.5117
 -0.5105  -0.5087  -0.5075  -0.5026  -0.5024  -0.4995  -0.4987  -0.4962
 -0.4953  -0.4907  -0.4900  -0.4869  -0.4858  -0.4850  -0.4843  -0.4833
 -0.4823  -0.4792  -0.4782  -0.4779  -0.4770  -0.4753  -0.4746  -0.4730
 -0.4723  -0.4720  -0.4712  -0.4710  -0.4681  -0.4671  -0.4653  -0.4650
 -0.4625  -0.4623  -0.4616  -0.4610  -0.4590  -0.4581  -0.4575  -0.4568
 -0.4544  -0.4533  -0.4528  -0.4519  -0.4515  -0.4500  -0.4492  -0.4453
 -0.4439  -0.4416  -0.4405  -0.4402  -0.4398  -0.4347  -0.4347  -0.4339
 -0.4334  -0.4328  -0.4322  -0.4308  -0.4284  -0.4277  -0.4273  -0.4259
 -0.4241  -0.4232  -0.4228  -0.4207  -0.4203  -0.4176  -0.4154  -0.4152
 -0.4149  -0.4143  -0.4126  -0.4091  -0.4083  -0.4074  -0.4055  -0.4053
 -0.4010  -0.4007  -0.3996  -0.3991  -0.3952  -0.3946  -0.3935  -0.3930
 -0.3922  -0.3919  -0.3911  -0.3885  -0.3875  -0.3865  -0.3861  -0.3849
 -0.3832  -0.3819  -0.3813  -0.3804  -0.3789  -0.3775  -0.3760  -0.3743
 -0.3738  -0.3727  -0.3708  -0.3693  -0.3681  -0.3676  -0.3666  -0.3653
 -0.3638  -0.3633  -0.3629  -0.3624  -0.3617  -0.3614  -0.3611  -0.3601
 -0.3596  -0.3592  -0.3577  -0.3569  -0.3567  -0.3554  -0.3547  -0.3542
 -0.3534  -0.3490  -0.3476  -0.3472  -0.3457  -0.3434  -0.3429  -0.3408
 -0.3391  -0.3352  -0.3312  -0.3289  -0.3133  -0.3105  -0.3054  -0.3045
 -0.2995  -0.2971  -0.2852  -0.2822  -0.2721  -0.2701  -0.2619  -0.2587
 -0.2530  -0.2463  -0.2409  -0.2388  -0.2275  -0.2248  -0.2199  -0.1968
-10.3424 -10.2067 -10.7819 -10.1749 -10.8547 -10.1322  -9.9059 -10.1472
-10.2129 -10.3362 -14.8308 -11.1336  -9.7982  -9.9898  -9.7492 -10.1607
 -9.8548  -9.6301  -9.2991  -1.9703  -1.4484  -1.1288  -1.0226  -1.5039
 -1.6035 -13.8172  -1.2381  -0.8490  -0.9502  -0.7803  -0.7254  -0.9505
 -0.7169  -1.5195  -0.8194  -1.1104  -1.1666  -1.2566  -0.8111  -0.8034
 -0.7143  -0.5461  -0.5686  -0.4135  -0.4897  -0.6019  -0.5375  -0.5254
 -0.4448  -1.8158  -0.4649  -0.4856  -0.4754  -0.4568  -0.4395  -0.4203
 -0.4385  -0.4553  -0.4266  -0.4556  -0.4281  -0.4424  -0.3907  -0.4208
 -0.3698  -0.3784  -0.3900  -0.3974  -0.4359  -0.4167  -0.3881  -0.3341
 -0.4048  -0.3700  -0.6209
 -- Virtual --
  0.1021   0.1446   0.1528   0.1536   0.1563   0.1574   0.1626   0.1719
  0.1759   0.1789   0.1845   0.1914   0.1917   0.1959   0.1981   0.2086
  0.2097   0.2147   0.2169   0.2189   0.2217   0.2227   0.2260   0.2288
  0.2307   0.2321   0.2342   0.2362   0.2401   0.2406   0.2423   0.2437
  0.2464   0.2479   0.2497   0.2509   0.2523   0.2530   0.2549   0.2572
  0.2596   0.2610   0.2620   0.2631   0.2638   0.2663   0.2670   0.2700
  0.2707   0.2717   0.2723   0.2750   0.2774   0.2800   0.2809   0.2826
  0.2829   0.2841   0.2851   0.2863   0.2873   0.2881   0.2905   0.2916
  0.2925   0.2945   0.2955   0.2958   0.2974   0.2979   0.2989   0.2997
  0.2999   0.3004   0.3015   0.3033   0.3046   0.3057   0.3075   0.3079
  0.3090   0.3109   0.3119   0.3122   0.3131   0.3143   0.3155   0.3162
  0.3164   0.3176   0.3188   0.3196   0.3202   0.3206   0.3215   0.3225
  0.3233   0.3245   0.3255   0.3265   0.3272   0.3281   0.3284   0.3290
  0.3298   0.3315   0.3320   0.3341   0.3343   0.3353   0.3361   0.3364
  0.3366   0.3372   0.3383   0.3385   0.3399   0.3408   0.3412   0.3415
  0.3433   0.3436   0.3445   0.3453   0.3465   0.3471   0.3476   0.3484
  0.3499   0.3512   0.3515   0.3527   0.3540   0.3543   0.3548   0.3557
  0.3560   0.3566   0.3574   0.3582   0.3596   0.3605   0.3610   0.3618
  0.3625   0.3638   0.3642   0.3665   0.3669   0.3695   0.3704   0.3705
  0.3719   0.3733   0.3745   0.3755   0.3757   0.3767   0.3778   0.3785
  0.3794   0.3798   0.3814   0.3826   0.3839   0.3842   0.3851   0.3853
  0.3865   0.3878   0.3892   0.3902   0.3913   0.3916   0.3930   0.3934
  0.3946   0.3948   0.3958   0.3968   0.3975   0.3994   0.4001   0.4013
  0.4020   0.4025   0.4030   0.4044   0.4067   0.4072   0.4078   0.4087
  0.4094   0.4105   0.4120   0.4132   0.4156   0.4168   0.4175   0.4189
  0.4194   0.4197   0.4208   0.4227   0.4237   0.4252   0.4263   0.4274
  0.4292   0.4295   0.4309   0.4318   0.4325   0.4342   0.4359   0.4380
  0.4391   0.4400   0.4405   0.4421   0.4425   0.4437   0.4443   0.4448
  0.4477   0.4484   0.4515   0.4520   0.4543   0.4566   0.4570   0.4578
  0.4591   0.4605   0.4617   0.4631   0.4647   0.4661   0.4692   0.4702
  0.4720   0.4733   0.4754   0.4759   0.4794   0.4831   0.4848   0.4850
  0.4913   0.4922   0.4938   0.4948   0.4967   0.4985   0.4992   0.5000
  0.5031   0.5044   0.5077   0.5100   0.5127   0.5159   0.5203   0.5207
  0.5234   0.5257   0.5263   0.5292   0.5303   0.5315   0.5346   0.5359
  0.5409   0.5412   0.5487   0.5549   0.5589   0.5644   0.5671   0.5720
  0.5792   0.5900   0.5916   0.5975   0.6059   0.6086   0.6097   0.6160
  0.6182   0.6250   0.6292   0.6319   0.6373   0.6404   0.6419   0.6458
  0.6487   0.6530   0.6562   0.6590   0.6599   0.6630   0.6644   0.6680
  0.6701   0.6705   0.6719   0.6732   0.6750   0.6774   0.6780   0.6800
  0.6812   0.6821   0.6830   0.6842   0.6862   0.6870   0.6880   0.6888
  0.6908   0.6914   0.6922   0.6928   0.6938   0.6950   0.6969   0.6980
  0.6997   0.7018   0.7027   0.7032   0.7047   0.7067   0.7075   0.7085
  0.7109   0.7115   0.7130   0.7135   0.7143   0.7166   0.7172   0.7180
  0.7194   0.7198   0.7220   0.7230   0.7249   0.7256   0.7263   0.7270
  0.7289   0.7297   0.7306   0.7312   0.7350   0.7359   0.7366   0.7383
  0.7391   0.7406   0.7425   0.7434   0.7463   0.7471   0.7485   0.7496
  0.7514   0.7534   0.7548   0.7572   0.7589   0.7601   0.7605   0.7615
  0.7624   0.7646   0.7653   0.7663   0.7681   0.7690   0.7720   0.7731
  0.7745   0.7755   0.7757   0.7766   0.7785   0.7794   0.7811   0.7833
  0.7853   0.7858   0.7864   0.7889   0.7898   0.7922   0.7928   0.7946
  0.7958   0.7966   0.7974   0.7977   0.7997   0.8007   0.8013   0.8053
  0.8061   0.8088   0.8092   0.8109   0.8131   0.8141   0.8162   0.8167
  0.8191   0.8200   0.8217   0.8231   0.8242   0.8266   0.8273   0.8287
  0.8300   0.8314   0.8342   0.8350   0.8360   0.8371   0.8375   0.8383
  0.8386   0.8420   0.8436   0.8446   0.8459   0.8469   0.8491   0.8502
  0.8515   0.8519   0.8525   0.8543   0.8556   0.8581   0.8604   0.8613
  0.8620   0.8641   0.8656   0.8657   0.8681   0.8686   0.8714   0.8730
  0.8741   0.8764   0.8774   0.8787   0.8802   0.8806   0.8829   0.8850
  0.8859   0.8890   0.8906   0.8922   0.8924   0.8943   0.8949   0.8962
  0.8974   0.8984   0.8996   0.9013   0.9021   0.9038   0.9051   0.9056
  0.9079   0.9083   0.9099   0.9106   0.9117   0.9136   0.9141   0.9160
  0.9176   0.9185   0.9193   0.9210   0.9224   0.9231   0.9263   0.9275
  0.9282   0.9303   0.9333   0.9358   0.9366   0.9378   0.9406   0.9413
  0.9420   0.9464   0.9470   0.9479   0.9496   0.9527   0.9529   0.9548
  0.9571   0.9581   0.9594   0.9599   0.9628   0.9641   0.9662   0.9695
  0.9712   0.9716   0.9742   0.9761   0.9779   0.9798   0.9842   0.9849
  0.9859   0.9890   0.9910   0.9914   0.9945   0.9981   0.9991   1.0009
  1.0027   1.0034   1.0047   1.0082   1.0091   1.0095   1.0110   1.0123
  1.0144   1.0155   1.0159   1.0184   1.0185   1.0190   1.0207   1.0233
  1.0243   1.0264   1.0280   1.0280   1.0298   1.0305   1.0315   1.0322
  1.0330   1.0349   1.0356   1.0369   1.0379   1.0405   1.0418   1.0436
  1.0454   1.0460   1.0471   1.0483   1.0502   1.0505   1.0512   1.0544
  1.0559   1.0570   1.0579   1.0584   1.0598   1.0605   1.0613   1.0621
  1.0644   1.0656   1.0671   1.0675   1.0683   1.0698   1.0712   1.0716
  1.0731   1.0740   1.0747   1.0758   1.0772   1.0776   1.0789   1.0790
  1.0801   1.0808   1.0824   1.0835   1.0839   1.0852   1.0855   1.0876
  1.0884   1.0899   1.0904   1.0912   1.0925   1.0932   1.0945   1.0950
  1.0954   1.0959   1.0972   1.0983   1.0989   1.1019   1.1024   1.1029
  1.1043   1.1053   1.1059   1.1067   1.1090   1.1093   1.1102   1.1111
  1.1121   1.1139   1.1142   1.1158   1.1167   1.1178   1.1186   1.1196
  1.1197   1.1213   1.1230   1.1237   1.1247   1.1256   1.1266   1.1281
  1.1287   1.1293   1.1306   1.1320   1.1324   1.1348   1.1350   1.1355
  1.1364   1.1378   1.1392   1.1410   1.1422   1.1441   1.1445   1.1450
  1.1461   1.1491   1.1500   1.1513   1.1529   1.1540   1.1556   1.1565
  1.1573   1.1580   1.1606   1.1613   1.1634   1.1644   1.1654   1.1674
  1.1686   1.1694   1.1706   1.1712   1.1732   1.1751   1.1755   1.1763
  1.1771   1.1802   1.1810   1.1830   1.1838   1.1846   1.1860   1.1880
  1.1897   1.1902   1.1912   1.1922   1.1926   1.1956   1.1961   1.1976
  1.1984   1.1999   1.2001   1.2012   1.2038   1.2059   1.2087   1.2101
  1.2104   1.2128   1.2153   1.2164   1.2175   1.2185   1.2191   1.2203
  1.2226   1.2245   1.2263   1.2284   1.2298   1.2313   1.2347   1.2366
  1.2376   1.2388   1.2404   1.2427   1.2443   1.2457   1.2480   1.2489
  1.2524   1.2526   1.2548   1.2579   1.2599   1.2606   1.2631   1.2636
  1.2649   1.2683   1.2725   1.2737   1.2758   1.2775   1.2803   1.2834
  1.2870   1.2883   1.2893   1.2898   1.2927   1.2949   1.3000   1.3011
  1.3017   1.3041   1.3050   1.3083   1.3090   1.3158   1.3176   1.3180
  1.3200   1.3214   1.3277   1.3280   1.3305   1.3337   1.3346   1.3384
  1.3416   1.3423   1.3434   1.3459   1.3489   1.3519   1.3562   1.3564
  1.3625   1.3632   1.3711   1.3721   1.3731   1.3755   1.3778   1.3800
  1.3820   1.3853   1.3871   1.3883   1.3920   1.3945   1.3974   1.3994
  1.4003   1.4052   1.4075   1.4090   1.4110   1.4137   1.4158   1.4177
  1.4186   1.4235   1.4255   1.4278   1.4288   1.4313   1.4343   1.4386
  1.4391   1.4411   1.4438   1.4478   1.4513   1.4567   1.4595   1.4646
  1.4662   1.4681   1.4709   1.4764   1.4812   1.4856   1.4886   1.4959
  1.4979   1.5004   1.5041   1.5077   1.5141   1.5147   1.5173   1.5202
  1.5240   1.5277   1.5304   1.5329   1.5399   1.5442   1.5460   1.5475
  1.5500   1.5512   1.5555   1.5590   1.5607   1.5654   1.5661   1.5678
  1.5716   1.5747   1.5775   1.5848   1.5889   1.5916   1.5944   1.5954
  1.5976   1.5991   1.6010   1.6035   1.6058   1.6063   1.6077   1.6094
  1.6121   1.6136   1.6158   1.6177   1.6186   1.6203   1.6208   1.6227
  1.6242   1.6245   1.6255   1.6264   1.6307   1.6327   1.6356   1.6370
  1.6384   1.6398   1.6440   1.6458   1.6475   1.6480   1.6501   1.6513
  1.6525   1.6545   1.6557   1.6573   1.6603   1.6619   1.6635   1.6655
  1.6677   1.6699   1.6714   1.6717   1.6755   1.6770   1.6810   1.6816
  1.6849   1.6861   1.6869   1.6882   1.6923   1.6930   1.6936   1.6956
  1.6976   1.6988   1.7002   1.7016   1.7054   1.7068   1.7110   1.7125
  1.7126   1.7165   1.7216   1.7262   1.7279   1.7323   1.7345   1.7388
  1.7426   1.7466   1.7493   1.7542   1.7630   1.7695   1.7723   1.7754
  1.7793   1.7878   1.7910   1.7951   1.8029   1.8045   1.8058   1.8111
  1.8142   1.8218   1.8276   1.8297   1.8322   1.8371   1.8471   1.8507
  1.8567   1.8624   1.8680   1.8687   1.8722   1.8742   1.8785   1.8806
  1.8827   1.8835   1.8859   1.8884   1.8925   1.8955   1.8988   1.9009
  1.9010   1.9027   1.9036   1.9053   1.9089   1.9103   1.9114   1.9123
  1.9151   1.9164   1.9176   1.9214   1.9240   1.9245   1.9266   1.9333
  1.9366   1.9386   1.9395   1.9406   1.9471   1.9481   1.9502   1.9547
  1.9562   1.9625   1.9634   1.9650   1.9674   1.9702   1.9716   1.9727
  1.9742   1.9785   1.9820   1.9841   1.9876   1.9898   1.9921   1.9929
  1.9944   1.9948   1.9954   1.9960   1.9976   1.9984   1.9989   2.0004
  2.0010   2.0040   2.0063   2.0070   2.0074   2.0103   2.0128   2.0138
  2.0155   2.0180   2.0202   2.0213   2.0229   2.0254   2.0296   2.0353
  2.0363   2.0414   2.0436   2.0449   2.0506   2.0534   2.0540   2.0587
  2.0629   2.0665   2.0684   2.0724   2.0762   2.0782   2.0803   2.0826
  2.0858   2.0878   2.0899   2.0921   2.0951   2.1008   2.1034   2.1046
  2.1057   2.1073   2.1099   2.1130   2.1137   2.1152   2.1186   2.1190
  2.1212   2.1215   2.1236   2.1241   2.1274   2.1290   2.1324   2.1333
  2.1341   2.1345   2.1364   2.1371   2.1377   2.1384   2.1396   2.1409
  2.1415   2.1420   2.1437   2.1463   2.1480   2.1503   2.1525   2.1534
  2.1546   2.1551   2.1558   2.1580   2.1601   2.1604   2.1618   2.1642
  2.1668   2.1683   2.1694   2.1742   2.1754   2.1762   2.1792   2.1803
  2.1809   2.1832   2.1868   2.1886   2.1894   2.1907   2.1913   2.1919
  2.1924   2.1962   2.1973   2.2007   2.2014   2.2030   2.2037   2.2052
  2.2080   2.2088   2.2111   2.2113   2.2133   2.2145   2.2161   2.2170
  2.2189   2.2210   2.2239   2.2260   2.2300   2.2345   2.2356   2.2379
  2.2391   2.2398   2.2480   2.2501   2.2506   2.2539   2.2545   2.2592
  2.2655   2.2688   2.2699   2.2729   2.2770   2.2775   2.2794   2.2816
  2.2834   2.2850   2.2889   2.2890   2.2932   2.2945   2.2961   2.2979
  2.2982   2.3051   2.3062   2.3079   2.3091   2.3121   2.3165   2.3189
  2.3199   2.3226   2.3269   2.3282   2.3324   2.3336   2.3356   2.3368
  2.3389   2.3406   2.3426   2.3447   2.3456   2.3475   2.3500   2.3542
  2.3566   2.3579   2.3604   2.3634   2.3652   2.3725   2.3750   2.3755
  2.3794   2.3817   2.3833   2.3845   2.3885   2.3953   2.3961   2.3964
  2.3998   2.4002   2.4027   2.4111   2.4161   2.4232   2.4241   2.4297
  2.4327   2.4332   2.4338   2.4341   2.4374   2.4380   2.4404   2.4409
  2.4415   2.4430   2.4434   2.4443   2.4461   2.4483   2.4486   2.4501
  2.4514   2.4516   2.4549   2.4549   2.4565   2.4583   2.4591   2.4599
  2.4614   2.4630   2.4650   2.4671   2.4679   2.4691   2.4726   2.4737
  2.4738   2.4751   2.4771   2.4801   2.4813   2.4848   2.4859   2.4880
  2.4890   2.4912   2.4927   2.4950   2.4955   2.4994   2.5002   2.5015
  2.5031   2.5060   2.5065   2.5078   2.5107   2.5113   2.5116   2.5118
  2.5135   2.5144   2.5165   2.5181   2.5257   2.5271   2.5276   2.5290
  2.5317   2.5332   2.5353   2.5409   2.5430   2.5452   2.5476   2.5485
  2.5505   2.5519   2.5533   2.5579   2.5618   2.5622   2.5631   2.5653
  2.5700   2.5747   2.5802   2.5842   2.5876   2.5882   2.5977   2.5997
  2.6058   2.6088   2.6097   2.6115   2.6141   2.6196   2.6211   2.6219
  2.6241   2.6295   2.6301   2.6331   2.6389   2.6418   2.6464   2.6526
  2.6549   2.6567   2.6661   2.6672   2.6688   2.6751   2.6773   2.6815
  2.6883   2.6893   2.6916   2.6935   2.6953   2.6997   2.7046   2.7054
  2.7071   2.7090   2.7107   2.7128   2.7142   2.7154   2.7161   2.7193
  2.7222   2.7246   2.7303   2.7321   2.7456   2.7469   2.7535   2.7600
  2.7606   2.7659   2.7664   2.7679   2.7721   2.7771   2.7795   2.7832
  2.7837   2.7857   2.7871   2.7910   2.7951   2.7998   2.8010   2.8092
  2.8176   2.8210   2.8230   2.8272   2.8282   2.8315   2.8353   2.8380
  2.8406   2.8429   2.8546   2.8607   2.8615   2.8643   2.8701   2.8706
  2.8766   2.8817   2.8822   2.8840   2.8857   2.8887   2.8898   2.8912
  2.8931   2.8948   2.8977   2.8995   2.9006   2.9019   2.9046   2.9122
  2.9147   2.9217   2.9242   2.9259   2.9278   2.9343   2.9360   2.9384
  2.9407   2.9417   2.9438   2.9475   2.9502   2.9546   2.9558   2.9599
  2.9609   2.9623   2.9713   2.9755   2.9783   2.9820   2.9923   2.9998
  3.0017   3.0125   3.0154   3.0172   3.0487   3.0568   3.0685   3.0830
  3.0843   3.0878   3.0902   3.0933   3.0992   3.1008   3.1065   3.1090
  3.1162   3.1391   3.1520   3.1571   3.1604   3.1869   3.1982   3.2156
  3.2259   3.2279   3.2352   3.2551   3.2591   3.2604   3.2741   3.2936
  3.3152   3.3304   3.3315   3.3407   3.3416   3.3721   3.3925   3.3972
  3.4773   3.6347   3.6408   3.6492   3.6846   3.9706   4.1309   4.1542
  4.1588   4.1726   4.2174   4.2252   4.2918   4.2999   4.3106   4.3199
  4.3295   4.3359   4.3407   4.3436   4.3472   4.3494   4.3497   4.3513
  4.3547   4.3579   4.3637   4.3682   4.3708   4.3735   4.3784   4.3790
  4.3825   4.3889   4.3957   4.4012   4.4072   4.4100   4.4106   4.4143
  4.4193   4.4198   4.4312   4.4328   4.4409   4.4516   4.4585   4.4729
  4.4787   4.4821   4.4851   4.4929   4.4960   4.4978   4.5112   4.5131
  4.5154   4.5225   4.5251   4.5303   4.5314   4.5379   4.5412   4.5445
  4.5448   4.5473   4.5500   4.5567   4.5615   4.5640   4.5709   4.5742
  4.5857   4.5868   4.5970   4.6001   4.6073   4.6189   4.6236   4.6302
  4.6387   4.6552   4.6565   4.6611   4.6644   4.6679   4.6814   4.6882
  4.6977   4.6983   4.7103   4.7206   4.7280   4.7389   4.7429   4.7516
  4.7538   4.7642   4.7873   4.7882   4.7976   4.8019   4.8103   4.8290
  4.8418   4.8510   4.8779   4.9193   4.9270   4.9465   4.9734   4.9879
  4.9942   5.0317   5.0500   5.0705
 --------------------------------------------------------------
 
          Ground-State Mulliken Net Atomic Charges

     Atom                 Charge (a.u.)
  ----------------------------------------
      1 C                     0.495378
      2 O                    -0.603497
      3 C                    -0.287419
      4 C                     0.176166
      5 C                    -0.216058
      6 C                    -0.316721
      7 C                    -0.400589
      8 C                    -0.394006
      9 C                    -0.300759
     10 C                    -0.128285
     11 C                    -0.123870
     12 C                    -0.131995
     13 C                    -0.032326
     14 C                    -0.306932
     15 C                    -0.314757
     16 C                    -0.305631
     17 C                    -0.328873
     18 C                     0.149337
     19 C                    -0.475850
     20 O                    -0.678138
     21 H                     0.200328
     22 H                     0.233705
     23 H                     0.138773
     24 H                     0.178654
     25 H                     0.221613
     26 H                     0.168298
     27 H                     0.162575
     28 H                     0.243609
     29 H                     0.137831
     30 H                     0.172998
     31 H                     0.139468
     32 H                     0.119910
     33 H                     0.133887
     34 H                     0.130663
     35 H                     0.161084
     36 H                     0.175824
     37 H                     0.138008
     38 H                     0.152758
     39 H                     0.150375
     40 H                     0.156829
     41 H                     0.153720
     42 H                     0.128020
     43 H                     0.148994
     44 H                     0.152928
     45 H                     0.165459
     46 H                     0.432707
     47 H                     0.144564
     48 C                    -0.457573
     49 H                     0.159861
     50 C                    -0.351296
     51 H                     0.159614
     52 H                     0.146992
     53 C                     0.107148
     54 C                    -0.193029
     55 H                     0.157239
     56 C                    -0.230598
     57 H                     0.181229
     58 C                     0.353610
     59 O                    -0.733424
     60 H                     0.477728
     61 C                    -0.201685
     62 H                     0.153104
     63 C                    -0.201132
     64 H                     0.140080
     65 H                     0.156269
     66 H                     0.143880
     67 C                    -0.454820
     68 H                     0.153254
     69 C                    -0.122746
     70 H                     0.134694
     71 C                    -0.459788
     72 H                     0.151914
     73 H                     0.154878
     74 H                     0.154345
     75 C                    -0.467218
     76 H                     0.143499
     77 H                     0.156634
     78 H                     0.162963
     79 H                     0.145653
     80 H                     0.139588
     81 C                    -0.471915
     82 H                     0.162377
     83 C                    -0.360068
     84 H                     0.159559
     85 H                     0.154162
     86 C                     0.584603
     87 O                    -0.591664
     88 O                    -0.604851
     89 H                     0.151546
     90 H                     0.148267
     91 C                    -0.451774
     92 H                     0.153092
     93 C                    -0.394471
     94 H                     0.147319
     95 H                     0.212396
     96 C                     0.116531
     97 C                    -0.205363
     98 H                     0.141222
     99 C                    -0.234164
    100 H                     0.152330
    101 C                     0.341607
    102 O                    -0.690446
    103 H                     0.448708
    104 C                    -0.189129
    105 H                     0.162930
    106 C                    -0.184052
    107 H                     0.142490
    108 H                     0.124729
    109 H                     0.147027
    110 C                    -0.588471
    111 H                     0.194410
    112 H                     0.255231
    113 C                     0.588488
    114 O                    -0.508674
    115 N                    -0.607207
    116 H                     0.336056
    117 C                    -0.162853
    118 H                     0.207058
    119 C                    -0.288747
    120 H                     0.133614
    121 H                     0.146528
    122 C                    -0.132844
    123 H                     0.162129
    124 C                    -0.461782
    125 H                     0.144514
    126 H                     0.163958
    127 H                     0.148080
    128 C                    -0.482608
    129 H                     0.180620
    130 H                     0.172690
    131 H                     0.137858
    132 H                     0.154540
    133 H                     0.138964
    134 C                    -0.461153
    135 H                     0.160585
    136 C                    -0.120101
    137 H                     0.125260
    138 C                    -0.485028
    139 H                     0.184723
    140 H                     0.166081
    141 H                     0.139695
    142 C                    -0.486928
    143 H                     0.134722
    144 H                     0.185555
    145 H                     0.161100
    146 H                     0.143173
    147 H                     0.163480
    148 C                    -0.457215
    149 H                     0.144943
    150 C                    -0.347816
    151 H                     0.150892
    152 H                     0.151451
    153 C                     0.117015
    154 C                    -0.198093
    155 H                     0.134967
    156 C                    -0.149009
    157 H                     0.152924
    158 C                    -0.173713
    159 H                     0.159646
    160 C                    -0.171178
    161 H                     0.211370
    162 C                    -0.199618
    163 H                     0.139176
    164 H                     0.158793
    165 H                     0.141465
    166 C                    -0.466392
    167 H                     0.160477
    168 C                    -0.124507
    169 H                     0.151894
    170 C                    -0.472472
    171 H                     0.136094
    172 H                     0.159163
    173 H                     0.170997
    174 C                    -0.466024
    175 H                     0.146069
    176 H                     0.172599
    177 H                     0.146766
    178 H                     0.141734
    179 H                     0.178662
    180 C                    -0.473375
    181 H                     0.147788
    182 C                    -0.280986
    183 H                     0.150208
    184 H                     0.165498
    185 C                    -0.488200
    186 H                     0.170282
    187 H                     0.252016
    188 S                     0.079316
    189 C                    -0.633822
    190 H                     0.192249
    191 H                     0.197908
    192 H                     0.179311
    193 H                     0.139912
    194 H                     0.143580
    195 C                    -0.469211
    196 H                     0.150916
    197 C                    -0.275201
    198 H                     0.140159
    199 H                     0.142982
    200 C                    -0.116218
    201 H                     0.130762
    202 C                    -0.471341
    203 H                     0.147743
    204 H                     0.160888
    205 H                     0.141901
    206 C                    -0.470675
    207 H                     0.152862
    208 H                     0.164390
    209 H                     0.167554
    210 H                     0.147468
    211 H                     0.139689
    212 C                    -0.458706
    213 H                     0.155548
    214 C                    -0.117362
    215 H                     0.128796
    216 C                    -0.477834
    217 H                     0.153881
    218 H                     0.180267
    219 H                     0.131774
    220 C                    -0.466869
    221 H                     0.144252
    222 H                     0.166620
    223 H                     0.156263
    224 H                     0.136829
    225 H                     0.158128
    226 C                    -0.464723
    227 H                     0.180559
    228 C                    -0.384801
    229 H                     0.174075
    230 H                     0.192751
    231 C                     0.595534
    232 O                    -0.472078
    233 O                    -0.602759
    234 H                     0.470806
    235 H                     0.144690
    236 H                     0.142522
    237 C                    -0.469703
    238 H                     0.141723
    239 C                    -0.270982
    240 H                     0.139915
    241 H                     0.154814
    242 C                    -0.456246
    243 H                     0.190645
    244 H                     0.181939
    245 S                     0.045848
    246 C                    -0.650952
    247 H                     0.168834
    248 H                     0.246562
    249 H                     0.188136
    250 H                     0.178327
    251 H                     0.157702
    252 C                    -0.472630
    253 H                     0.142106
    254 C                    -0.519564
    255 H                     0.161221
    256 H                     0.176946
    257 H                     0.194864
    258 H                     0.142853
    259 H                     0.153942
    260 C                    -0.457831
    261 H                     0.138869
    262 C                    -0.350599
    263 H                     0.160716
    264 H                     0.148574
    265 C                     0.008021
    266 C                    -0.000784
    267 H                     0.171601
    268 N                    -0.723908
    269 H                     0.408876
    270 C                     0.284541
    271 C                    -0.178538
    272 H                     0.155624
    273 C                    -0.178289
    274 H                     0.135244
    275 C                    -0.179840
    276 H                     0.124994
    277 C                    -0.202058
    278 H                     0.134519
    279 C                     0.025152
    280 H                     0.154474
    281 O                    -0.857574
    282 H                     0.401918
    283 H                     0.455013
    284 O                    -0.837093
    285 H                     0.380554
    286 H                     0.460607
  ----------------------------------------
  Sum of atomic charges =    -1.000000

 -----------------------------------------------------------------
                    Cartesian Multipole Moments
 -----------------------------------------------------------------
    Charge (ESU x 10^10)
                -4.8032
    Dipole Moment (Debye)
         X     -13.2650      Y     -24.7258      Z      39.7537
       Tot      48.6588
    Quadrupole Moments (Debye-Ang)
        XX    -831.0050     XY     -98.1258     YY    -930.1768
        XZ     127.4913     YZ     199.7718     ZZ   -1072.6879
    Octopole Moments (Debye-Ang^2)
       XXX  -10932.9180    XXY   -3959.7345    XYY   -4153.0862
       YYY  -11411.8148    XXZ    7975.7263    XYZ    1036.9257
       YYZ    8508.4978    XZZ   -4712.9335    YZZ   -5062.6147
       ZZZ   23469.7634
    Hexadecapole Moments (Debye-Ang^3)
      XXXX -161923.1097   XXXY  -60878.4223   XXYY  -57493.1015
      XYYY  -60414.5665   YYYY -173886.4432   XXXZ  111014.0864
      XXYZ   38317.1521   XYYZ   42010.8733   YYYZ  103770.7610
      XXZZ -116019.4980   XYZZ  -30849.7002   YYZZ -119579.5084
      XZZZ  115182.8080   YZZZ  107108.5351   ZZZZ -480276.7593
 -----------------------------------------------------------------
 Total job time:  2181.27s(wall), 64838.11s(cpu) 
 Fri Aug  9 14:33:43 2024

        *************************************************************
        *                                                           *
        *  Thank you very much for using Q-Chem.  Have a nice day.  *
        *                                                           *
        *************************************************************



Running Job 2 of 2 19nt_xstal_distance_cutoff4_xtb_optimized_spade_wb97x-v_631gd.in
qchem 19nt_xstal_distance_cutoff4_xtb_optimized_spade_wb97x-v_631gd.in_1418856.1 ./qchem1418856/ 1
srun -n 1 /cm/shared/apps/spack/0.17.3/cpu/b/opt/spack/linux-rocky8-zen2/gcc-10.2.0/qchem-6.0-rytxnwjazd34ekd2gqyi5ufsaimxsd3r/exe/qcprog.exe 19nt_xstal_distance_cutoff4_xtb_optimized_spade_wb97x-v_631gd.in_1418856.1 ./qchem1418856/

                  Welcome to Q-Chem
     A Quantum Leap Into The Future Of Chemistry


 Q-Chem 6.0, Q-Chem, Inc., Pleasanton, CA (2022)

 License issued to: University of California, San Diego (site)

 E. Epifanovsky,  A. T. B. Gilbert,  Xintian Feng,  Joonho Lee,  Yuezhi Mao,  
 N. Mardirossian,  P. Pokhilko,  A. White,  M. Wormit,  M. P. Coons,  
 A. L. Dempwolff,  Zhengting Gan,  D. Hait,  P. R. Horn,  L. D. Jacobson,  
 I. Kaliman,  J. Kussmann,  A. W. Lange,  Ka Un Lao,  D. S. Levine,  Jie Liu,  
 S. C. McKenzie,  A. F. Morrison,  K. Nanda,  F. Plasser,  D. R. Rehn,  
 M. L. Vidal,  Zhi-Qiang You,  Ying Zhu,  B. Alam,  B. Albrecht,  
 A. Aldossary,  E. Alguire,  J. H. Andersen,  V. Athavale,  D. Barton,  
 K. Begam,  A. Behn,  N. Bellonzi,  Y. A. Bernard,  E. J. Berquist,  
 H. Burton,  A. Carreras,  K. Carter-Fenk,  Romit Chakraborty,  
 Chandrima Chakravarty,  Junhan Chen,  A. D. Chien,  K. D. Closser,  
 V. Cofer-Shabica,  L. Cunha,  S. Dasgupta,  Jia Deng,  M. de Wergifosse,  
 M. Diedenhofen,  Hainam Do,  S. Ehlert,  Po-Tung Fang,  S. Fatehi,  
 Qingguo Feng,  T. Friedhoff,  B. Ganoe,  J. Gayvert,  Qinghui Ge,  
 G. Gidofalvi,  M. Goldey,  J. Gomes,  C. Gonzalez-Espinoza,  S. Gulania,  
 A. Gunina,  J. A. Gyamfi,  M. W. D. Hanson-Heine,  P. H. P. Harbach,  
 A. W. Hauser,  M. F. Herbst,  M. Hernandez Vera,  M. Hodecker,  
 Z. C. Holden,  S. Houck,  Xunkun Huang,  Kerwin Hui,  B. C. Huynh,  
 K. Ikeda,  M. Ivanov,  Hyunjun Ji,  Zuxin Jin,  Hanjie Jiang,  B. Kaduk,  
 S. Kaehler,  R. Kang,  K. Khistyaev,  Jaehoon Kim,  Yongbin Kim,  
 P. Klunzinger,  Z. Koczor-Benda,  Joong Hoon Koh,  D. Kosenkov,  
 Saikiran Kotaru,  L. Koulias,  T. Kowalczyk,  C. M. Krauter,  K. Kue,  
 A. Kunitsa,  T. Kus,  A. Landau,  K. V. Lawler,  D. Lefrancois,  S. Lehtola,  
 Rain Li,  Shaozhi Li,  Yi-Pei Li,  Jiashu Liang,  M. Liebenthal,  
 Hung-Hsuan Lin,  You-Sheng Lin,  Fenglai Liu,  Kuan-Yu Liu,  
 M. Loipersberger,  A. Luenser,  C. Malbon,  A. Manjanath,  P. Manohar,  
 E. Mansoor,  S. F. Manzer,  Shan-Ping Mao,  A. V. Marenich,  T. Markovich,  
 S. Mason,  F. Matz,  S. A. Maurer,  P. F. McLaughlin,  M. F. S. J. Menger,  
 J.-M. Mewes,  S. A. Mewes,  P. Morgante,  Mohammad Mostafanejad,  
 J. W. Mullinax,  K. J. Oosterbaan,  G. Paran,  V. Parravicini,  
 Alexander C. Paul,  Suranjan K. Paul,  F. Pavosevic,  Zheng Pei,  S. Prager,  
 E. I. Proynov,  E. Ramos,  B. Rana,  A. E. Rask,  A. Rettig,  R. M. Richard,  
 F. Rob,  E. Rossomme,  T. Scheele,  M. Scheurer,  M. Schneider,  
 P. E. Schneider,  N. Sergueev,  S. M. Sharada,  Hengyuan Shen,  
 W. Skomorowski,  D. W. Small,  C. J. Stein,  Yingli Su,  Yu-Chuan Su,  
 E. J. Sundstrom,  Zhen Tao,  J. Thirman,  Hung-Yi Tsai,  T. Tsuchimochi,  
 N. M. Tubman,  C. Utku,  S. P. Veccham,  O. Vydrov,  J. Wenzel,  
 Jonathan Wong,  J. Witte,  A. Yamada,  Chou-Hsun Yang,  Kun Yao,  
 S. Yeganeh,  S. R. Yost,  A. Zech,  F. Zeller,  Igor Ying Zhang,  
 Xing Zhang,  Yu Zhang,  D. Zuev,  A. Aspuru-Guzik,  A. T. Bell,  
 N. A. Besley,  K. B. Bravaya,  B. R. Brooks,  D. Casanova,  Jeng-Da Chai,  
 Hsing-Ta Chen,  S. Coriani,  C. J. Cramer,  A. E. DePrince, III,  
 R. A. DiStasio Jr.,  A. Dreuw,  B. D. Dunietz,  T. R. Furlani,  
 W. A. Goddard III,  S. Grimme,  S. Hammes-Schiffer,  T. Head-Gordon,  
 W. J. Hehre,  Chao-Ping Hsu,  T.-C. Jagau,  Yousung Jung,  A. Klamt,  
 Jing Kong,  D. S. Lambrecht,  Xiangyuan Li,  WanZhen Liang,  N. J. Mayhall,  
 C. W. McCurdy,  J. B. Neaton,  T. Neudecker,  C. Ochsenfeld,  
 J. A. Parkhill,  R. Peverati,  V. A. Rassolov,  Haisheng Ren,  Yihan Shao,  
 L. V. Slipchenko,  R. P. Steele,  J. E. Subotnik,  A. J. W. Thom,  
 A. Tkatchenko,  D. G. Truhlar,  T. Van Voorhis,  Fan Wang,  
 T. A. Wesolowski,  K. B. Whaley,  H. L. Woodcock III,  P. M. Zimmerman,  
 S. Faraji,  P. M. W. Gill,  M. Head-Gordon,  J. M. Herbert,  A. I. Krylov

 Contributors to earlier versions of Q-Chem not listed above: 
 R. D. Adamson,  B. Austin,  R. Baer,  J. Baker,  G. J. O. Beran,  
 K. Brandhorst,  S. T. Brown,  E. F. C. Byrd,  Arup K. Chakraborty,  
 G. K. L. Chan,  Chun-Min Chang,  Yunqing Chen,  C.-L. Cheng,  
 Siu Hung Chien,  D. M. Chipman,  D. L. Crittenden,  H. Dachsel,  
 R. J. Doerksen,  A. D. Dutoi,  R. G. Edgar,  J. Fosso-Tande,  
[...]
          193         194         195         196         197         198
    1   1.2314822   2.5540923   1.8519942   1.0311483   1.0741115   0.0029823
    2   3.0200279   1.8512515   1.5537027   2.9327090   1.3930173   2.9655848
    3   0.2807851  -0.5796590   0.8082604   1.6590570  -0.3066895  -1.2151864
          199         200         201         202         203         204
    1   1.5078710   0.9625017   1.9240850   0.4615680  -0.1792144  -0.4925597
    2   0.0072263   0.7589793  -0.5956543   1.9563758   3.3561249   0.9793501
    3  -1.0871328   0.9582609   2.1059500   1.6352187   0.1813787   2.5525981
          205         206         207         208         209         210
    1   1.8055813   0.0569399   0.7167993  -0.6112249  -0.3919579   2.4125314
    2   2.1381008   0.5691462  -0.5347379  -0.0210831   2.1320097  -0.0534024
    3   2.5174667  -0.1956546  -1.1794607   1.2566383  -1.3308229   1.9455908
          211         212         213         214         215         216
    1   2.6857398   0.8917035  -0.0011761   0.6938971   1.4808109  -0.6674465
    2   0.8906247   0.9086182   2.0489564  -0.2392290  -1.5426964  -0.1722655
    3   1.9554773   2.2904911   1.3414565   1.7716747   2.6215798   1.6786801
          217         218         219         220         221         222
    1  -1.1729541  -0.5614516  -0.8648543   0.8046044   2.6154637   0.0435224
    2   1.2013559  -1.4035343  -0.2692881   0.2673835   0.5564030  -0.9901120
    3   0.7434544   0.6450601   3.5703525   0.2070068   0.7181652  -0.5361034
          223         224         225         226         227         228
    1  -0.2538166   0.1107232   1.7672733  -0.0541750  -0.3776931  -0.9570719
    2   1.4870381   0.3631183  -1.2697537  -0.4893511   1.2955786  -1.4587577
    3  -0.4169066   3.7811946   2.3342544   2.5969606   2.1147318   2.1026943
          229         230         231         232         233         234
    1  -0.4381566  -2.7467560  -0.3354039   1.0904581  -0.6076168   0.4943591
    2  -3.2870892  -0.5293949  -1.2179737   0.2977820  -2.1402568  -0.5826660
    3   2.0848538   1.8920469   1.4691663   0.6057208   0.2011412  -1.9660183
          235         236         237         238         239         240
    1  -1.0238664  -3.1628682  -1.8621535  -0.4128489  -2.0121811  -1.5157729
    2  -0.8897868  -1.3611512  -1.0078898  -2.0762485  -1.6732247  -3.2780450
    3   3.5629868   1.0654965   1.5241336   2.4024182   0.0576258  -0.2836286
          241         242         243         244         245         246
    1  -3.2323793  -0.7990269   0.1949003  -0.3834153  -1.2795197  -1.7649992
    2  -0.3717483  -2.0229033  -2.4391387  -2.3297509  -0.0075617  -0.0448562
    3  -1.0810246   0.3899612   2.0782454  -1.3027642   0.9223238  -1.0653839
          247         248         249         250         251         252
    1  -3.7467613  -1.1109836  -0.5053058  -1.8566474  -2.8976873  -1.5285964
    2  -0.3377945   1.2424899  -1.2731864   0.9118680   1.2150913   0.3697045
    3  -0.9588223  -0.8036775  -1.4361657   1.9122029   1.1924644   1.9857973
          253         254         255         256         257         258
    1  -1.9462113  -0.5627876  -0.0778754   0.7442644  -1.5697479  -0.3720713
    2  -1.0737215  -0.0135909   1.1475259  -0.4466692  -0.9193812   1.2254709
    3   2.7374802   0.7287338  -0.2343244   1.4383432   0.0450357   2.8675975
          259         260         261         262         263         264
    1  -2.5888305  -0.7222443   0.3780131   0.0701180   1.8667886  -0.5300872
    2   1.0284601   1.6278966   1.2265027   0.6338053   1.1476368  -0.9246561
    3   2.0396609   2.1675635   3.3423708   2.1632192   1.8111090   2.9548627
          265         266         267         268         269         270
    1  -0.4802183  -1.2190712  -1.4968076  -1.4951459  -1.8125406  -0.9248595
    2   0.9582792  -0.3095074  -0.9793361   0.0793444  -0.2950795   1.2491351
    3   1.7376261   1.6715852   2.2236399  -0.1851580  -0.7834876  -0.4959507
          271         272         273         274         275         276
    1  -1.1438210  -1.6237114  -0.4748858  -0.4244197   0.1124093   0.6996733
    2   1.1491346   0.6615366   2.2434870   2.6135002   2.9082399   3.7902394
    3  -1.5311292  -2.3990922  -1.5015088  -2.4855192  -0.2970450  -0.3592159
          277         278         279         280         281         282
    1   0.1120217   0.6825157  -0.3647797  -0.3536927  -0.4685493  -0.0180520
    2   2.5056081   3.0104771   1.7162613   3.1871160   0.8470988   3.2158310
    3   1.1164534   2.2000195   0.8597908   1.0364229  -1.1155811   0.2371715
          283         284         285         286
    1  -1.6218169  -0.6133637  -3.4684801  -0.6438947
    2  -0.3874041   0.9758584   1.7236210   0.8316322
    3  -0.2461165  -1.1148291  -1.7338706   0.9957776
 EField
            1           2           3           4           5           6
    1  -0.0000021   0.0091977  -0.0034447  -0.0090586  -0.0130251  -0.0068021
    2   0.0303054   0.0510418   0.0182544   0.0122467   0.0117689   0.0112870
    3  -0.0098201  -0.0192154  -0.0007919  -0.0034574  -0.0027961  -0.0038235
            7           8           9          10          11          12
    1  -0.0043048  -0.0130163  -0.0088417  -0.0084325  -0.0097887  -0.0043553
    2   0.0178438   0.0065541   0.0011143  -0.0008752   0.0040412  -0.0011205
    3  -0.0116926  -0.0038282  -0.0002095  -0.0001115  -0.0005410  -0.0005030
           13          14          15          16          17          18
    1  -0.0035110  -0.0045084  -0.0075856  -0.0035654  -0.0019621  -0.0037350
    2  -0.0024049   0.0035424   0.0045210  -0.0029922  -0.0057069  -0.0058612
    3  -0.0025784  -0.0035886   0.0006804   0.0012272   0.0014897  -0.0002435
           19          20          21          22          23          24
    1  -0.0015929  -0.0104123   0.0002293  -0.0174288  -0.0044131  -0.0083343
    2  -0.0065958  -0.0122404   0.0132615   0.0199937   0.0089154   0.0073661
    3  -0.0016485  -0.0047475   0.0076606  -0.0052848  -0.0037291  -0.0013414
           25          26          27          28          29          30
    1  -0.0050057  -0.0020856  -0.0066397  -0.0252499  -0.0078979  -0.0076157
    2   0.0179780   0.0158634   0.0049359   0.0051778   0.0025525   0.0002936
    3  -0.0065943  -0.0194559  -0.0051852  -0.0072639  -0.0004575   0.0003741
           31          32          33          34          35          36
    1  -0.0061718  -0.0069057  -0.0040878  -0.0054576  -0.0021029  -0.0086562
    2  -0.0082068   0.0048466   0.0017242   0.0045531   0.0100704   0.0031875
    3   0.0005645  -0.0013976  -0.0018549  -0.0010993  -0.0066667   0.0023169
           37          38          39          40          41          42
    1  -0.0067445  -0.0051462  -0.0030243  -0.0004614  -0.0032952  -0.0012903
    2   0.0066813  -0.0017629  -0.0039373  -0.0092473  -0.0058419  -0.0026766
    3   0.0019782   0.0008208   0.0034937  -0.0000589   0.0018106   0.0032278
           43          44          45          46          47          48
    1  -0.0005544   0.0035976  -0.0031619  -0.0124994   0.0319962  -0.0000357
    2  -0.0069663  -0.0081693  -0.0080342  -0.0161218  -0.0221545   0.0002119
    3   0.0001430  -0.0015699  -0.0013149  -0.0131016  -0.0046225  -0.0012291
           49          50          51          52          53          54
    1   0.0060861   0.0010644   0.0294212  -0.0015393  -0.0022020  -0.0025726
    2   0.0176572   0.0000668   0.0212645  -0.0187146   0.0005837  -0.0046914
    3   0.0321261  -0.0006740  -0.0102787  -0.0324889  -0.0005991  -0.0079139
           55          56          57          58          59          60
    1   0.0394813   0.0096175   0.0201268   0.0282297  -0.0990265  -0.0111402
    2   0.0090162  -0.0109442   0.0228083  -0.0246654  -0.0256611  -0.0030767
    3   0.0174401  -0.0089881   0.0202717  -0.0145711  -0.0480650  -0.0148156
           61          62          63          64          65          66
    1   0.0066131  -0.0365395   0.0032453  -0.0016934  -0.0280965   0.0155348
    2  -0.0018353  -0.0105691   0.0053453  -0.0322523  -0.0241981  -0.0348747
    3  -0.0019724  -0.0213817   0.0037669  -0.0282478   0.0077502  -0.0008940
           67          68          69          70          71          72
    1   0.0003101  -0.0381005  -0.0010244   0.0349277   0.0014441  -0.0404042
    2   0.0034967  -0.0043644   0.0012979   0.0045169  -0.0016072   0.0023897
    3   0.0035549  -0.0081099  -0.0004202   0.0043316  -0.0004629  -0.0067366
           73          74          75          76          77          78
    1   0.0038080   0.0128400   0.0013669   0.0156636   0.0052363  -0.0375876
    2   0.0238170   0.0240468   0.0037922  -0.0342770   0.0191403  -0.0053095
    3   0.0310480  -0.0286954  -0.0043810   0.0041945   0.0330320  -0.0040449
           79          80          81          82          83          84
    1   0.0134253  -0.0250331   0.0039184   0.0207744   0.0062374   0.0182000
    2   0.0185337  -0.0014796   0.0008819   0.0310197  -0.0010889  -0.0021103
    3  -0.0316801   0.0239664  -0.0016679   0.0033040  -0.0041162   0.0303523
           85          86          87          88          89          90
    1  -0.0131669   0.0023448   0.0791485  -0.0051103  -0.0146018   0.0023890
    2  -0.0302420  -0.0002038   0.0622422  -0.0632224   0.0021996  -0.0347894
    3  -0.0082070   0.0015869   0.0058534  -0.0723775  -0.0344440  -0.0122101
           91          92          93          94          95          96
    1   0.0014582  -0.0372354   0.0007532   0.0374666   0.0027317   0.0001957
    2   0.0002779   0.0075380   0.0067270  -0.0020776   0.0379596   0.0007199
    3   0.0048277   0.0036336   0.0045051  -0.0001559   0.0186784   0.0046149
           97          98          99         100         101         102
    1  -0.0070392   0.0363368  -0.0013023   0.0213127   0.0129754  -0.1063274
    2   0.0083831  -0.0064544   0.0107203  -0.0295681   0.0216336   0.0039053
    3   0.0043408  -0.0172744  -0.0025414   0.0091853  -0.0220790   0.0333628
          103         104         105         106         107         108
    1   0.0321474   0.0073824  -0.0337730   0.0074900  -0.0164902   0.0133324
    2  -0.0246027   0.0042358   0.0137551  -0.0037759   0.0380178   0.0245683
    3   0.0194923  -0.0016182   0.0212440   0.0040827  -0.0073526  -0.0261279
          109         110         111         112         113         114
    1  -0.0256339  -0.0000522   0.0029881  -0.0190387  -0.0035138   0.0848773
    2  -0.0029064   0.0006029   0.0345896  -0.0144396   0.0093184   0.0452781
    3  -0.0285727   0.0080985   0.0109900   0.0360092   0.0123965   0.0708690
          115         116         117         118         119         120
    1   0.0058969  -0.0381761   0.0172437   0.0231497  -0.0014607  -0.0244473
    2   0.0095670  -0.0139682  -0.0070357   0.0198294   0.0016803  -0.0176698
    3   0.0018546  -0.0178632   0.0019134   0.0210268   0.0071342  -0.0200749
          121         122         123         124         125         126
    1   0.0306235  -0.0005675  -0.0298697   0.0000405   0.0294491  -0.0095209
    2  -0.0170980   0.0022620   0.0215607   0.0057679  -0.0222032  -0.0083119
    3  -0.0102690   0.0019869   0.0132783   0.0007568  -0.0088963   0.0375149
          127         128         129         130         131         132
    1  -0.0305395  -0.0043916   0.0049873  -0.0070604   0.0336083   0.0101233
    2  -0.0114139   0.0027199   0.0426244  -0.0055340  -0.0166988   0.0081454
    3  -0.0195946  -0.0003086   0.0028630   0.0382717  -0.0080650  -0.0304855
          133         134         135         136         137         138
    1   0.0078121  -0.0055940   0.0087269  -0.0020929  -0.0077543  -0.0017161
    2   0.0107864  -0.0015794   0.0292197   0.0007949  -0.0290673   0.0022566
    3  -0.0354288   0.0012966   0.0234674   0.0010051  -0.0198488  -0.0025737
          139         140         141         142         143         144
    1   0.0025396  -0.0391117   0.0217470  -0.0032116   0.0022233  -0.0459506
    2   0.0288845  -0.0114137  -0.0273609  -0.0046345   0.0120365  -0.0066649
    3   0.0260312   0.0079036   0.0143318   0.0020733  -0.0353647   0.0019776
          145         146         147         148         149         150
    1  -0.0008987   0.0248679  -0.0289620  -0.0011510   0.0271088  -0.0003426
    2   0.0288357  -0.0271261   0.0193708   0.0004809  -0.0035607   0.0009018
    3   0.0206683   0.0092843   0.0164716  -0.0009334   0.0261855  -0.0003067
          151         152         153         154         155         156
    1   0.0283235  -0.0095561  -0.0038372  -0.0085629   0.0399208  -0.0023498
    2  -0.0183285  -0.0243168   0.0025265   0.0002171   0.0049335   0.0005236
    3  -0.0144051   0.0239114  -0.0034355   0.0019356  -0.0113389   0.0072666
          157         158         159         160         161         162
    1   0.0100310   0.0058837  -0.0287837   0.0042453  -0.0411390   0.0022099
    2   0.0133501   0.0032129   0.0109855   0.0043413   0.0006050   0.0039438
    3  -0.0395788   0.0059664  -0.0283366  -0.0005048   0.0106216  -0.0083532
          163         164         165         166         167         168
    1  -0.0107166   0.0126208   0.0172804  -0.0061912   0.0168149  -0.0023989
    2  -0.0092966   0.0267215  -0.0312167  -0.0009267   0.0083073  -0.0001330
    3   0.0392507  -0.0252129   0.0128917  -0.0013473  -0.0340879  -0.0000723
          169         170         171         172         173         174
    1  -0.0177440  -0.0007412   0.0153702  -0.0409983   0.0105227  -0.0005726
    2   0.0305424   0.0048718  -0.0337159  -0.0057309   0.0087563   0.0005592
    3  -0.0152766   0.0008375   0.0098141  -0.0067275  -0.0371461  -0.0042703
          175         176         177         178         179         180
    1   0.0026232  -0.0410193   0.0107427   0.0080133   0.0144330  -0.0005232
    2   0.0283666  -0.0048638  -0.0332753   0.0274342  -0.0258706  -0.0023605
    3   0.0272106  -0.0010950   0.0171207   0.0249461   0.0240684   0.0002591
          181         182         183         184         185         186
    1   0.0257626   0.0032702  -0.0121488   0.0046017  -0.0020648  -0.0080621
    2   0.0050600  -0.0009039   0.0221538  -0.0309884   0.0070005   0.0343640
    3  -0.0276322  -0.0002429  -0.0269190  -0.0202180  -0.0087385   0.0188589
          187         188         189         190         191         192
    1  -0.0224555  -0.0000625   0.0011515  -0.0322039   0.0107553   0.0284991
    2  -0.0079401  -0.0461608   0.0064349   0.0168858  -0.0218595   0.0242785
    3  -0.0059157  -0.0030808   0.0087114   0.0131911   0.0322364  -0.0069445
          193         194         195         196         197         198
    1  -0.0004754   0.0259683  -0.0032930  -0.0075084  -0.0041872  -0.0191075
    2   0.0338255   0.0105016  -0.0013643   0.0298695  -0.0026964   0.0238402
    3   0.0181873  -0.0241891  -0.0013597   0.0210517   0.0027162  -0.0223309
          199         200         201         202         203         204
    1   0.0066460  -0.0018137   0.0152065  -0.0000532  -0.0179049  -0.0288500
    2  -0.0267386  -0.0004574  -0.0272181  -0.0038923   0.0293070  -0.0136820
    3  -0.0264030  -0.0030309   0.0183139  -0.0031165  -0.0189892   0.0213285
          205         206         207         208         209         210
    1   0.0257817  -0.0012809   0.0076393  -0.0315651  -0.0246241   0.0168089
    2   0.0137024   0.0007791  -0.0302558  -0.0164320   0.0228079  -0.0255292
    3   0.0231818  -0.0001188  -0.0265932   0.0186095  -0.0231687   0.0231308
          211         212         213         214         215         216
    1   0.0366263  -0.0023253  -0.0180925  -0.0012500   0.0169852   0.0033744
    2   0.0076937  -0.0035018   0.0327300   0.0013750  -0.0282822   0.0012434
    3  -0.0006090  -0.0046270  -0.0157766  -0.0026118   0.0117231  -0.0039969
          217         218         219         220         221         222
    1  -0.0219729  -0.0124233  -0.0147219  -0.0034805   0.0379201  -0.0073872
    2   0.0302597  -0.0303917  -0.0033391  -0.0007957   0.0059428  -0.0289246
    3  -0.0203289  -0.0215478   0.0342943   0.0009514  -0.0065745  -0.0236830
          223         224         225         226         227         228
    1  -0.0196274  -0.0115379   0.0375816   0.0018032   0.0020147   0.0001898
    2   0.0323134  -0.0012680  -0.0048043   0.0045217   0.0401290   0.0029658
    3  -0.0211133   0.0353949   0.0040900   0.0011013  -0.0057372   0.0069806
          229         230         231         232         233         234
    1  -0.0019222  -0.0380353   0.0058662   0.0782844  -0.0657909   0.0012862
    2  -0.0358237   0.0092994   0.0151217   0.0866202  -0.0817691   0.0121826
    3   0.0093868   0.0019169   0.0258171  -0.0131204   0.0302253   0.0171063
          235         236         237         238         239         240
    1  -0.0152970  -0.0372086  -0.0005546   0.0188791  -0.0028553  -0.0049222
    2  -0.0044750  -0.0108919   0.0023972  -0.0197928   0.0014272  -0.0347865
    3   0.0359073   0.0057041  -0.0014407   0.0265271   0.0003136  -0.0107311
          241         242         243         244         245         246
    1  -0.0250829  -0.0084845   0.0207096   0.0068539   0.0053038  -0.0030023
    2   0.0169399  -0.0110533  -0.0128848  -0.0149869   0.0311999   0.0115001
    3  -0.0242263   0.0015132   0.0281095  -0.0310397   0.0345903  -0.0170581
          247         248         249         250         251         252
    1  -0.0374938   0.0115758   0.0127347  -0.0005983  -0.0305623   0.0012761
    2   0.0005626   0.0447854  -0.0134261   0.0377502   0.0209393   0.0014397
    3  -0.0131001  -0.0163359  -0.0344217   0.0105753  -0.0116036  -0.0029920
          253         254         255         256         257         258
    1  -0.0135119   0.0028665   0.0138965   0.0357938  -0.0156983   0.0192132
    2  -0.0262172   0.0018592   0.0298345  -0.0136195  -0.0207982   0.0229690
    3   0.0210260  -0.0044768  -0.0325950   0.0046339  -0.0240026   0.0222059
          259         260         261         262         263         264
    1  -0.0369644  -0.0005318   0.0158123   0.0004272   0.0345590  -0.0006432
    2  -0.0041035  -0.0020812   0.0025159  -0.0000848   0.0007251  -0.0320091
    3   0.0033188  -0.0029219   0.0333330  -0.0003887  -0.0031519   0.0159115
          265         266         267         268         269         270
    1  -0.0027048   0.0111214  -0.0124366  -0.0060730  -0.0215062   0.0099325
    2  -0.0043177   0.0071305  -0.0380831  -0.0105819  -0.0350549   0.0144060
    3  -0.0050880   0.0124477   0.0186528  -0.0109761  -0.0362472  -0.0043068
          271         272         273         274         275         276
    1   0.0047475  -0.0184055  -0.0007009   0.0000236  -0.0032620   0.0174594
    2   0.0030177  -0.0226544  -0.0072436   0.0157218  -0.0097430   0.0343684
    3   0.0010489  -0.0343670   0.0066694  -0.0363852   0.0020756  -0.0047006
          277         278         279         280         281         282
    1  -0.0026312   0.0193335   0.0007018   0.0028519   0.0294080   0.0178627
    2  -0.0029169   0.0176729  -0.0023005   0.0339208  -0.0413332   0.0373947
    3  -0.0102043   0.0307855  -0.0023183  -0.0174816  -0.0775159   0.0352143
          283         284         285         286
    1  -0.0090717   0.0935896  -0.0480112   0.0031670
    2  -0.0260891  -0.0222235   0.0144429  -0.0028214
    3   0.0288087  -0.0506750  -0.0129320   0.0604967
  --- DONE ESP SUMMARY ---
 Total job time:  9.94s(wall), 119.58s(cpu) 
 Fri Aug  9 14:33:55 2024

        *************************************************************
        *                                                           *
        *  Thank you very much for using Q-Chem.  Have a nice day.  *
        *                                                           *
        *************************************************************


