
Running Job 1 of 2 cutoff7_elec_dft.in
qchem cutoff7_elec_dft.in_808563.0 /media/work/klemlab/arkanil/qchem_scratch/qchem808563/ 1
/home/klemlab/Desktop/software/QChem/exe/qcprog.exe_s cutoff7_elec_dft.in_808563.0 /media/work/klemlab/arkanil/qchem_scratch/qchem808563/
                  Welcome to Q-Chem
     A Quantum Leap Into The Future Of Chemistry


 Q-Chem 6.4, Q-Chem, Inc., Pleasanton, CA (2025)

 E. Epifanovsky,  A. T. B. Gilbert,  Xintian Feng,  Joonho Lee,  Yuezhi Mao,  
 N. Mardirossian,  P. Pokhilko,  A. White,  M. Wormit,  M. P. Coons,  
 A. L. Dempwolff,  Zhengting Gan,  D. Hait,  P. R. Horn,  L. D. Jacobson,  
 I. Kaliman,  J. Kussmann,  A. W. Lange,  Ka Un Lao,  D. S. Levine,  Jie Liu,  
 S. C. McKenzie,  A. F. Morrison,  K. D. Nanda,  F. Plasser,  D. R. Rehn,  
 M. L. Vidal,  Zhi-Qiang You,  Ying Zhu,  Huseyin Aksu,  B. Alam,  
 B. Albrecht,  A. Aldossary,  E. Alguire,  J. H. Andersen,  
 J. E. Arias-Martinez,  V. Athavale,  F. Ballesteros,  D. Barton,  K. Begam,  
 A. Behn,  N. Bellonzi,  Y. A. Bernard,  E. J. Berquist,  H. Burton,  
 S. Camps,  A. Carreras,  K. Carter-Fenk,  Mathew Chow,  Jeng-Da Chai,  
 Arnab Chakraborty,  Romit Chakraborty,  Chandrima Chakravarty,  Junhan Chen,  
 A. D. Chien,  K. D. Closser,  V. Cofer-Shabica,  L. Cunha,  S. Dasgupta,  
 Jia Deng,  Joseph Dickinson,  M. de Wergifosse,  M. Diedenhofen,  
 L. B. Dittmer,  Hainam Do,  Wenjie Dou,  S. Ehlert,  Po-Tung Fang,  
 Anthuan Ferino-Pérez,  S. Fatehi,  Qingguo Feng,  Jonathan Fetherolf,  
 T. Friedhoff,  Thomas Froitzheim,  Sarai Folkestad,  B. Ganoe,  J. Gayvert,  
 Qinghui Ge,  G. Gidofalvi,  M. Gimferrer,  G. Giudetti,  M. Goldey,  
 Montgomery Gray,  J. Gomes,  C. Gonzalez-Espinoza,  S. Gulania,  A. Gunina,  
 J. A. Gyamfi,  M. W. D. Hanson-Heine,  P. H. P. Harbach,  A. W. Hauser,  
 M. F. Herbst,  M. Hernandez Vera,  M. Hodecker,  Z. C. Holden,  S. Houck,  
 Xunkun Huang,  Kerwin Hui,  B. C. Huynh,  K. Ikeda,  M. Ivanov,  
 Nayanthara K. Jayadev,  Hyunjun Ji,  Zuxin Jin,  Hanjie Jiang,  
 Subrata Jana,  B. Kaduk,  S. Kaehler,  Richard Kang,  K. Khistyaev,  
 Jaehoon Kim,  Yongbin Kim,  P. Klunzinger,  Z. Koczor-Benda,  
 Joong Hoon Koh,  Elena Kolodzeiski,  D. Kosenkov,  Saikiran Kotaru,  
 L. Koulias,  T. Kowalczyk,  C. M. Krauter,  K. Kue,  A. Kunitsa,  T. Kus,  
 A. Landau,  C. W. Lander,  K. V. Lawler,  D. Lefrancois,  S. Lehtola,  
 Rain Li,  Shaozhi Li,  Tao E. Li,  Yi-Pei Li,  Jiashu Liang,  M. Liebenthal,  
 Hung-Hsuan Lin,  You-Sheng Lin,  Fenglai Liu,  Kuan-Yu Liu,  Xiao Liu,  
 M. Loipersberger,  A. Luenser,  C. Malbon,  Aniket Mandal,  Manisha,  
 A. Manjanath,  P. Manohar,  E. Mansoor,  S. F. Manzer,  Shan-Ping Mao,  
 A. V. Marenich,  T. Markovich,  S. Mason,  F. Matz,  S. A. Maurer,  
 Samuel May,  Alexandra McIsaac,  P. F. McLaughlin,  M. F. S. J. Menger,  
 J.-M. Mewes,  S. A. Mewes,  R. E. Moorby,  P. Morgante,  
 Mohammad Mostafanejad,  Madhubani Mukherjee,  J. W. Mullinax,  Quyen Nguyen,  
 Avik Kumar Ojha,  K. J. Oosterbaan,  Eno Paenurk,  Xiaoliang Pan,  G. Paran,  
 V. Parravicini,  R. L. Patterson,  Alexander C. Paul,  Suranjan K. Paul,  
 F. Pavosevic,  Zheng Pei,  P. Pokhilko,  S. Prager,  E. I. Proynov,  
 E. Ramos,  B. Rana,  A. E. Rask,  A. Rettig,  R. M. Richard,  F. Rob,  
 E. Rossomme,  S. Roy,  T. Scheele,  M. Scheurer,  M. Schneider,  
 P. E. Schneider,  Tim K. Schramm,  N. Sergueev,  S. M. Sharada,  
 Hengyuan Shen,  W. Skomorowski,  D. W. Small,  C. J. Stein,  
 Alistair J. Sterling,  Yingli Su,  Yu-Chuan Su,  E. J. Sundstrom,  
 J. Talbot,  J. A. Tan,  Zhen Tao,  Hung-Hsuan Teh,  J. Thirman,  C. Titeca,  
 N. Tkachenko,  Hung-Yi Tsai,  T. Tsuchimochi,  N. M. Tubman,  C. Utku,  
 S. P. Veccham,  O. Vydrov,  Z. Wang,  Markus G. S. Weiss,  Rahel Weiss,  
 J. Wenzel,  Jonathan Wong,  J. Witte,  H. Wu,  Yanze Wu,  A. Yamada,  
 Chou-Hsun Yang,  Kun Yao,  S. Yeganeh,  S. R. Yost,  Qi Yu,  A. Zech,  
 F. Zeller,  Chongxiao Zhao,  T. Zhao,  Igor Ying Zhang,  Xing Zhang,  
 Yu Zhang,  Zeyi Zhang,  D. Zuev,  A. Aspuru-Guzik,  A. T. Bell,  
 N. A. Besley,  K. B. Bravaya,  B. R. Brooks,  D. Casanova,  Jeng-Da Chai,  
 Hsing-Ta Chen,  S. Coriani,  C. J. Cramer,  A. E. DePrince, III,  
 R. A. DiStasio Jr.,  A. Dreuw,  B. D. Dunietz,  T. R. Furlani,  
 W. A. Goddard III,  S. Grimme,  S. Hammes-Schiffer,  T. Head-Gordon,  
 W. J. Hehre,  Chao-Ping Hsu,  T.-C. Jagau,  Yousung Jung,  A. Klamt,  
 Jing Kong,  D. S. Lambrecht,  Xiangyuan Li,  WanZhen Liang,  N. J. Mayhall,  
 C. W. McCurdy,  J. B. Neaton,  T. Neudecker,  C. Ochsenfeld,  
 J. A. Parkhill,  R. Peverati,  V. A. Rassolov,  Haisheng Ren,  Yihan Shao,  
 L. V. Slipchenko,  R. P. Steele,  J. E. Subotnik,  A. J. W. Thom,  
 A. Tkatchenko,  D. G. Truhlar,  T. Van Voorhis,  Fan Wang,  
 T. A. Wesolowski,  K. B. Whaley,  H. L. Woodcock III,  P. M. Zimmerman,  
 S. Faraji,  P. M. W. Gill,  M. Head-Gordon,  J. M. Herbert,  A. I. Krylov

 Contributors to earlier versions of Q-Chem not listed above: 
 R. D. Adamson,  B. Austin,  R. Baer,  J. Baker,  G. J. O. Beran,  
 K. Brandhorst,  S. T. Brown,  E. F. C. Byrd,  Arup K. Chakraborty,  
 G. K. L. Chan,  Chun-Min Chang,  Yunqing Chen,  C.-L. Cheng,  
 Siu Hung Chien,  D. M. Chipman,  D. L. Crittenden,  H. Dachsel,  
 R. J. Doerksen,  A. D. Dutoi,  R. G. Edgar,  J. Fosso-Tande,  
 L. Fusti-Molnar,  D. Ghosh,  A. Ghysels,  A. Golubeva-Zadorozhnaya,  
 J. Gonthier,  M. S. Gordon,  S. R. Gwaltney,  G. Hawkins,  J. E. Herr,  
 A. Heyden,  S. Hirata,  E. G. Hohenstein,  G. Kedziora,  F. J. Keil,  
 C. Kelley,  Jihan Kim,  R. A. King,  R. Z. Khaliullin,  P. P. Korambath,  
 W. Kurlancheek,  A. Laurent,  A. M. Lee,  M. S. Lee,  S. V. Levchenko,  
 Ching Yeh Lin,  D. Liotard,  E. Livshits,  R. C. Lochan,  I. Lotan,  
 L. A. Martinez-Martinez,  P. E. Maslen,  N. Nair,  D. P. O'Neill,  
 D. Neuhauser,  E. Neuscamman,  C. M. Oana,  R. Olivares-Amaya,  R. Olson,  
 T. M. Perrine,  B. Peters,  P. A. Pieniazek,  A. Prociuk,  Y. M. Rhee,  
 J. Ritchie,  M. A. Rohrdanz,  E. Rosta,  N. J. Russ,  H. F. Schaefer III,  
 M. W. Schmidt,  N. E. Schultz,  S. Sharma,  N. Shenvi,  C. D. Sherrill,  
 A. C. Simmonett,  A. Sodt,  T. Stein,  D. Stuck,  K. S. Thanthiriwatte,  
 V. Vanovschi,  L. Vogt,  Tao Wang,  A. Warshel,  M. A. Watson,  
 C. F. Williams,  Q. Wu,  X. Xu,  Jun Yang,  W. Zhang,  Yan Zhao

   Please cite Q-Chem as follows:
  "Software for the frontiers of quantum chemistry:
   An overview of developments in the Q-Chem 5 package"
   J. Chem. Phys. 155, 084801 (2021)
   https://doi.org/10.1063/5.0055522 (open access)

 Q-Chem 6.4.0 for Intel X86 EM64T Linux

 Parts of Q-Chem use Armadillo 12.8.2 (Cortisol Injector).
 http://arma.sourceforge.net/

 Q-Chem begins on Sat May  2 13:44:10 2026  

 Host: 
0

 Scratch files written to /media/work/klemlab/arkanil/qchem_scratch/qchem808563//
 Executable: /home/klemlab/Desktop/software/QChem/exe/qcprog.exe_s
 Number of threads = 3
 Dec1625 |scratch|qcdevops|jenkins|workspace|build_RNUM -1
 Processing $rem in /home/klemlab/Desktop/software/QChem/config/preferences:
 Processing $rem in /home/klemlab/.qchemrc:
 No nuclear gradient supported for projection-based embedding or EMFT. Set max ideriv = 0.

 Checking the input file for inconsistencies... 	...done.

--------------------------------------------------------------
User input:
--------------------------------------------------------------
$molecule
-2 1
--
0 1
C        -1.761000        1.676000       -1.261000
O        -2.505000        1.892000       -2.221000
C        -1.728000        0.393000       -0.588000
C        -0.844000        0.099000        0.392000
C         0.197000        1.102000        0.860000
C         0.433000        2.204000       -0.180000
C        -0.868000        2.767000       -0.737000
C        -0.947000       -1.212000        1.113000
C         0.389000       -1.786000        1.580000
C         1.206000       -0.715000        2.300000
C         1.514000        0.423000        1.304000
C         2.497000       -1.259000        2.888000
C         3.370000       -0.177000        3.552000
C         3.777000        0.835000        2.480000
C         2.533000        1.455000        1.826000
C         2.407000       -2.374000        3.938000
C         3.789000       -2.335000        4.634000
C         4.502000       -1.072000        4.091000
C         2.680000        0.544000        4.724000
O         5.376000       -0.470000        5.045000
H        -2.482000       -0.332000       -0.890000
H        -0.233000        1.560000        1.766000
H         1.033000        1.795000       -1.005000
H         1.021000        3.020000        0.254000
H        -1.435000        3.284000        0.050000
H        -0.700000        3.500000       -1.529000
H        -1.490000       -1.935000        0.495000
H        -1.590000       -1.047000        1.991000
H         0.967000       -2.174000        0.727000
H         0.193000       -2.635000        2.241000
H         0.583000       -0.309000        3.110000
H         1.962000       -0.051000        0.414000
H         3.097000       -1.652000        2.048000
H         4.376000        0.324000        1.712000
H         4.403000        1.630000        2.905000
H         2.042000        2.116000        2.553000
H         2.860000        2.097000        1.000000
H         2.184000       -3.349000        3.500000
H         1.598000       -2.161000        4.646000
H         4.383000       -3.231000        4.431000
H         3.691000       -2.265000        5.725000
H         5.153000       -1.348000        3.258000
H         2.461000       -0.131000        5.560000
H         3.327000        1.354000        5.084000
H         1.730000        1.002000        4.437000
H         4.844000       -0.184000        5.798000
--
-2 1
H        -3.440000        8.397000       -7.639000
C        -3.259000        8.105000       -6.597000
H        -3.241000        9.013000       -5.990000
C        -4.402000        7.174000       -6.125000
H        -5.329000        7.760000       -6.121000
H        -4.554000        6.382000       -6.870000
C        -4.199000        6.520000       -4.773000
C        -4.630000        7.091000       -3.576000
H        -5.112000        8.068000       -3.586000
C        -4.448000        6.444000       -2.348000
H        -4.747000        6.938000       -1.426000
C        -3.822000        5.194000       -2.301000
O        -3.588000        4.507000       -1.164000
H        -4.173000        4.759000       -0.428000
C        -3.379000        4.612000       -3.494000
H        -2.903000        3.640000       -3.439000
C        -3.565000        5.274000       -4.693000
H        -3.205000        4.811000       -5.607000
C        -1.865000        7.502000       -6.464000
O        -1.010000        8.013000       -5.753000
N        -1.619000        6.363000       -7.169000
H        -2.302000        6.020000       -7.828000
C        -0.293000        5.772000       -7.147000
H         0.040000        5.764000       -6.104000
C        -0.208000        4.363000       -7.734000
H        -0.579000        4.400000       -8.770000
C         1.265000        3.944000       -7.786000
H         1.726000        3.993000       -6.793000
H         1.363000        2.913000       -8.144000
H         1.843000        4.593000       -8.453000
C        -1.069000        3.339000       -6.981000
H        -2.117000        3.645000       -7.076000
H        -1.001000        2.373000       -7.496000
C        -0.732000        3.145000       -5.504000
H        -0.859000        4.071000       -4.935000
H        -1.381000        2.385000       -5.056000
H         0.297000        2.797000       -5.366000
H         0.406000        6.430000       -7.684000
H         1.298000        8.199000       -3.645000
C         1.829000        7.513000       -2.972000
H         1.646000        7.851000       -1.947000
C         1.258000        6.094000       -3.164000
H         1.383000        5.804000       -4.219000
C         1.986000        5.057000       -2.305000
H         1.852000        5.277000       -1.239000
H         1.591000        4.052000       -2.495000
H         3.062000        5.040000       -2.509000
C        -0.244000        6.096000       -2.875000
H        -0.776000        6.809000       -3.514000
H        -0.676000        5.106000       -3.048000
H        -0.437000        6.353000       -1.827000
C         3.320000        7.650000       -3.214000
O         4.069000        8.200000       -2.408000
N         3.771000        7.137000       -4.379000
H         3.106000        6.739000       -5.025000
C         5.171000        7.164000       -4.762000
H         5.765000        6.615000       -4.022000
C         5.340000        6.558000       -6.153000
H         4.955000        5.533000       -6.175000
H         4.787000        7.161000       -6.882000
C         6.831000        6.596000       -6.487000
O         7.510000        5.552000       -6.300000
O         7.260000        7.726000       -6.837000
H         5.538000        8.195000       -4.778000
H        -2.905000       12.244000       -1.099000
C        -3.814000       11.631000       -1.106000
H        -4.049000       11.396000       -2.152000
C        -3.626000       10.343000       -0.297000
H        -3.373000       10.626000        0.737000
C        -4.929000        9.544000       -0.263000
H        -5.226000        9.255000       -1.279000
H        -4.833000        8.629000        0.331000
H        -5.754000       10.128000        0.161000
C        -2.455000        9.512000       -0.848000
H        -2.713000        9.145000       -1.851000
H        -1.590000       10.176000       -0.978000
C        -2.040000        8.335000        0.036000
H        -2.798000        7.545000        0.071000
H        -1.116000        7.881000       -0.336000
H        -1.860000        8.660000        1.067000
H        -4.636000       12.236000       -0.705000
H       -10.657000       10.581000       -1.511000
C       -10.796000       10.659000       -0.428000
H       -11.524000        9.897000       -0.131000
C        -9.468000       10.458000        0.312000
H        -8.769000       11.253000        0.021000
H        -9.632000       10.569000        1.390000
C        -8.840000        9.111000        0.036000
C        -8.275000        8.837000       -1.212000
H        -8.278000        9.605000       -1.982000
C        -7.691000        7.608000       -1.492000
H        -7.247000        7.412000       -2.464000
C        -7.655000        6.630000       -0.501000
O        -7.050000        5.416000       -0.695000
H        -6.531000        5.432000       -1.516000
C        -8.235000        6.864000        0.742000
H        -8.231000        6.080000        1.495000
C        -8.820000        8.100000        0.998000
H        -9.267000        8.276000        1.973000
H       -11.222000       11.645000       -0.210000
H       -11.150000        2.458000        4.349000
C       -10.135000        2.289000        3.964000
H       -10.234000        2.121000        2.884000
C        -9.264000        3.517000        4.254000
H        -9.200000        3.617000        5.344000
C        -7.841000        3.360000        3.710000
H        -7.844000        3.209000        2.623000
H        -7.238000        4.250000        3.934000
H        -7.340000        2.498000        4.159000
C        -9.924000        4.774000        3.679000
H       -10.929000        4.928000        4.088000
H        -9.328000        5.669000        3.902000
H       -10.020000        4.696000        2.587000
C        -9.622000        1.014000        4.641000
O        -9.053000        1.038000        5.729000
N        -9.897000       -0.135000        3.975000
H       -10.267000       -0.090000        3.028000
C        -9.626000       -1.451000        4.532000
H        -9.532000       -1.329000        5.614000
C       -10.750000       -2.434000        4.185000
H       -10.808000       -2.522000        3.095000
H       -10.450000       -3.419000        4.568000
C       -12.137000       -2.070000        4.713000
H       -12.168000       -2.137000        5.806000
H       -12.372000       -1.040000        4.417000
C       -13.197000       -3.022000        4.097000
O       -13.326000       -2.900000        2.840000
O       -13.775000       -3.821000        4.852000
C        -8.321000       -1.968000        3.937000
O        -8.252000       -2.320000        2.757000
N        -7.263000       -2.000000        4.773000
H        -7.346000       -1.515000        5.657000
C        -5.923000       -2.182000        4.246000
H        -6.024000       -2.842000        3.387000
C        -5.383000       -0.821000        3.780000
H        -6.026000       -0.460000        2.968000
H        -5.480000       -0.096000        4.595000
C        -3.931000       -0.814000        3.296000
O        -3.334000       -1.911000        3.200000
O        -3.442000        0.323000        3.027000
C        -5.034000       -2.801000        5.322000
O        -4.619000       -2.113000        6.255000
N        -4.757000       -4.117000        5.219000
C        -3.942000       -4.772000        6.239000
H        -4.333000       -4.546000        7.234000
H        -2.914000       -4.394000        6.184000
C        -4.024000       -6.259000        5.882000
H        -4.860000       -6.719000        6.414000
H        -3.101000       -6.791000        6.131000
C        -4.310000       -6.256000        4.377000
H        -4.787000       -7.177000        4.028000
H        -3.388000       -6.107000        3.807000
C        -5.227000       -5.033000        4.184000
H        -5.081000       -4.609000        3.188000
C        -6.686000       -5.449000        4.408000
O        -7.115000       -5.706000        5.527000
N        -7.386000       -5.580000        3.264000
H        -6.936000       -5.331000        2.389000
C        -8.710000       -6.154000        3.219000
H        -9.165000       -6.015000        4.203000
C        -9.587000       -5.524000        2.137000
H        -9.660000       -4.447000        2.323000
H        -9.110000       -5.655000        1.155000
C       -10.949000       -6.175000        2.142000
C       -11.889000       -5.849000        3.121000
H       -11.678000       -5.082000        3.857000
C       -13.126000       -6.481000        3.168000
H       -13.842000       -6.137000        3.909000
C       -13.436000       -7.466000        2.232000
H       -14.405000       -7.959000        2.259000
C       -12.508000       -7.802000        1.248000
H       -12.745000       -8.542000        0.490000
C       -11.273000       -7.160000        1.209000
H       -10.550000       -7.426000        0.444000
H        -8.650000       -7.239000        3.047000
H        -3.098000        6.882000        8.883000
C        -2.850000        5.917000        8.422000
H        -2.479000        5.266000        9.220000
C        -4.113000        5.307000        7.790000
H        -4.895000        5.304000        8.559000
H        -4.492000        5.945000        6.982000
C        -3.916000        3.900000        7.273000
C        -3.738000        2.845000        8.176000
H        -3.722000        3.050000        9.245000
C        -3.612000        1.536000        7.720000
H        -3.512000        0.718000        8.428000
C        -3.659000        1.263000        6.352000
H        -3.620000        0.231000        6.010000
C        -3.820000        2.308000        5.445000
H        -3.871000        2.077000        4.385000
C        -3.941000        3.618000        5.907000
H        -4.079000        4.427000        5.191000
C        -1.700000        6.147000        7.468000
O        -0.565000        5.696000        7.687000
N        -1.950000        6.912000        6.398000
H        -2.902000        7.182000        6.199000
C        -0.933000        7.205000        5.406000
H        -0.403000        6.277000        5.166000
C        -1.557000        7.813000        4.151000
H        -2.016000        8.778000        4.403000
H        -0.737000        8.039000        3.458000
C        -2.575000        6.931000        3.455000
C        -3.820000        7.435000        3.082000
H        -4.089000        8.457000        3.341000
C        -4.722000        6.674000        2.335000
H        -5.679000        7.092000        2.032000
C        -4.366000        5.385000        1.956000
O        -5.129000        4.609000        1.134000
H        -5.967000        5.027000        0.872000
C        -3.151000        4.837000        2.375000
H        -2.918000        3.809000        2.115000
C        -2.265000        5.608000        3.111000
H        -1.322000        5.158000        3.415000
H        -0.197000        7.898000        5.832000
H         1.739000        6.824000        9.087000
C         2.430000        6.046000        9.438000
H         3.191000        6.520000       10.060000
C         1.625000        4.991000       10.224000
H         1.243000        4.230000        9.537000
H         2.287000        4.472000       10.927000
C         0.453000        5.635000       10.975000
H         0.811000        6.420000       11.647000
H        -0.212000        6.094000       10.232000
C        -0.356000        4.670000       11.832000
O        -0.444000        4.799000       13.045000
N        -1.007000        3.685000       11.152000
H        -1.449000        2.981000       11.724000
H        -0.791000        3.434000       10.183000
C         3.129000        5.458000        8.213000
O         4.350000        5.371000        8.122000
N         2.303000        5.027000        7.210000
H         1.301000        5.132000        7.333000
C         2.763000        4.061000        6.223000
H         3.182000        3.177000        6.712000
H         1.902000        3.752000        5.618000
C         3.828000        4.574000        5.265000
O         4.620000        3.807000        4.728000
N         3.774000        5.906000        5.029000
H         3.041000        6.415000        5.504000
C         4.619000        6.609000        4.093000
H         5.322000        5.868000        3.700000
C         3.804000        7.220000        2.934000
H         3.213000        8.056000        3.338000
H         4.512000        7.658000        2.223000
C         2.861000        6.253000        2.206000
H         2.168000        5.828000        2.946000
C         2.036000        7.024000        1.169000
H         2.679000        7.409000        0.367000
H         1.277000        6.375000        0.715000
H         1.514000        7.876000        1.622000
C         3.617000        5.101000        1.538000
H         4.105000        4.454000        2.274000
H         2.932000        4.477000        0.952000
H         4.377000        5.493000        0.851000
C         5.436000        7.725000        4.751000
O         6.089000        8.506000        4.070000
N         5.327000        7.838000        6.098000
H         5.003000        7.041000        6.636000
C         6.011000        8.917000        6.777000
H         5.785000        9.861000        6.276000
H         5.663000        8.958000        7.811000
H         7.100000        8.784000        6.770000
H         9.098000        4.627000        0.592000
C         8.472000        3.901000        0.062000
H         8.946000        2.916000        0.124000
C         7.076000        3.847000        0.731000
H         6.606000        4.828000        0.591000
C         6.182000        2.778000        0.093000
H         6.640000        1.784000        0.179000
H         5.211000        2.749000        0.600000
H         6.004000        2.962000       -0.971000
C         7.231000        3.606000        2.233000
H         7.873000        4.367000        2.694000
H         6.260000        3.640000        2.739000
H         7.675000        2.624000        2.434000
C         8.381000        4.361000       -1.366000
O         8.251000        5.575000       -1.623000
N         8.438000        3.422000       -2.316000
H         8.506000        2.448000       -2.015000
C         8.161000        3.676000       -3.717000
H         7.917000        4.732000       -3.831000
C         9.354000        3.328000       -4.631000
H         9.353000        2.251000       -4.840000
H         9.184000        3.843000       -5.583000
C        10.721000        3.688000       -4.046000
H        10.918000        3.071000       -3.162000
H        11.489000        3.422000       -4.784000
C        10.911000        5.151000       -3.632000
H        10.263000        5.409000       -2.796000
H        11.941000        5.294000       -3.283000
N        10.656000        6.077000       -4.724000
H        11.061000        5.822000       -5.612000
C         9.713000        7.043000       -4.790000
N         8.857000        7.247000       -3.806000
H         8.694000        6.568000       -3.060000
H         8.209000        8.039000       -3.766000
N         9.704000        7.856000       -5.865000
H        10.408000        7.642000       -6.557000
H         8.741000        7.956000       -6.299000
C         6.938000        2.839000       -4.111000
O         6.630000        1.829000       -3.459000
N         6.275000        3.265000       -5.182000
H         6.626000        4.113000       -5.662000
C         5.067000        2.590000       -5.632000
H         5.177000        1.514000       -5.492000
C         3.826000        3.092000       -4.893000
H         3.621000        4.145000       -5.114000
H         2.948000        2.499000       -5.173000
H         3.968000        3.008000       -3.813000
H         4.970000        2.771000       -6.707000
H        -6.509000       -1.776000       -9.764000
C        -5.456000       -1.836000      -10.062000
H        -5.420000       -2.141000      -11.112000
C        -4.745000       -0.500000       -9.852000
H        -3.700000       -0.582000      -10.174000
H        -5.210000        0.268000      -10.481000
C        -4.784000       -0.039000       -8.396000
H        -5.823000        0.051000       -8.052000
H        -4.273000       -0.769000       -7.753000
S        -3.953000        1.569000       -8.221000
C        -4.223000        1.842000       -6.451000
H        -3.747000        1.060000       -5.856000
H        -3.766000        2.792000       -6.178000
H        -5.290000        1.910000       -6.222000
H        -4.986000       -2.631000       -9.469000
H        -0.168000       -2.878000       -8.151000
C         0.766000       -2.314000       -8.233000
H         1.068000       -2.341000       -9.289000
C         0.528000       -0.852000       -7.815000
H         1.456000       -0.268000       -7.834000
H        -0.120000       -0.398000       -8.575000
C        -0.141000       -0.728000       -6.466000
C         0.537000       -0.261000       -5.339000
H         1.580000        0.039000       -5.424000
C        -0.114000       -0.186000       -4.107000
H         0.413000        0.185000       -3.232000
C        -1.437000       -0.596000       -3.990000
H        -1.946000       -0.563000       -3.036000
C        -2.112000       -1.079000       -5.107000
H        -3.128000       -1.446000       -4.997000
C        -1.471000       -1.132000       -6.335000
H        -1.993000       -1.532000       -7.201000
C         1.794000       -3.117000       -7.464000
O         1.662000       -4.297000       -7.182000
N         2.931000       -2.427000       -7.193000
H         2.965000       -1.424000       -7.316000
C         3.941000       -2.923000       -6.300000
H         3.527000       -3.756000       -5.722000
C         5.180000       -3.375000       -7.105000
H         4.800000       -4.071000       -7.862000
H         5.551000       -2.487000       -7.635000
C         6.320000       -4.018000       -6.305000
H         6.452000       -3.515000       -5.340000
H         6.081000       -5.066000       -6.085000
C         7.667000       -3.923000       -7.017000
H         7.962000       -2.867000       -7.110000
H         8.439000       -4.421000       -6.427000
N         7.628000       -4.555000       -8.330000
H         6.768000       -4.409000       -8.840000
C         8.742000       -4.560000       -9.128000
N         9.895000       -4.170000       -8.704000
H        10.500000       -3.605000       -7.149000
H        10.619000       -4.319000       -9.401000
N         8.471000       -5.003000      -10.422000
H         7.784000       -5.743000      -10.477000
H         9.290000       -5.207000      -10.977000
C         4.303000       -1.729000       -5.428000
O         4.275000       -0.593000       -5.897000
N         4.665000       -2.004000       -4.166000
H         4.751000       -2.969000       -3.881000
C         5.353000       -1.034000       -3.351000
H         5.512000       -0.139000       -3.954000
C         4.535000       -0.628000       -2.100000
H         5.194000       -0.004000       -1.484000
C         3.327000        0.200000       -2.528000
H         2.662000       -0.394000       -3.164000
H         2.758000        0.521000       -1.649000
H         3.637000        1.087000       -3.083000
C         4.093000       -1.840000       -1.280000
H         4.939000       -2.480000       -1.022000
H         3.627000       -1.521000       -0.343000
H         3.358000       -2.443000       -1.829000
C         6.704000       -1.632000       -2.987000
O         6.861000       -2.865000       -2.930000
N         7.673000       -0.746000       -2.760000
H         7.458000        0.249000       -2.862000
C         9.003000       -1.131000       -2.339000
H         8.942000       -2.176000       -2.029000
C        10.020000       -1.043000       -3.492000
H         9.758000       -0.216000       -4.159000
H        11.022000       -0.845000       -3.097000
C        10.010000       -2.369000       -4.250000
H        10.624000       -3.110000       -3.730000
H         8.993000       -2.787000       -4.241000
C        10.372000       -2.317000       -5.714000
O        10.304000       -1.328000       -6.412000
O        10.673000       -3.537000       -6.164000
C         9.369000       -0.319000       -1.102000
O         9.145000        0.894000       -1.028000
N         9.909000       -1.041000       -0.109000
H        10.241000       -1.989000       -0.284000
C        10.161000       -0.507000        1.215000
H        10.740000        0.422000        1.108000
C         8.883000       -0.147000        1.981000
H         9.160000        0.346000        2.917000
H         8.349000        0.608000        1.397000
C         7.936000       -1.300000        2.312000
H         8.477000       -2.207000        2.605000
H         7.331000       -1.003000        3.172000
S         6.759000       -1.726000        0.977000
C         7.431000       -3.292000        0.360000
H         7.160000       -4.130000        1.006000
H         7.015000       -3.452000       -0.636000
H         8.517000       -3.246000        0.270000
C        11.083000       -1.503000        1.928000
O        11.600000       -2.439000        1.320000
N        11.331000       -1.226000        3.221000
H        10.819000       -0.503000        3.743000
C        12.338000       -1.953000        3.958000
H        12.916000       -2.522000        3.223000
C        13.279000       -0.979000        4.701000
H        12.651000       -0.378000        5.371000
C        14.308000       -1.738000        5.543000
H        14.906000       -2.413000        4.917000
H        14.994000       -1.034000        6.026000
H        13.834000       -2.333000        6.329000
C        13.969000       -0.045000        3.706000
H        13.240000        0.522000        3.119000
H        14.607000        0.671000        4.234000
H        14.599000       -0.613000        3.009000
C        11.694000       -2.905000        4.964000
O        10.955000       -2.501000        5.860000
N        12.080000       -4.197000        4.851000
H        12.469000       -4.488000        3.968000
C        11.646000       -5.208000        5.792000
H        11.733000       -4.773000        6.792000
C        10.204000       -5.703000        5.581000
H         9.581000       -4.832000        5.348000
H        10.167000       -6.364000        4.711000
C         9.663000       -6.402000        6.787000
C         9.354000       -7.724000        6.927000
H         9.425000       -8.526000        6.204000
N         8.888000       -7.970000        8.203000
H         8.530000       -8.850000        8.530000
C         8.871000       -6.789000        8.910000
C         8.469000       -6.518000       10.221000
H         8.090000       -7.301000       10.871000
C         8.565000       -5.207000       10.656000
H         8.256000       -4.960000       11.668000
C         9.047000       -4.186000        9.814000
H         9.100000       -3.169000       10.190000
C         9.445000       -4.458000        8.516000
H         9.810000       -3.670000        7.862000
C         9.359000       -5.780000        8.052000
H        12.348000       -6.046000        5.741000
H        12.234000       -4.893000        0.342000
C        11.605000       -5.724000        0.012000
H        12.242000       -6.454000       -0.504000
C        10.946000       -6.401000        1.211000
H        10.334000       -7.252000        0.902000
H        11.718000       -6.785000        1.884000
S         9.882000       -5.204000        2.093000
H         9.025000       -6.105000        2.599000
C        10.620000       -5.130000       -0.992000
O        10.665000       -3.948000       -1.330000
N         9.730000       -6.002000       -1.513000
H         9.604000       -6.924000       -1.113000
C         8.655000       -5.579000       -2.378000
H         8.539000       -4.498000       -2.268000
C         8.933000       -5.897000       -3.852000
H         9.066000       -6.974000       -3.993000
H         8.089000       -5.570000       -4.469000
H         9.832000       -5.378000       -4.196000
C         7.378000       -6.281000       -1.920000
O         7.428000       -7.340000       -1.295000
N         6.243000       -5.672000       -2.312000
H         6.333000       -4.712000       -2.638000
C         4.933000       -6.087000       -1.836000
H         4.924000       -7.178000       -1.777000
C         4.610000       -5.445000       -0.481000
H         5.196000       -5.944000        0.301000
H         4.961000       -4.410000       -0.505000
C         3.129000       -5.429000       -0.102000
H         2.606000       -4.838000       -0.865000
C         2.509000       -6.825000       -0.082000
H         3.030000       -7.471000        0.634000
H         1.461000       -6.758000        0.225000
H         2.542000       -7.308000       -1.066000
C         2.931000       -4.726000        1.241000
H         3.386000       -3.729000        1.234000
H         1.866000       -4.617000        1.473000
H         3.390000       -5.300000        2.056000
H         4.191000       -5.786000       -2.586000
H        -0.098000       -5.570000       -4.493000
C        -1.017000       -5.249000       -3.993000
H        -1.394000       -6.066000       -3.367000
C        -0.731000       -4.001000       -3.131000
H        -0.428000       -3.201000       -3.818000
C        -1.980000       -3.547000       -2.372000
H        -2.390000       -4.377000       -1.784000
H        -1.740000       -2.728000       -1.685000
H        -2.769000       -3.188000       -3.040000
C         0.425000       -4.264000       -2.167000
H         1.315000       -4.609000       -2.709000
H         0.691000       -3.349000       -1.622000
H         0.163000       -5.024000       -1.420000
C        -2.011000       -4.887000       -5.083000
O        -1.680000       -4.252000       -6.079000
N        -3.307000       -5.255000       -4.860000
H        -3.559000       -5.762000       -4.013000
C        -4.364000       -4.764000       -5.721000
H        -3.862000       -4.143000       -6.470000
C        -5.128000       -5.900000       -6.435000
H        -5.522000       -6.563000       -5.652000
C        -6.313000       -5.338000       -7.226000
H        -5.971000       -4.615000       -7.980000
H        -6.851000       -6.134000       -7.749000
H        -7.035000       -4.839000       -6.572000
C        -4.163000       -6.703000       -7.316000
H        -3.815000       -6.064000       -8.140000
H        -3.276000       -6.948000       -6.723000
C        -4.760000       -7.994000       -7.874000
H        -5.591000       -7.803000       -8.561000
H        -4.004000       -8.564000       -8.423000
H        -5.137000       -8.631000       -7.065000
C        -5.321000       -3.934000       -4.885000
O        -5.911000       -4.435000       -3.929000
N        -5.511000       -2.659000       -5.275000
H        -5.064000       -2.347000       -6.124000
C        -6.536000       -1.837000       -4.670000
H        -6.823000       -2.306000       -3.728000
C        -6.142000       -0.399000       -4.424000
H        -5.860000        0.109000       -5.350000
H        -7.021000        0.137000       -4.048000
C        -5.030000       -0.198000       -3.420000
O        -4.504000       -1.077000       -2.768000
O        -4.698000        1.085000       -3.351000
H        -3.884000        1.217000       -2.789000
H        -7.429000       -1.847000       -5.310000
H       -11.675000        0.737000       -4.727000
C       -11.821000        1.712000       -5.205000
H       -12.267000        2.384000       -4.464000
C       -10.499000        2.275000       -5.734000
H       -10.091000        1.601000       -6.498000
H       -10.682000        3.236000       -6.230000
C        -9.452000        2.479000       -4.637000
H        -9.846000        3.136000       -3.851000
H        -9.191000        1.520000       -4.171000
S        -7.960000        3.252000       -5.350000
C        -6.996000        3.600000       -3.852000
H        -6.551000        2.698000       -3.427000
H        -6.184000        4.273000       -4.143000
H        -7.627000        4.097000       -3.107000
H       -12.541000        1.580000       -6.019000
H       -11.579000        2.194000       -0.525000
C       -10.641000        1.703000       -0.804000
H       -10.674000        1.509000       -1.884000
C        -9.465000        2.639000       -0.480000
H        -9.597000        3.558000       -1.066000
H        -9.515000        2.930000        0.575000
C        -8.066000        2.081000       -0.786000
H        -8.079000        1.484000       -1.708000
H        -7.387000        2.922000       -0.946000
S        -7.352000        1.096000        0.580000
C        -5.587000        1.338000        0.221000
H        -5.351000        2.402000        0.141000
H        -5.016000        0.932000        1.063000
H        -5.288000        0.827000       -0.697000
C       -10.552000        0.404000       -0.018000
O       -10.724000        0.398000        1.197000
N       -10.257000       -0.691000       -0.751000
H        -9.974000       -0.564000       -1.714000
C        -9.794000       -1.951000       -0.189000
H        -9.722000       -1.833000        0.896000
C       -10.716000       -3.115000       -0.552000
H       -10.709000       -3.240000       -1.640000
H       -10.296000       -4.032000       -0.125000
C       -12.146000       -2.916000       -0.062000
H       -12.188000       -2.643000        0.998000
H       -12.615000       -2.098000       -0.624000
C       -12.956000       -4.178000       -0.297000
O       -12.831000       -4.820000       -1.358000
N       -13.793000       -4.508000        0.684000
H       -14.230000       -5.418000        0.633000
H       -13.751000       -4.014000        1.603000
C        -8.420000       -2.203000       -0.801000
O        -8.209000       -1.903000       -1.979000
N        -7.538000       -2.822000        0.002000
H        -7.717000       -2.830000        1.007000
C        -6.208000       -3.149000       -0.463000
H        -6.182000       -2.943000       -1.534000
C        -5.132000       -2.321000        0.235000
H        -5.109000       -2.525000        1.309000
H        -4.145000       -2.546000       -0.184000
H        -5.330000       -1.261000        0.077000
C        -5.961000       -4.630000       -0.207000
O        -5.856000       -5.089000        0.935000
N        -5.856000       -5.398000       -1.297000
H        -5.876000       -4.979000       -2.224000
C        -5.754000       -6.838000       -1.207000
H        -6.203000       -7.143000       -0.259000
C        -6.509000       -7.489000       -2.386000
H        -6.148000       -7.013000       -3.305000
H        -6.202000       -8.540000       -2.439000
C        -8.015000       -7.417000       -2.288000
C        -8.722000       -6.217000       -2.434000
H        -8.190000       -5.292000       -2.642000
C       -10.108000       -6.179000       -2.336000
H       -10.650000       -5.246000       -2.434000
C       -10.837000       -7.350000       -2.094000
O       -12.176000       -7.363000       -1.970000
H       -12.502000       -6.455000       -1.745000
C       -10.144000       -8.559000       -1.977000
H       -10.708000       -9.468000       -1.788000
C        -8.758000       -8.579000       -2.065000
H        -8.237000       -9.529000       -1.954000
C        -4.288000       -7.256000       -1.269000
O        -3.619000       -7.140000       -2.297000
N        -3.818000       -7.809000       -0.130000
H        -4.332000       -7.604000        0.715000
C        -2.447000       -8.262000       -0.000000
H        -2.241000       -8.955000       -0.822000
C        -1.418000       -7.119000       -0.029000
H        -0.426000       -7.573000        0.080000
H        -1.450000       -6.677000       -1.030000
C        -1.614000       -6.057000        1.013000
C        -2.523000       -5.026000        0.971000
H        -3.257000       -4.798000        0.213000
N        -2.414000       -4.236000        2.080000
H        -2.937000       -3.385000        2.309000
C        -1.422000       -4.736000        2.878000
C        -0.953000       -4.262000        4.107000
H        -1.385000       -3.366000        4.544000
C         0.066000       -4.975000        4.713000
H         0.461000       -4.637000        5.667000
C         0.611000       -6.128000        4.110000
H         1.413000       -6.661000        4.613000
C         0.141000       -6.590000        2.892000
H         0.571000       -7.481000        2.440000
C        -0.894000       -5.891000        2.248000
H        -2.377000       -8.815000        0.941000
H         5.092000      -10.121000       -0.427000
C         5.935000       -9.998000        0.262000
H         6.834000       -9.860000       -0.345000
C         5.705000       -8.797000        1.175000
H         5.740000       -7.896000        0.555000
H         4.699000       -8.849000        1.613000
C         6.721000       -8.640000        2.316000
H         6.597000       -9.489000        3.006000
C         8.159000       -8.655000        1.793000
H         8.268000       -7.901000        1.003000
H         8.873000       -8.441000        2.600000
H         8.427000       -9.625000        1.363000
C         6.446000       -7.348000        3.092000
H         5.416000       -7.316000        3.464000
H         7.117000       -7.242000        3.954000
H         6.586000       -6.474000        2.441000
H         6.037000      -10.929000        0.835000
O        -1.118000        1.268000        3.962000
H        -1.289000        1.073000        4.891000
H        -1.921000        0.891000        3.503000
O         0.281000        3.654000        3.937000
H         0.723000        3.625000        3.080000
H        -0.297000        2.855000        3.937000
O        -0.509000        2.990000        8.375000
H        -0.594000        3.901000        8.040000
H        -1.294000        2.534000        8.036000
O         6.841000        7.362000       -0.025000
H         7.410000        6.687000       -0.444000
H         7.264000        7.594000        0.809000
O         7.524000        1.218000        4.729000
H         6.734000        0.642000        4.782000
H         7.178000        2.119000        4.738000
O         6.880000        8.765000       -2.504000
H         7.002000        8.456000       -1.587000
H         5.917000        8.650000       -2.612000
O        10.112000        0.278000        5.233000
H         9.192000        0.614000        5.189000
H        10.083000       -0.580000        5.685000
$end

$rem
JOBTYPE  SP
METHOD  WB97X-V
BASIS  6-31G(D)
SYMMETRY  FALSE
SYM_IGNORE  TRUE
MEM_TOTAL  10000
MEM_STATIC  2000
BASIS_LIN_DEP_THRESH  6
THRESH  14
SCF_CONVERGENCE  8
FD_MAT_VEC_PROD  FALSE
XC_GRID  000075000302
NL_GRID  1
MAX_SCF_CYCLES  200
ENV_METHOD  WB97X-V
GEN_SCFMAN_EMBED  TRUE
SPADE_PARTITION  TRUE
EMBEDDING_EARLY_STOP  TRUE
$end

--------------------------------------------------------------
 ----------------------------------------------------------------
             Standard Nuclear Orientation (Angstroms)
    I     Atom           X                Y                Z
 ----------------------------------------------------------------
    1      C      -1.7610000000     1.6760000000    -1.2610000000
    2      O      -2.5050000000     1.8920000000    -2.2210000000
    3      C      -1.7280000000     0.3930000000    -0.5880000000
    4      C      -0.8440000000     0.0990000000     0.3920000000
    5      C       0.1970000000     1.1020000000     0.8600000000
    6      C       0.4330000000     2.2040000000    -0.1800000000
    7      C      -0.8680000000     2.7670000000    -0.7370000000
    8      C      -0.9470000000    -1.2120000000     1.1130000000
    9      C       0.3890000000    -1.7860000000     1.5800000000
   10      C       1.2060000000    -0.7150000000     2.3000000000
   11      C       1.5140000000     0.4230000000     1.3040000000
   12      C       2.4970000000    -1.2590000000     2.8880000000
   13      C       3.3700000000    -0.1770000000     3.5520000000
   14      C       3.7770000000     0.8350000000     2.4800000000
   15      C       2.5330000000     1.4550000000     1.8260000000
   16      C       2.4070000000    -2.3740000000     3.9380000000
   17      C       3.7890000000    -2.3350000000     4.6340000000
   18      C       4.5020000000    -1.0720000000     4.0910000000
   19      C       2.6800000000     0.5440000000     4.7240000000
   20      O       5.3760000000    -0.4700000000     5.0450000000
   21      H      -2.4820000000    -0.3320000000    -0.8900000000
   22      H      -0.2330000000     1.5600000000     1.7660000000
   23      H       1.0330000000     1.7950000000    -1.0050000000
   24      H       1.0210000000     3.0200000000     0.2540000000
   25      H      -1.4350000000     3.2840000000     0.0500000000
   26      H      -0.7000000000     3.5000000000    -1.5290000000
   27      H      -1.4900000000    -1.9350000000     0.4950000000
   28      H      -1.5900000000    -1.0470000000     1.9910000000
   29      H       0.9670000000    -2.1740000000     0.7270000000
   30      H       0.1930000000    -2.6350000000     2.2410000000
   31      H       0.5830000000    -0.3090000000     3.1100000000
   32      H       1.9620000000    -0.0510000000     0.4140000000
   33      H       3.0970000000    -1.6520000000     2.0480000000
   34      H       4.3760000000     0.3240000000     1.7120000000
   35      H       4.4030000000     1.6300000000     2.9050000000
   36      H       2.0420000000     2.1160000000     2.5530000000
   37      H       2.8600000000     2.0970000000     1.0000000000
   38      H       2.1840000000    -3.3490000000     3.5000000000
   39      H       1.5980000000    -2.1610000000     4.6460000000
   40      H       4.3830000000    -3.2310000000     4.4310000000
   41      H       3.6910000000    -2.2650000000     5.7250000000
   42      H       5.1530000000    -1.3480000000     3.2580000000
   43      H       2.4610000000    -0.1310000000     5.5600000000
   44      H       3.3270000000     1.3540000000     5.0840000000
   45      H       1.7300000000     1.0020000000     4.4370000000
   46      H       4.8440000000    -0.1840000000     5.7980000000
   47      H      -3.4400000000     8.3970000000    -7.6390000000
   48      C      -3.2590000000     8.1050000000    -6.5970000000
   49      H      -3.2410000000     9.0130000000    -5.9900000000
   50      C      -4.4020000000     7.1740000000    -6.1250000000
   51      H      -5.3290000000     7.7600000000    -6.1210000000
   52      H      -4.5540000000     6.3820000000    -6.8700000000
   53      C      -4.1990000000     6.5200000000    -4.7730000000
   54      C      -4.6300000000     7.0910000000    -3.5760000000
   55      H      -5.1120000000     8.0680000000    -3.5860000000
   56      C      -4.4480000000     6.4440000000    -2.3480000000
   57      H      -4.7470000000     6.9380000000    -1.4260000000
   58      C      -3.8220000000     5.1940000000    -2.3010000000
   59      O      -3.5880000000     4.5070000000    -1.1640000000
   60      H      -4.1730000000     4.7590000000    -0.4280000000
   61      C      -3.3790000000     4.6120000000    -3.4940000000
   62      H      -2.9030000000     3.6400000000    -3.4390000000
   63      C      -3.5650000000     5.2740000000    -4.6930000000
   64      H      -3.2050000000     4.8110000000    -5.6070000000
   65      C      -1.8650000000     7.5020000000    -6.4640000000
   66      O      -1.0100000000     8.0130000000    -5.7530000000
   67      N      -1.6190000000     6.3630000000    -7.1690000000
   68      H      -2.3020000000     6.0200000000    -7.8280000000
   69      C      -0.2930000000     5.7720000000    -7.1470000000
   70      H       0.0400000000     5.7640000000    -6.1040000000
   71      C      -0.2080000000     4.3630000000    -7.7340000000
   72      H      -0.5790000000     4.4000000000    -8.7700000000
   73      C       1.2650000000     3.9440000000    -7.7860000000
   74      H       1.7260000000     3.9930000000    -6.7930000000
   75      H       1.3630000000     2.9130000000    -8.1440000000
   76      H       1.8430000000     4.5930000000    -8.4530000000
   77      C      -1.0690000000     3.3390000000    -6.9810000000
   78      H      -2.1170000000     3.6450000000    -7.0760000000
   79      H      -1.0010000000     2.3730000000    -7.4960000000
   80      C      -0.7320000000     3.1450000000    -5.5040000000
   81      H      -0.8590000000     4.0710000000    -4.9350000000
   82      H      -1.3810000000     2.3850000000    -5.0560000000
   83      H       0.2970000000     2.7970000000    -5.3660000000
   84      H       0.4060000000     6.4300000000    -7.6840000000
   85      H       1.2980000000     8.1990000000    -3.6450000000
   86      C       1.8290000000     7.5130000000    -2.9720000000
   87      H       1.6460000000     7.8510000000    -1.9470000000
   88      C       1.2580000000     6.0940000000    -3.1640000000
   89      H       1.3830000000     5.8040000000    -4.2190000000
   90      C       1.9860000000     5.0570000000    -2.3050000000
   91      H       1.8520000000     5.2770000000    -1.2390000000
   92      H       1.5910000000     4.0520000000    -2.4950000000
   93      H       3.0620000000     5.0400000000    -2.5090000000
   94      C      -0.2440000000     6.0960000000    -2.8750000000
   95      H      -0.7760000000     6.8090000000    -3.5140000000
   96      H      -0.6760000000     5.1060000000    -3.0480000000
   97      H      -0.4370000000     6.3530000000    -1.8270000000
   98      C       3.3200000000     7.6500000000    -3.2140000000
   99      O       4.0690000000     8.2000000000    -2.4080000000
  100      N       3.7710000000     7.1370000000    -4.3790000000
  101      H       3.1060000000     6.7390000000    -5.0250000000
  102      C       5.1710000000     7.1640000000    -4.7620000000
  103      H       5.7650000000     6.6150000000    -4.0220000000
  104      C       5.3400000000     6.5580000000    -6.1530000000
  105      H       4.9550000000     5.5330000000    -6.1750000000
  106      H       4.7870000000     7.1610000000    -6.8820000000
  107      C       6.8310000000     6.5960000000    -6.4870000000
  108      O       7.5100000000     5.5520000000    -6.3000000000
  109      O       7.2600000000     7.7260000000    -6.8370000000
  110      H       5.5380000000     8.1950000000    -4.7780000000
  111      H      -2.9050000000    12.2440000000    -1.0990000000
  112      C      -3.8140000000    11.6310000000    -1.1060000000
  113      H      -4.0490000000    11.3960000000    -2.1520000000
  114      C      -3.6260000000    10.3430000000    -0.2970000000
  115      H      -3.3730000000    10.6260000000     0.7370000000
  116      C      -4.9290000000     9.5440000000    -0.2630000000
  117      H      -5.2260000000     9.2550000000    -1.2790000000
  118      H      -4.8330000000     8.6290000000     0.3310000000
  119      H      -5.7540000000    10.1280000000     0.1610000000
  120      C      -2.4550000000     9.5120000000    -0.8480000000
  121      H      -2.7130000000     9.1450000000    -1.8510000000
  122      H      -1.5900000000    10.1760000000    -0.9780000000
  123      C      -2.0400000000     8.3350000000     0.0360000000
  124      H      -2.7980000000     7.5450000000     0.0710000000
  125      H      -1.1160000000     7.8810000000    -0.3360000000
  126      H      -1.8600000000     8.6600000000     1.0670000000
  127      H      -4.6360000000    12.2360000000    -0.7050000000
  128      H     -10.6570000000    10.5810000000    -1.5110000000
  129      C     -10.7960000000    10.6590000000    -0.4280000000
  130      H     -11.5240000000     9.8970000000    -0.1310000000
  131      C      -9.4680000000    10.4580000000     0.3120000000
  132      H      -8.7690000000    11.2530000000     0.0210000000
  133      H      -9.6320000000    10.5690000000     1.3900000000
  134      C      -8.8400000000     9.1110000000     0.0360000000
  135      C      -8.2750000000     8.8370000000    -1.2120000000
  136      H      -8.2780000000     9.6050000000    -1.9820000000
  137      C      -7.6910000000     7.6080000000    -1.4920000000
  138      H      -7.2470000000     7.4120000000    -2.4640000000
  139      C      -7.6550000000     6.6300000000    -0.5010000000
  140      O      -7.0500000000     5.4160000000    -0.6950000000
  141      H      -6.5310000000     5.4320000000    -1.5160000000
  142      C      -8.2350000000     6.8640000000     0.7420000000
  143      H      -8.2310000000     6.0800000000     1.4950000000
  144      C      -8.8200000000     8.1000000000     0.9980000000
  145      H      -9.2670000000     8.2760000000     1.9730000000
  146      H     -11.2220000000    11.6450000000    -0.2100000000
  147      H     -11.1500000000     2.4580000000     4.3490000000
  148      C     -10.1350000000     2.2890000000     3.9640000000
  149      H     -10.2340000000     2.1210000000     2.8840000000
  150      C      -9.2640000000     3.5170000000     4.2540000000
  151      H      -9.2000000000     3.6170000000     5.3440000000
  152      C      -7.8410000000     3.3600000000     3.7100000000
  153      H      -7.8440000000     3.2090000000     2.6230000000
  154      H      -7.2380000000     4.2500000000     3.9340000000
  155      H      -7.3400000000     2.4980000000     4.1590000000
  156      C      -9.9240000000     4.7740000000     3.6790000000
  157      H     -10.9290000000     4.9280000000     4.0880000000
  158      H      -9.3280000000     5.6690000000     3.9020000000
  159      H     -10.0200000000     4.6960000000     2.5870000000
  160      C      -9.6220000000     1.0140000000     4.6410000000
  161      O      -9.0530000000     1.0380000000     5.7290000000
  162      N      -9.8970000000    -0.1350000000     3.9750000000
  163      H     -10.2670000000    -0.0900000000     3.0280000000
  164      C      -9.6260000000    -1.4510000000     4.5320000000
  165      H      -9.5320000000    -1.3290000000     5.6140000000
  166      C     -10.7500000000    -2.4340000000     4.1850000000
  167      H     -10.8080000000    -2.5220000000     3.0950000000
  168      H     -10.4500000000    -3.4190000000     4.5680000000
  169      C     -12.1370000000    -2.0700000000     4.7130000000
  170      H     -12.1680000000    -2.1370000000     5.8060000000
  171      H     -12.3720000000    -1.0400000000     4.4170000000
  172      C     -13.1970000000    -3.0220000000     4.0970000000
  173      O     -13.3260000000    -2.9000000000     2.8400000000
  174      O     -13.7750000000    -3.8210000000     4.8520000000
  175      C      -8.3210000000    -1.9680000000     3.9370000000
  176      O      -8.2520000000    -2.3200000000     2.7570000000
  177      N      -7.2630000000    -2.0000000000     4.7730000000
  178      H      -7.3460000000    -1.5150000000     5.6570000000
  179      C      -5.9230000000    -2.1820000000     4.2460000000
  180      H      -6.0240000000    -2.8420000000     3.3870000000
  181      C      -5.3830000000    -0.8210000000     3.7800000000
  182      H      -6.0260000000    -0.4600000000     2.9680000000
  183      H      -5.4800000000    -0.0960000000     4.5950000000
  184      C      -3.9310000000    -0.8140000000     3.2960000000
  185      O      -3.3340000000    -1.9110000000     3.2000000000
  186      O      -3.4420000000     0.3230000000     3.0270000000
  187      C      -5.0340000000    -2.8010000000     5.3220000000
  188      O      -4.6190000000    -2.1130000000     6.2550000000
  189      N      -4.7570000000    -4.1170000000     5.2190000000
  190      C      -3.9420000000    -4.7720000000     6.2390000000
  191      H      -4.3330000000    -4.5460000000     7.2340000000
  192      H      -2.9140000000    -4.3940000000     6.1840000000
  193      C      -4.0240000000    -6.2590000000     5.8820000000
  194      H      -4.8600000000    -6.7190000000     6.4140000000
  195      H      -3.1010000000    -6.7910000000     6.1310000000
  196      C      -4.3100000000    -6.2560000000     4.3770000000
  197      H      -4.7870000000    -7.1770000000     4.0280000000
  198      H      -3.3880000000    -6.1070000000     3.8070000000
  199      C      -5.2270000000    -5.0330000000     4.1840000000
  200      H      -5.0810000000    -4.6090000000     3.1880000000
  201      C      -6.6860000000    -5.4490000000     4.4080000000
  202      O      -7.1150000000    -5.7060000000     5.5270000000
  203      N      -7.3860000000    -5.5800000000     3.2640000000
  204      H      -6.9360000000    -5.3310000000     2.3890000000
  205      C      -8.7100000000    -6.1540000000     3.2190000000
  206      H      -9.1650000000    -6.0150000000     4.2030000000
  207      C      -9.5870000000    -5.5240000000     2.1370000000
  208      H      -9.6600000000    -4.4470000000     2.3230000000
  209      H      -9.1100000000    -5.6550000000     1.1550000000
  210      C     -10.9490000000    -6.1750000000     2.1420000000
  211      C     -11.8890000000    -5.8490000000     3.1210000000
  212      H     -11.6780000000    -5.0820000000     3.8570000000
  213      C     -13.1260000000    -6.4810000000     3.1680000000
  214      H     -13.8420000000    -6.1370000000     3.9090000000
  215      C     -13.4360000000    -7.4660000000     2.2320000000
  216      H     -14.4050000000    -7.9590000000     2.2590000000
  217      C     -12.5080000000    -7.8020000000     1.2480000000
  218      H     -12.7450000000    -8.5420000000     0.4900000000
  219      C     -11.2730000000    -7.1600000000     1.2090000000
  220      H     -10.5500000000    -7.4260000000     0.4440000000
  221      H      -8.6500000000    -7.2390000000     3.0470000000
  222      H      -3.0980000000     6.8820000000     8.8830000000
  223      C      -2.8500000000     5.9170000000     8.4220000000
  224      H      -2.4790000000     5.2660000000     9.2200000000
  225      C      -4.1130000000     5.3070000000     7.7900000000
  226      H      -4.8950000000     5.3040000000     8.5590000000
  227      H      -4.4920000000     5.9450000000     6.9820000000
  228      C      -3.9160000000     3.9000000000     7.2730000000
  229      C      -3.7380000000     2.8450000000     8.1760000000
  230      H      -3.7220000000     3.0500000000     9.2450000000
  231      C      -3.6120000000     1.5360000000     7.7200000000
  232      H      -3.5120000000     0.7180000000     8.4280000000
  233      C      -3.6590000000     1.2630000000     6.3520000000
  234      H      -3.6200000000     0.2310000000     6.0100000000
  235      C      -3.8200000000     2.3080000000     5.4450000000
  236      H      -3.8710000000     2.0770000000     4.3850000000
  237      C      -3.9410000000     3.6180000000     5.9070000000
  238      H      -4.0790000000     4.4270000000     5.1910000000
  239      C      -1.7000000000     6.1470000000     7.4680000000
  240      O      -0.5650000000     5.6960000000     7.6870000000
  241      N      -1.9500000000     6.9120000000     6.3980000000
  242      H      -2.9020000000     7.1820000000     6.1990000000
  243      C      -0.9330000000     7.2050000000     5.4060000000
  244      H      -0.4030000000     6.2770000000     5.1660000000
  245      C      -1.5570000000     7.8130000000     4.1510000000
  246      H      -2.0160000000     8.7780000000     4.4030000000
  247      H      -0.7370000000     8.0390000000     3.4580000000
  248      C      -2.5750000000     6.9310000000     3.4550000000
  249      C      -3.8200000000     7.4350000000     3.0820000000
  250      H      -4.0890000000     8.4570000000     3.3410000000
  251      C      -4.7220000000     6.6740000000     2.3350000000
  252      H      -5.6790000000     7.0920000000     2.0320000000
  253      C      -4.3660000000     5.3850000000     1.9560000000
  254      O      -5.1290000000     4.6090000000     1.1340000000
  255      H      -5.9670000000     5.0270000000     0.8720000000
  256      C      -3.1510000000     4.8370000000     2.3750000000
  257      H      -2.9180000000     3.8090000000     2.1150000000
  258      C      -2.2650000000     5.6080000000     3.1110000000
  259      H      -1.3220000000     5.1580000000     3.4150000000
  260      H      -0.1970000000     7.8980000000     5.8320000000
  261      H       1.7390000000     6.8240000000     9.0870000000
  262      C       2.4300000000     6.0460000000     9.4380000000
  263      H       3.1910000000     6.5200000000    10.0600000000
  264      C       1.6250000000     4.9910000000    10.2240000000
  265      H       1.2430000000     4.2300000000     9.5370000000
  266      H       2.2870000000     4.4720000000    10.9270000000
  267      C       0.4530000000     5.6350000000    10.9750000000
  268      H       0.8110000000     6.4200000000    11.6470000000
  269      H      -0.2120000000     6.0940000000    10.2320000000
  270      C      -0.3560000000     4.6700000000    11.8320000000
  271      O      -0.4440000000     4.7990000000    13.0450000000
  272      N      -1.0070000000     3.6850000000    11.1520000000
  273      H      -1.4490000000     2.9810000000    11.7240000000
  274      H      -0.7910000000     3.4340000000    10.1830000000
  275      C       3.1290000000     5.4580000000     8.2130000000
  276      O       4.3500000000     5.3710000000     8.1220000000
  277      N       2.3030000000     5.0270000000     7.2100000000
  278      H       1.3010000000     5.1320000000     7.3330000000
  279      C       2.7630000000     4.0610000000     6.2230000000
  280      H       3.1820000000     3.1770000000     6.7120000000
  281      H       1.9020000000     3.7520000000     5.6180000000
  282      C       3.8280000000     4.5740000000     5.2650000000
  283      O       4.6200000000     3.8070000000     4.7280000000
  284      N       3.7740000000     5.9060000000     5.0290000000
  285      H       3.0410000000     6.4150000000     5.5040000000
  286      C       4.6190000000     6.6090000000     4.0930000000
  287      H       5.3220000000     5.8680000000     3.7000000000
  288      C       3.8040000000     7.2200000000     2.9340000000
  289      H       3.2130000000     8.0560000000     3.3380000000
  290      H       4.5120000000     7.6580000000     2.2230000000
  291      C       2.8610000000     6.2530000000     2.2060000000
  292      H       2.1680000000     5.8280000000     2.9460000000
  293      C       2.0360000000     7.0240000000     1.1690000000
  294      H       2.6790000000     7.4090000000     0.3670000000
  295      H       1.2770000000     6.3750000000     0.7150000000
  296      H       1.5140000000     7.8760000000     1.6220000000
  297      C       3.6170000000     5.1010000000     1.5380000000
  298      H       4.1050000000     4.4540000000     2.2740000000
  299      H       2.9320000000     4.4770000000     0.9520000000
  300      H       4.3770000000     5.4930000000     0.8510000000
  301      C       5.4360000000     7.7250000000     4.7510000000
  302      O       6.0890000000     8.5060000000     4.0700000000
  303      N       5.3270000000     7.8380000000     6.0980000000
  304      H       5.0030000000     7.0410000000     6.6360000000
  305      C       6.0110000000     8.9170000000     6.7770000000
  306      H       5.7850000000     9.8610000000     6.2760000000
  307      H       5.6630000000     8.9580000000     7.8110000000
  308      H       7.1000000000     8.7840000000     6.7700000000
  309      H       9.0980000000     4.6270000000     0.5920000000
  310      C       8.4720000000     3.9010000000     0.0620000000
  311      H       8.9460000000     2.9160000000     0.1240000000
  312      C       7.0760000000     3.8470000000     0.7310000000
  313      H       6.6060000000     4.8280000000     0.5910000000
  314      C       6.1820000000     2.7780000000     0.0930000000
  315      H       6.6400000000     1.7840000000     0.1790000000
  316      H       5.2110000000     2.7490000000     0.6000000000
  317      H       6.0040000000     2.9620000000    -0.9710000000
  318      C       7.2310000000     3.6060000000     2.2330000000
  319      H       7.8730000000     4.3670000000     2.6940000000
  320      H       6.2600000000     3.6400000000     2.7390000000
  321      H       7.6750000000     2.6240000000     2.4340000000
  322      C       8.3810000000     4.3610000000    -1.3660000000
  323      O       8.2510000000     5.5750000000    -1.6230000000
  324      N       8.4380000000     3.4220000000    -2.3160000000
  325      H       8.5060000000     2.4480000000    -2.0150000000
  326      C       8.1610000000     3.6760000000    -3.7170000000
  327      H       7.9170000000     4.7320000000    -3.8310000000
  328      C       9.3540000000     3.3280000000    -4.6310000000
  329      H       9.3530000000     2.2510000000    -4.8400000000
  330      H       9.1840000000     3.8430000000    -5.5830000000
  331      C      10.7210000000     3.6880000000    -4.0460000000
  332      H      10.9180000000     3.0710000000    -3.1620000000
  333      H      11.4890000000     3.4220000000    -4.7840000000
  334      C      10.9110000000     5.1510000000    -3.6320000000
  335      H      10.2630000000     5.4090000000    -2.7960000000
  336      H      11.9410000000     5.2940000000    -3.2830000000
  337      N      10.6560000000     6.0770000000    -4.7240000000
  338      H      11.0610000000     5.8220000000    -5.6120000000
  339      C       9.7130000000     7.0430000000    -4.7900000000
  340      N       8.8570000000     7.2470000000    -3.8060000000
  341      H       8.6940000000     6.5680000000    -3.0600000000
  342      H       8.2090000000     8.0390000000    -3.7660000000
  343      N       9.7040000000     7.8560000000    -5.8650000000
  344      H      10.4080000000     7.6420000000    -6.5570000000
  345      H       8.7410000000     7.9560000000    -6.2990000000
  346      C       6.9380000000     2.8390000000    -4.1110000000
  347      O       6.6300000000     1.8290000000    -3.4590000000
  348      N       6.2750000000     3.2650000000    -5.1820000000
  349      H       6.6260000000     4.1130000000    -5.6620000000
  350      C       5.0670000000     2.5900000000    -5.6320000000
  351      H       5.1770000000     1.5140000000    -5.4920000000
  352      C       3.8260000000     3.0920000000    -4.8930000000
  353      H       3.6210000000     4.1450000000    -5.1140000000
  354      H       2.9480000000     2.4990000000    -5.1730000000
  355      H       3.9680000000     3.0080000000    -3.8130000000
  356      H       4.9700000000     2.7710000000    -6.7070000000
  357      H      -6.5090000000    -1.7760000000    -9.7640000000
  358      C      -5.4560000000    -1.8360000000   -10.0620000000
  359      H      -5.4200000000    -2.1410000000   -11.1120000000
  360      C      -4.7450000000    -0.5000000000    -9.8520000000
  361      H      -3.7000000000    -0.5820000000   -10.1740000000
  362      H      -5.2100000000     0.2680000000   -10.4810000000
  363      C      -4.7840000000    -0.0390000000    -8.3960000000
  364      H      -5.8230000000     0.0510000000    -8.0520000000
  365      H      -4.2730000000    -0.7690000000    -7.7530000000
  366      S      -3.9530000000     1.5690000000    -8.2210000000
  367      C      -4.2230000000     1.8420000000    -6.4510000000
  368      H      -3.7470000000     1.0600000000    -5.8560000000
  369      H      -3.7660000000     2.7920000000    -6.1780000000
  370      H      -5.2900000000     1.9100000000    -6.2220000000
  371      H      -4.9860000000    -2.6310000000    -9.4690000000
  372      H      -0.1680000000    -2.8780000000    -8.1510000000
  373      C       0.7660000000    -2.3140000000    -8.2330000000
  374      H       1.0680000000    -2.3410000000    -9.2890000000
  375      C       0.5280000000    -0.8520000000    -7.8150000000
  376      H       1.4560000000    -0.2680000000    -7.8340000000
  377      H      -0.1200000000    -0.3980000000    -8.5750000000
  378      C      -0.1410000000    -0.7280000000    -6.4660000000
  379      C       0.5370000000    -0.2610000000    -5.3390000000
  380      H       1.5800000000     0.0390000000    -5.4240000000
  381      C      -0.1140000000    -0.1860000000    -4.1070000000
  382      H       0.4130000000     0.1850000000    -3.2320000000
  383      C      -1.4370000000    -0.5960000000    -3.9900000000
  384      H      -1.9460000000    -0.5630000000    -3.0360000000
  385      C      -2.1120000000    -1.0790000000    -5.1070000000
  386      H      -3.1280000000    -1.4460000000    -4.9970000000
  387      C      -1.4710000000    -1.1320000000    -6.3350000000
  388      H      -1.9930000000    -1.5320000000    -7.2010000000
  389      C       1.7940000000    -3.1170000000    -7.4640000000
  390      O       1.6620000000    -4.2970000000    -7.1820000000
  391      N       2.9310000000    -2.4270000000    -7.1930000000
  392      H       2.9650000000    -1.4240000000    -7.3160000000
  393      C       3.9410000000    -2.9230000000    -6.3000000000
  394      H       3.5270000000    -3.7560000000    -5.7220000000
  395      C       5.1800000000    -3.3750000000    -7.1050000000
  396      H       4.8000000000    -4.0710000000    -7.8620000000
  397      H       5.5510000000    -2.4870000000    -7.6350000000
  398      C       6.3200000000    -4.0180000000    -6.3050000000
  399      H       6.4520000000    -3.5150000000    -5.3400000000
  400      H       6.0810000000    -5.0660000000    -6.0850000000
  401      C       7.6670000000    -3.9230000000    -7.0170000000
  402      H       7.9620000000    -2.8670000000    -7.1100000000
  403      H       8.4390000000    -4.4210000000    -6.4270000000
  404      N       7.6280000000    -4.5550000000    -8.3300000000
  405      H       6.7680000000    -4.4090000000    -8.8400000000
  406      C       8.7420000000    -4.5600000000    -9.1280000000
  407      N       9.8950000000    -4.1700000000    -8.7040000000
  408      H      10.5000000000    -3.6050000000    -7.1490000000
  409      H      10.6190000000    -4.3190000000    -9.4010000000
  410      N       8.4710000000    -5.0030000000   -10.4220000000
  411      H       7.7840000000    -5.7430000000   -10.4770000000
  412      H       9.2900000000    -5.2070000000   -10.9770000000
  413      C       4.3030000000    -1.7290000000    -5.4280000000
  414      O       4.2750000000    -0.5930000000    -5.8970000000
  415      N       4.6650000000    -2.0040000000    -4.1660000000
  416      H       4.7510000000    -2.9690000000    -3.8810000000
  417      C       5.3530000000    -1.0340000000    -3.3510000000
  418      H       5.5120000000    -0.1390000000    -3.9540000000
  419      C       4.5350000000    -0.6280000000    -2.1000000000
  420      H       5.1940000000    -0.0040000000    -1.4840000000
  421      C       3.3270000000     0.2000000000    -2.5280000000
  422      H       2.6620000000    -0.3940000000    -3.1640000000
  423      H       2.7580000000     0.5210000000    -1.6490000000
  424      H       3.6370000000     1.0870000000    -3.0830000000
  425      C       4.0930000000    -1.8400000000    -1.2800000000
  426      H       4.9390000000    -2.4800000000    -1.0220000000
  427      H       3.6270000000    -1.5210000000    -0.3430000000
  428      H       3.3580000000    -2.4430000000    -1.8290000000
  429      C       6.7040000000    -1.6320000000    -2.9870000000
  430      O       6.8610000000    -2.8650000000    -2.9300000000
  431      N       7.6730000000    -0.7460000000    -2.7600000000
  432      H       7.4580000000     0.2490000000    -2.8620000000
  433      C       9.0030000000    -1.1310000000    -2.3390000000
  434      H       8.9420000000    -2.1760000000    -2.0290000000
  435      C      10.0200000000    -1.0430000000    -3.4920000000
  436      H       9.7580000000    -0.2160000000    -4.1590000000
  437      H      11.0220000000    -0.8450000000    -3.0970000000
  438      C      10.0100000000    -2.3690000000    -4.2500000000
  439      H      10.6240000000    -3.1100000000    -3.7300000000
  440      H       8.9930000000    -2.7870000000    -4.2410000000
  441      C      10.3720000000    -2.3170000000    -5.7140000000
  442      O      10.3040000000    -1.3280000000    -6.4120000000
  443      O      10.6730000000    -3.5370000000    -6.1640000000
  444      C       9.3690000000    -0.3190000000    -1.1020000000
  445      O       9.1450000000     0.8940000000    -1.0280000000
  446      N       9.9090000000    -1.0410000000    -0.1090000000
  447      H      10.2410000000    -1.9890000000    -0.2840000000
  448      C      10.1610000000    -0.5070000000     1.2150000000
  449      H      10.7400000000     0.4220000000     1.1080000000
  450      C       8.8830000000    -0.1470000000     1.9810000000
  451      H       9.1600000000     0.3460000000     2.9170000000
  452      H       8.3490000000     0.6080000000     1.3970000000
  453      C       7.9360000000    -1.3000000000     2.3120000000
  454      H       8.4770000000    -2.2070000000     2.6050000000
  455      H       7.3310000000    -1.0030000000     3.1720000000
  456      S       6.7590000000    -1.7260000000     0.9770000000
  457      C       7.4310000000    -3.2920000000     0.3600000000
  458      H       7.1600000000    -4.1300000000     1.0060000000
  459      H       7.0150000000    -3.4520000000    -0.6360000000
  460      H       8.5170000000    -3.2460000000     0.2700000000
  461      C      11.0830000000    -1.5030000000     1.9280000000
  462      O      11.6000000000    -2.4390000000     1.3200000000
  463      N      11.3310000000    -1.2260000000     3.2210000000
  464      H      10.8190000000    -0.5030000000     3.7430000000
  465      C      12.3380000000    -1.9530000000     3.9580000000
  466      H      12.9160000000    -2.5220000000     3.2230000000
  467      C      13.2790000000    -0.9790000000     4.7010000000
  468      H      12.6510000000    -0.3780000000     5.3710000000
  469      C      14.3080000000    -1.7380000000     5.5430000000
  470      H      14.9060000000    -2.4130000000     4.9170000000
  471      H      14.9940000000    -1.0340000000     6.0260000000
  472      H      13.8340000000    -2.3330000000     6.3290000000
  473      C      13.9690000000    -0.0450000000     3.7060000000
  474      H      13.2400000000     0.5220000000     3.1190000000
  475      H      14.6070000000     0.6710000000     4.2340000000
  476      H      14.5990000000    -0.6130000000     3.0090000000
  477      C      11.6940000000    -2.9050000000     4.9640000000
  478      O      10.9550000000    -2.5010000000     5.8600000000
  479      N      12.0800000000    -4.1970000000     4.8510000000
  480      H      12.4690000000    -4.4880000000     3.9680000000
  481      C      11.6460000000    -5.2080000000     5.7920000000
  482      H      11.7330000000    -4.7730000000     6.7920000000
  483      C      10.2040000000    -5.7030000000     5.5810000000
  484      H       9.5810000000    -4.8320000000     5.3480000000
  485      H      10.1670000000    -6.3640000000     4.7110000000
  486      C       9.6630000000    -6.4020000000     6.7870000000
  487      C       9.3540000000    -7.7240000000     6.9270000000
  488      H       9.4250000000    -8.5260000000     6.2040000000
  489      N       8.8880000000    -7.9700000000     8.2030000000
  490      H       8.5300000000    -8.8500000000     8.5300000000
  491      C       8.8710000000    -6.7890000000     8.9100000000
  492      C       8.4690000000    -6.5180000000    10.2210000000
  493      H       8.0900000000    -7.3010000000    10.8710000000
  494      C       8.5650000000    -5.2070000000    10.6560000000
  495      H       8.2560000000    -4.9600000000    11.6680000000
  496      C       9.0470000000    -4.1860000000     9.8140000000
  497      H       9.1000000000    -3.1690000000    10.1900000000
  498      C       9.4450000000    -4.4580000000     8.5160000000
  499      H       9.8100000000    -3.6700000000     7.8620000000
  500      C       9.3590000000    -5.7800000000     8.0520000000
  501      H      12.3480000000    -6.0460000000     5.7410000000
  502      H      12.2340000000    -4.8930000000     0.3420000000
  503      C      11.6050000000    -5.7240000000     0.0120000000
  504      H      12.2420000000    -6.4540000000    -0.5040000000
  505      C      10.9460000000    -6.4010000000     1.2110000000
  506      H      10.3340000000    -7.2520000000     0.9020000000
  507      H      11.7180000000    -6.7850000000     1.8840000000
  508      S       9.8820000000    -5.2040000000     2.0930000000
  509      H       9.0250000000    -6.1050000000     2.5990000000
  510      C      10.6200000000    -5.1300000000    -0.9920000000
  511      O      10.6650000000    -3.9480000000    -1.3300000000
  512      N       9.7300000000    -6.0020000000    -1.5130000000
  513      H       9.6040000000    -6.9240000000    -1.1130000000
  514      C       8.6550000000    -5.5790000000    -2.3780000000
  515      H       8.5390000000    -4.4980000000    -2.2680000000
  516      C       8.9330000000    -5.8970000000    -3.8520000000
  517      H       9.0660000000    -6.9740000000    -3.9930000000
  518      H       8.0890000000    -5.5700000000    -4.4690000000
  519      H       9.8320000000    -5.3780000000    -4.1960000000
  520      C       7.3780000000    -6.2810000000    -1.9200000000
  521      O       7.4280000000    -7.3400000000    -1.2950000000
  522      N       6.2430000000    -5.6720000000    -2.3120000000
  523      H       6.3330000000    -4.7120000000    -2.6380000000
  524      C       4.9330000000    -6.0870000000    -1.8360000000
  525      H       4.9240000000    -7.1780000000    -1.7770000000
  526      C       4.6100000000    -5.4450000000    -0.4810000000
  527      H       5.1960000000    -5.9440000000     0.3010000000
  528      H       4.9610000000    -4.4100000000    -0.5050000000
  529      C       3.1290000000    -5.4290000000    -0.1020000000
[...]
    2   0.0508143  -0.0040187   0.0039458   0.0005479  -0.0812508   0.0070520
    3   0.0050407  -0.0331141  -0.0185644   0.0037169   0.0554923  -0.0061468
          349         350         351         352         353         354
    1   0.0169135  -0.0136993   0.0014133   0.0015986  -0.0060950  -0.0263186
    2   0.0355332  -0.0139581  -0.0357926  -0.0005235   0.0320629  -0.0185534
    3  -0.0209740  -0.0045960   0.0030601   0.0017221  -0.0042244  -0.0064462
          355         356         357         358         359         360
    1   0.0044611  -0.0032860  -0.0323760   0.0000062   0.0003829   0.0003623
    2  -0.0021021   0.0023216  -0.0001225  -0.0002564  -0.0106804  -0.0002969
    3   0.0349261  -0.0346147   0.0078220   0.0000029  -0.0317823  -0.0034071
          361         362         363         364         365         366
    1   0.0322909  -0.0133898  -0.0059127  -0.0323936   0.0182659   0.0205726
    2  -0.0017796   0.0242226  -0.0107623   0.0043042  -0.0210243   0.0224511
    3  -0.0110975  -0.0200874  -0.0036400   0.0094661   0.0179825  -0.0318865
          367         368         369         370         371         372
    1  -0.0042707   0.0159152   0.0124088  -0.0355767   0.0132340  -0.0271378
    2   0.0002094  -0.0244541   0.0296894   0.0044767  -0.0256918  -0.0213024
    3   0.0112239   0.0148980   0.0076972   0.0052564   0.0155957   0.0057182
          373         374         375         376         377         378
    1  -0.0053866   0.0074374  -0.0006688   0.0270690  -0.0194451  -0.0014068
    2  -0.0034248  -0.0023274   0.0004559   0.0215029   0.0153659  -0.0024815
    3   0.0013153  -0.0332467   0.0004109  -0.0013360  -0.0230118   0.0058752
          379         380         381         382         383         384
    1  -0.0047746   0.0387985  -0.0000609   0.0235535   0.0074266  -0.0145240
    2  -0.0032443   0.0095198  -0.0057822   0.0119960  -0.0082086  -0.0118973
    3   0.0003956  -0.0019093  -0.0060892   0.0332424  -0.0054346   0.0362565
          385         386         387         388         389         390
    1   0.0084203  -0.0338429   0.0053990  -0.0163721  -0.0108683  -0.0174898
    2  -0.0033320  -0.0204867  -0.0011565  -0.0182479  -0.0057412  -0.1094236
    3  -0.0021439   0.0057622   0.0062868  -0.0300218  -0.0013613   0.0236442
          391         392         393         394         395         396
    1   0.0038556   0.0042127   0.0092532  -0.0183757  -0.0005363  -0.0156676
    2  -0.0056513   0.0438864  -0.0074898  -0.0283895   0.0009572  -0.0204056
    3  -0.0186707  -0.0030645   0.0086720   0.0154885   0.0000635  -0.0221919
          397         398         399         400         401         402
    1   0.0101846   0.0001681   0.0053141  -0.0071148   0.0036129   0.0122010
    2   0.0281722   0.0000661   0.0142408  -0.0328864   0.0088139   0.0327875
    3  -0.0169617   0.0026265   0.0317395   0.0078085   0.0183512  -0.0045454
          403         404         405         406         407         408
    1   0.0266783  -0.0026031  -0.0387859   0.0148935   0.0134080  -0.0111080
    2  -0.0143958  -0.0360590   0.0068450   0.0066911   0.0300451  -0.0063046
    3   0.0182769   0.0155889  -0.0203365   0.0091014   0.0657884  -0.0475492
          409         410         411         412         413         414
    1   0.0335255  -0.0220289  -0.0303351   0.0337907  -0.0011618  -0.0025295
    2  -0.0025306   0.0421635  -0.0319844  -0.0070450  -0.0020949   0.1004004
    3  -0.0235991  -0.0222294  -0.0036234  -0.0259035  -0.0102248  -0.0417506
          415         416         417         418         419         420
    1  -0.0157535   0.0052507   0.0041711   0.0035363  -0.0018408   0.0195847
    2   0.0046223  -0.0429803   0.0187028   0.0313621   0.0019349   0.0205931
    3   0.0052627   0.0150282   0.0105817  -0.0191770   0.0044618   0.0225922
          421         422         423         424         425         426
    1   0.0012598  -0.0206819  -0.0192593   0.0093265  -0.0005357   0.0239766
    2  -0.0000263  -0.0181841   0.0109179   0.0276753   0.0013484  -0.0193239
    3   0.0007964  -0.0185881   0.0294278  -0.0161141   0.0020183   0.0116274
          427         428         429         430         431         432
    1  -0.0153641  -0.0251882  -0.0109086   0.0149095  -0.0018352  -0.0116365
    2   0.0087293  -0.0183636  -0.0002217  -0.0993976   0.0061465   0.0442532
    3   0.0327757  -0.0133175  -0.0015313   0.0036933  -0.0034610  -0.0043287
          433         434         435         436         437         438
    1   0.0164010  -0.0029497   0.0000185  -0.0066286   0.0321673   0.0008120
    2  -0.0120868  -0.0361175   0.0027208   0.0241882   0.0062063  -0.0017757
    3   0.0053658   0.0086812  -0.0030960  -0.0241342   0.0106617   0.0033880
          439         440         441         442         443         444
    1   0.0174742  -0.0321367  -0.0065735  -0.0054376   0.0313305  -0.0044446
    2  -0.0230732  -0.0139809   0.0162108   0.0916996  -0.0816689   0.0010392
    3   0.0194358   0.0044852   0.0085920  -0.0628173   0.0446654  -0.0087676
          445         446         447         448         449         450
    1  -0.0174226  -0.0044228   0.0183289  -0.0003630   0.0172626  -0.0025852
    2   0.1016803  -0.0060311  -0.0422659   0.0083230   0.0302461   0.0038406
    3   0.0090080  -0.0020972  -0.0067175   0.0144767  -0.0063428  -0.0005882
          451         452         453         454         455         456
    1   0.0052814  -0.0164566   0.0063863   0.0155784  -0.0180645  -0.0388645
    2   0.0188011   0.0229956   0.0012310  -0.0311442   0.0037195   0.0241480
    3   0.0277449  -0.0211146   0.0072809   0.0086045   0.0183091  -0.0128879
          457         458         459         460         461         462
    1   0.0058008  -0.0092875  -0.0118620   0.0338660  -0.0021133   0.0454832
    2  -0.0127662  -0.0264253  -0.0054665  -0.0021734  -0.0019253  -0.0826719
    3  -0.0048842   0.0206303  -0.0324763  -0.0018103  -0.0088514  -0.0564184
          463         464         465         466         467         468
    1  -0.0047086  -0.0206629   0.0158729   0.0179011  -0.0002114  -0.0202300
    2   0.0080028   0.0308233  -0.0061479  -0.0162283   0.0033748   0.0192412
    3   0.0013888   0.0245784   0.0064925  -0.0276130   0.0019266   0.0205278
          469         470         471         472         473         474
    1  -0.0015990   0.0194415   0.0207425  -0.0138234  -0.0015131  -0.0215844
    2   0.0006332  -0.0207976   0.0201359  -0.0180590  -0.0007227   0.0168009
    3  -0.0005054  -0.0173578   0.0151388   0.0247498   0.0004347  -0.0173138
          475         476         477         478         479         480
    1   0.0191380   0.0192807   0.0006318  -0.0640864   0.0104137   0.0155169
    2   0.0224927  -0.0154391   0.0112356   0.0336933   0.0048895  -0.0129619
    3   0.0148015  -0.0222738  -0.0028372   0.0783591   0.0100442  -0.0410914
          481         482         483         484         485         486
    1  -0.0077578   0.0015991  -0.0011589  -0.0195146  -0.0028053  -0.0017422
    2  -0.0115440   0.0128666   0.0021949   0.0267660  -0.0187479  -0.0046350
    3   0.0152803   0.0323032  -0.0030686  -0.0083262  -0.0290447   0.0023035
          487         488         489         490         491         492
    1   0.0068861   0.0023840   0.0055938  -0.0172756   0.0006958   0.0016713
    2   0.0176016  -0.0272184   0.0032628  -0.0408093   0.0216462   0.0101888
    3  -0.0128884  -0.0266331   0.0003922   0.0152433   0.0074919  -0.0003634
          493         494         495         496         497         498
    1  -0.0137986   0.0017931  -0.0109635  -0.0000738   0.0012685  -0.0025174
    2  -0.0254620  -0.0019334   0.0085713  -0.0066482   0.0344229  -0.0008419
    3   0.0236259  -0.0077768   0.0336086  -0.0046809   0.0124404   0.0063587
          499         500         501         502         503         504
    1   0.0125248  -0.0009742   0.0212482   0.0172528   0.0031094   0.0214627
    2   0.0277404   0.0019368  -0.0277068   0.0298418   0.0058356  -0.0203914
    3  -0.0228310   0.0009479   0.0024999   0.0077565  -0.0000425  -0.0164325
          505         506         507         508         509         510
    1   0.0066933  -0.0202218   0.0229245   0.0007796  -0.0379884   0.0046136
    2  -0.0104896  -0.0270951  -0.0117092   0.0437553  -0.0350863   0.0061904
    3  -0.0060037  -0.0059439   0.0222274   0.0021299   0.0197524   0.0067782
          511         512         513         514         515         516
    1   0.0097915   0.0100318  -0.0101814  -0.0127282  -0.0023477   0.0014857
    2   0.1027985  -0.0019955  -0.0402193   0.0114133   0.0367131   0.0007633
    3  -0.0275832  -0.0103650   0.0172829  -0.0104557   0.0038593  -0.0013388
          517         518         519         520         521         522
    1   0.0046277  -0.0246937   0.0269934   0.0085828   0.0026489  -0.0013625
    2  -0.0335361   0.0091475   0.0161885  -0.0010844  -0.0941069  -0.0057979
    3  -0.0061909  -0.0197234  -0.0123719   0.0029876   0.0548494  -0.0161635
          523         524         525         526         527         528
    1   0.0049646  -0.0170284  -0.0006005  -0.0035541   0.0173602   0.0094679
    2   0.0420937  -0.0060771  -0.0349381   0.0024657  -0.0134201   0.0323562
    3  -0.0129925   0.0099515   0.0032060   0.0038117   0.0250465   0.0036423
          529         530         531         532         533         534
    1  -0.0018198  -0.0189668  -0.0009142   0.0148576  -0.0308094  -0.0010677
    2   0.0023665   0.0191537   0.0042051  -0.0195929   0.0037164  -0.0147301
    3   0.0007838  -0.0206878   0.0027651   0.0228738   0.0104878  -0.0283881
          535         536         537         538         539         540
    1  -0.0031818   0.0116316  -0.0344336   0.0108037  -0.0259432   0.0287028
    2   0.0010603   0.0337800   0.0055276  -0.0149052   0.0066350  -0.0097565
    3   0.0008708   0.0040547   0.0126325   0.0285076  -0.0222152  -0.0165006
          541         542         543         544         545         546
    1   0.0022090  -0.0113347   0.0009918   0.0091521   0.0004444  -0.0124623
    2  -0.0001146  -0.0274303   0.0034249   0.0241679  -0.0014193  -0.0243298
    3   0.0038335   0.0216727   0.0010198  -0.0215670   0.0014868   0.0214886
          547         548         549         550         551         552
    1   0.0056381  -0.0253025  -0.0037809   0.0265110   0.0074412  -0.0081265
    2   0.0240867   0.0111664  -0.0000281  -0.0105911   0.0274720  -0.0215410
    3   0.0280462  -0.0154857   0.0011613  -0.0154203   0.0202779   0.0262808
          553         554         555         556         557         558
    1   0.0129246   0.0362470   0.0060195  -0.0095468  -0.0091321   0.0223639
    2   0.0033111   0.0543602  -0.0093297  -0.0246655   0.0020263   0.0165869
    3   0.0024727  -0.0874379  -0.0001566   0.0383776  -0.0133876  -0.0245711
          559         560         561         562         563         564
    1   0.0009011  -0.0124130   0.0007130   0.0082710  -0.0170404  -0.0234622
    2  -0.0043166  -0.0206604  -0.0014717   0.0205416  -0.0236750   0.0132181
    3   0.0001008   0.0256164   0.0017264  -0.0239548  -0.0149590   0.0198305
          565         566         567         568         569         570
    1   0.0014553   0.0137261   0.0283626   0.0002460  -0.0249500   0.0228560
    2   0.0006478   0.0186058  -0.0055404   0.0008535   0.0046943  -0.0178766
    3   0.0020611  -0.0240750   0.0186842   0.0013388  -0.0207466  -0.0160685
          571         572         573         574         575         576
    1  -0.0110161   0.0040272  -0.0524880   0.0050571   0.0205526  -0.0191589
    2  -0.0197337  -0.0134026  -0.0451621  -0.0007671   0.0117669   0.0025921
    3   0.0241163  -0.0017254   0.0784616   0.0112227  -0.0382973   0.0167690
          577         578         579         580         581         582
    1  -0.0134180  -0.0048296   0.0040852  -0.0317895  -0.0122421   0.0433766
    2  -0.0155970  -0.0047167   0.0170707   0.0147985  -0.0273118  -0.0901352
    3   0.0318258  -0.0035447  -0.0314667   0.0105377  -0.0043793   0.0617101
          583         584         585         586         587         588
    1  -0.0589082  -0.0048629  -0.0308091   0.0016209  -0.0003219  -0.0158464
    2   0.0733981  -0.0087440  -0.0045036  -0.0302977  -0.0006098   0.0191742
    3  -0.0515586   0.0098995  -0.0175649   0.0146242   0.0007717   0.0229922
          589         590         591         592         593         594
    1  -0.0025029   0.0114300  -0.0053114  -0.0124780  -0.0126302   0.0077569
    2   0.0000669  -0.0198448   0.0292870  -0.0054690   0.0205668  -0.0292741
    3  -0.0025620  -0.0240019  -0.0160625   0.0045386   0.0246154   0.0141239
          595         596         597         598         599         600
    1   0.0059370   0.0063675   0.0123477   0.0250549  -0.0232122  -0.0229296
    2   0.0085010   0.0008922  -0.0272798   0.0220693   0.0150026  -0.0048650
    3  -0.0431485   0.0112505   0.0115912  -0.0085587   0.0235508  -0.0230592
          601         602         603         604         605         606
    1  -0.0296039  -0.0005019  -0.0041172  -0.0004038  -0.0045262  -0.0015808
    2   0.0138100  -0.0000132  -0.0043963   0.0017860   0.0298196   0.0073332
    3   0.0098774   0.0010402  -0.0332892   0.0051079  -0.0147141   0.0343018
          607         608         609         610         611         612
    1  -0.0035580   0.0004596   0.0196584  -0.0216837   0.0145309   0.0083337
    2   0.0062195  -0.0217425   0.0269707  -0.0227370   0.0012336   0.0334501
    3  -0.0059853  -0.0255068  -0.0015267   0.0371882   0.0042796   0.0073346
          613         614         615         616         617         618
    1   0.0235830   0.0067718   0.0020991  -0.0192948  -0.0193221   0.0146823
    2  -0.0122292  -0.0209058   0.0086307   0.0028569  -0.0055194   0.0020283
    3   0.0313498  -0.0211339   0.0055605   0.1047602   0.0002532  -0.0422207
          619         620         621         622         623         624
    1   0.0029811   0.0026572  -0.0014539  -0.0024703   0.0115782  -0.0002021
    2  -0.0159003   0.0049843  -0.0030349  -0.0079369  -0.0311417   0.0023701
    3   0.0134374   0.0376318  -0.0007607  -0.0330123   0.0123215   0.0083752
          625         626         627         628         629         630
    1  -0.0049778  -0.0141605   0.0073013   0.0109650  -0.0095005  -0.0165174
    2   0.0088662   0.0263170   0.0041312  -0.0414335   0.0159828  -0.0410559
    3   0.0363218  -0.0144928   0.0005385  -0.0895271   0.0082242  -0.0005348
          631         632         633         634         635         636
    1   0.0030346  -0.0095374   0.0160884  -0.0069187  -0.0078512   0.0182148
    2   0.0214692   0.0045638   0.0261481  -0.0095321   0.0021223   0.0007500
    3   0.0395917  -0.0002000  -0.1005613   0.0050973   0.0459396  -0.0083177
          637         638         639         640         641         642
    1   0.0009652   0.0024489   0.0057722   0.0358841  -0.0032989  -0.0001651
    2   0.0096569   0.0025757  -0.0046587  -0.0025282   0.0313384   0.0110041
    3  -0.0344107   0.0049480   0.0358581  -0.0104252  -0.0013376   0.0048005
          643         644         645         646         647         648
    1   0.0148789  -0.0006504  -0.0009811  -0.0028515  -0.0176746  -0.0014835
    2  -0.0382711   0.0055825   0.0176948  -0.0177751  -0.0080328   0.0003057
    3   0.0958885  -0.0037216  -0.0403203   0.0016699   0.0315145  -0.0038165
          649         650         651         652         653         654
    1   0.0107743   0.0093970  -0.0080886  -0.0038867   0.0183950   0.0027538
    2   0.0136786  -0.0321922   0.0008635  -0.0060467   0.0315540  -0.0021392
    3  -0.0289334  -0.0045979   0.0014386   0.0011283  -0.0074958   0.0002541
          655         656         657         658         659         660
    1  -0.0203712   0.0269097  -0.0732971  -0.0182810   0.0036675  -0.0200904
    2   0.0322009   0.0000776  -0.0787115   0.0447543   0.0067843  -0.0297414
    3  -0.0005504  -0.0001553  -0.0071181   0.0119824   0.0016271   0.0071574
          661         662         663         664         665         666
    1  -0.0040873   0.0169783  -0.0076124   0.0595157  -0.0059013  -0.0222744
    2   0.0092048  -0.0316843   0.0068406   0.0079303  -0.0157378   0.0113857
    3  -0.0006998   0.0042204  -0.0053825  -0.0875516  -0.0058009   0.0393377
          667         668         669         670         671         672
    1   0.0196033   0.0068304  -0.0002300   0.0307503  -0.0018624  -0.0030584
    2  -0.0025833  -0.0207091   0.0014682  -0.0116464   0.0135000   0.0073382
    3   0.0012657  -0.0260833  -0.0027859   0.0022202  -0.0300597   0.0028868
          673         674         675         676         677         678
    1   0.0089830  -0.0256600  -0.0047122  -0.0173687   0.0152539   0.0066317
    2  -0.0124856   0.0087295   0.0131478   0.0440317  -0.0047351   0.0003106
    3  -0.0079310  -0.0250792   0.0032735   0.0131433   0.0084581  -0.0007874
          679         680         681         682         683         684
    1  -0.0145248  -0.0031236   0.0126477  -0.0066240   0.0266533  -0.0003711
    2   0.0351729   0.0020428   0.0140958   0.0062027  -0.0161437   0.0099071
    3   0.0112262  -0.0097659   0.0306627  -0.0064877   0.0164140   0.0068126
          685         686         687         688         689         690
    1   0.0151676   0.0007942   0.0053920  -0.0247472   0.0009237   0.0257496
    2  -0.0286697   0.0034091  -0.0175700  -0.0036059   0.0021916   0.0074795
    3  -0.0143419   0.0013450   0.0300800  -0.0207545   0.0001026  -0.0197482
          691         692         693         694         695         696
    1   0.0013767   0.0020521  -0.0311310  -0.0028996  -0.0049114  -0.0054054
    2   0.0033220   0.0269155   0.0002385  -0.0000820  -0.0258538   0.0012186
    3  -0.0003467  -0.0207929   0.0120976  -0.0020122   0.0206299  -0.0012612
          697         698         699         700         701         702
    1  -0.0016751   0.0209695   0.0067418  -0.0009391  -0.0318436   0.0175214
    2   0.0208032   0.0048144  -0.0290345  -0.0024560   0.0029045   0.0043506
    3  -0.0268758   0.0248374  -0.0139063  -0.0023924   0.0114999   0.0276245
          703         704         705         706         707         708
    1   0.0010018   0.0023744   0.0756240  -0.0053173  -0.0318024   0.0051804
    2   0.0272663  -0.0282258   0.0318665  -0.0126717  -0.0222211   0.0624585
    3  -0.0190307   0.0163663  -0.0570113   0.0451159  -0.0271069   0.0814865
          709         710         711         712         713         714
    1   0.0252622  -0.0273991   0.0838114  -0.0010175  -0.0391637  -0.0978806
    2  -0.0059570  -0.0473935  -0.0407735   0.0457777  -0.0262070   0.0323531
    3  -0.0429550  -0.0010357   0.0525979  -0.0160338  -0.0167556  -0.0435014
          715         716         717         718         719         720
    1   0.0245602   0.0179892   0.1053685  -0.0108777  -0.0154280   0.0663044
    2  -0.0344754   0.0160836  -0.0229121  -0.0049396   0.0594226   0.0420347
    3  -0.0259997   0.0461563  -0.0084708   0.0007508  -0.0007457  -0.0639615
          721         722         723         724         725
    1   0.0036318  -0.0475397   0.0844812  -0.0410012   0.0054490
    2  -0.0163755  -0.0059958   0.0551267   0.0210056  -0.0466748
    3   0.0466897  -0.0041807  -0.0285658  -0.0046892   0.0245125
  --- DONE ESP SUMMARY ---
 Total job time:  69.57s(wall), 137.95s(cpu) 
 Sun May  3 06:22:11 2026

        *************************************************************
        *                                                           *
        *  Thank you very much for using Q-Chem.  Have a nice day.  *
        *                                                           *
        *************************************************************


