
Running Job 1 of 2 19nt_xstal_distance_cutoff3_xtb_optimized_spade_wb97x-v_631gd.in
qchem 19nt_xstal_distance_cutoff3_xtb_optimized_spade_wb97x-v_631gd.in_1418854.0 ./qchem1418854/ 1
srun -n 1 /cm/shared/apps/spack/0.17.3/cpu/b/opt/spack/linux-rocky8-zen2/gcc-10.2.0/qchem-6.0-rytxnwjazd34ekd2gqyi5ufsaimxsd3r/exe/qcprog.exe 19nt_xstal_distance_cutoff3_xtb_optimized_spade_wb97x-v_631gd.in_1418854.0 ./qchem1418854/

                  Welcome to Q-Chem
     A Quantum Leap Into The Future Of Chemistry


 Q-Chem 6.0, Q-Chem, Inc., Pleasanton, CA (2022)

 License issued to: University of California, San Diego (site)

 E. Epifanovsky,  A. T. B. Gilbert,  Xintian Feng,  Joonho Lee,  Yuezhi Mao,  
 N. Mardirossian,  P. Pokhilko,  A. White,  M. Wormit,  M. P. Coons,  
 A. L. Dempwolff,  Zhengting Gan,  D. Hait,  P. R. Horn,  L. D. Jacobson,  
 I. Kaliman,  J. Kussmann,  A. W. Lange,  Ka Un Lao,  D. S. Levine,  Jie Liu,  
 S. C. McKenzie,  A. F. Morrison,  K. Nanda,  F. Plasser,  D. R. Rehn,  
 M. L. Vidal,  Zhi-Qiang You,  Ying Zhu,  B. Alam,  B. Albrecht,  
 A. Aldossary,  E. Alguire,  J. H. Andersen,  V. Athavale,  D. Barton,  
 K. Begam,  A. Behn,  N. Bellonzi,  Y. A. Bernard,  E. J. Berquist,  
 H. Burton,  A. Carreras,  K. Carter-Fenk,  Romit Chakraborty,  
 Chandrima Chakravarty,  Junhan Chen,  A. D. Chien,  K. D. Closser,  
 V. Cofer-Shabica,  L. Cunha,  S. Dasgupta,  Jia Deng,  M. de Wergifosse,  
 M. Diedenhofen,  Hainam Do,  S. Ehlert,  Po-Tung Fang,  S. Fatehi,  
 Qingguo Feng,  T. Friedhoff,  B. Ganoe,  J. Gayvert,  Qinghui Ge,  
 G. Gidofalvi,  M. Goldey,  J. Gomes,  C. Gonzalez-Espinoza,  S. Gulania,  
 A. Gunina,  J. A. Gyamfi,  M. W. D. Hanson-Heine,  P. H. P. Harbach,  
 A. W. Hauser,  M. F. Herbst,  M. Hernandez Vera,  M. Hodecker,  
 Z. C. Holden,  S. Houck,  Xunkun Huang,  Kerwin Hui,  B. C. Huynh,  
 K. Ikeda,  M. Ivanov,  Hyunjun Ji,  Zuxin Jin,  Hanjie Jiang,  B. Kaduk,  
 S. Kaehler,  R. Kang,  K. Khistyaev,  Jaehoon Kim,  Yongbin Kim,  
 P. Klunzinger,  Z. Koczor-Benda,  Joong Hoon Koh,  D. Kosenkov,  
 Saikiran Kotaru,  L. Koulias,  T. Kowalczyk,  C. M. Krauter,  K. Kue,  
 A. Kunitsa,  T. Kus,  A. Landau,  K. V. Lawler,  D. Lefrancois,  S. Lehtola,  
 Rain Li,  Shaozhi Li,  Yi-Pei Li,  Jiashu Liang,  M. Liebenthal,  
 Hung-Hsuan Lin,  You-Sheng Lin,  Fenglai Liu,  Kuan-Yu Liu,  
 M. Loipersberger,  A. Luenser,  C. Malbon,  A. Manjanath,  P. Manohar,  
 E. Mansoor,  S. F. Manzer,  Shan-Ping Mao,  A. V. Marenich,  T. Markovich,  
 S. Mason,  F. Matz,  S. A. Maurer,  P. F. McLaughlin,  M. F. S. J. Menger,  
 J.-M. Mewes,  S. A. Mewes,  P. Morgante,  Mohammad Mostafanejad,  
 J. W. Mullinax,  K. J. Oosterbaan,  G. Paran,  V. Parravicini,  
 Alexander C. Paul,  Suranjan K. Paul,  F. Pavosevic,  Zheng Pei,  S. Prager,  
 E. I. Proynov,  E. Ramos,  B. Rana,  A. E. Rask,  A. Rettig,  R. M. Richard,  
 F. Rob,  E. Rossomme,  T. Scheele,  M. Scheurer,  M. Schneider,  
 P. E. Schneider,  N. Sergueev,  S. M. Sharada,  Hengyuan Shen,  
 W. Skomorowski,  D. W. Small,  C. J. Stein,  Yingli Su,  Yu-Chuan Su,  
 E. J. Sundstrom,  Zhen Tao,  J. Thirman,  Hung-Yi Tsai,  T. Tsuchimochi,  
 N. M. Tubman,  C. Utku,  S. P. Veccham,  O. Vydrov,  J. Wenzel,  
 Jonathan Wong,  J. Witte,  A. Yamada,  Chou-Hsun Yang,  Kun Yao,  
 S. Yeganeh,  S. R. Yost,  A. Zech,  F. Zeller,  Igor Ying Zhang,  
 Xing Zhang,  Yu Zhang,  D. Zuev,  A. Aspuru-Guzik,  A. T. Bell,  
 N. A. Besley,  K. B. Bravaya,  B. R. Brooks,  D. Casanova,  Jeng-Da Chai,  
 Hsing-Ta Chen,  S. Coriani,  C. J. Cramer,  A. E. DePrince, III,  
 R. A. DiStasio Jr.,  A. Dreuw,  B. D. Dunietz,  T. R. Furlani,  
 W. A. Goddard III,  S. Grimme,  S. Hammes-Schiffer,  T. Head-Gordon,  
 W. J. Hehre,  Chao-Ping Hsu,  T.-C. Jagau,  Yousung Jung,  A. Klamt,  
 Jing Kong,  D. S. Lambrecht,  Xiangyuan Li,  WanZhen Liang,  N. J. Mayhall,  
 C. W. McCurdy,  J. B. Neaton,  T. Neudecker,  C. Ochsenfeld,  
 J. A. Parkhill,  R. Peverati,  V. A. Rassolov,  Haisheng Ren,  Yihan Shao,  
 L. V. Slipchenko,  R. P. Steele,  J. E. Subotnik,  A. J. W. Thom,  
 A. Tkatchenko,  D. G. Truhlar,  T. Van Voorhis,  Fan Wang,  
 T. A. Wesolowski,  K. B. Whaley,  H. L. Woodcock III,  P. M. Zimmerman,  
 S. Faraji,  P. M. W. Gill,  M. Head-Gordon,  J. M. Herbert,  A. I. Krylov

 Contributors to earlier versions of Q-Chem not listed above: 
 R. D. Adamson,  B. Austin,  R. Baer,  J. Baker,  G. J. O. Beran,  
 K. Brandhorst,  S. T. Brown,  E. F. C. Byrd,  Arup K. Chakraborty,  
 G. K. L. Chan,  Chun-Min Chang,  Yunqing Chen,  C.-L. Cheng,  
 Siu Hung Chien,  D. M. Chipman,  D. L. Crittenden,  H. Dachsel,  
 R. J. Doerksen,  A. D. Dutoi,  R. G. Edgar,  J. Fosso-Tande,  
 L. Fusti-Molnar,  D. Ghosh,  A. Ghysels,  A. Golubeva-Zadorozhnaya,  
 J. Gonthier,  M. S. Gordon,  S. R. Gwaltney,  G. Hawkins,  J. E. Herr,  
 A. Heyden,  S. Hirata,  E. G. Hohenstein,  G. Kedziora,  F. J. Keil,  
 C. Kelley,  Jihan Kim,  R. A. King,  R. Z. Khaliullin,  P. P. Korambath,  
 W. Kurlancheek,  A. Laurent,  A. M. Lee,  M. S. Lee,  S. V. Levchenko,  
 Ching Yeh Lin,  D. Liotard,  E. Livshits,  R. C. Lochan,  I. Lotan,  
 L. A. Martinez-Martinez,  P. E. Maslen,  N. Nair,  D. P. O'Neill,  
 D. Neuhauser,  E. Neuscamman,  C. M. Oana,  R. Olivares-Amaya,  R. Olson,  
 T. M. Perrine,  B. Peters,  P. A. Pieniazek,  A. Prociuk,  Y. M. Rhee,  
 J. Ritchie,  M. A. Rohrdanz,  E. Rosta,  N. J. Russ,  H. F. Schaefer III,  
 M. W. Schmidt,  N. E. Schultz,  S. Sharma,  N. Shenvi,  C. D. Sherrill,  
 A. C. Simmonett,  A. Sodt,  T. Stein,  D. Stuck,  K. S. Thanthiriwatte,  
 V. Vanovschi,  L. Vogt,  Tao Wang,  A. Warshel,  M. A. Watson,  
 C. F. Williams,  Q. Wu,  X. Xu,  Jun Yang,  W. Zhang,  Yan Zhao

   Please cite Q-Chem as follows:
  "Software for the frontiers of quantum chemistry:
   An overview of developments in the Q-Chem 5 package"
   J. Chem. Phys. 155, 084801 (2021)
   https://doi.org/10.1063/5.0055522 (open access)

 Q-Chem 6.0.2 for Intel X86 EM64T Linux

 Parts of Q-Chem use Armadillo 9.900.5 (Nocturnal Misbehaviour).
 http://arma.sourceforge.net/

 Q-Chem begins on Fri Aug  9 13:57:22 2024  

 Host: 
0

     Scratch files written to ./qchem1418854//
 Dec722 |scratch|qcdevops|jenkins|workspace|build_RNUM    
 Processing $rem in /cm/shared/apps/spack/0.17.3/cpu/b/opt/spack/linux-rocky8-zen2/gcc-10.2.0/qchem-6.0-rytxnwjazd34ekd2gqyi5ufsaimxsd3r/config/preferences:
 Processing $rem in /home/hklem/.qchemrc:
 No nuclear gradient supported for projection-based embedding or EMFT. Set max ideriv = 0.

 Checking the input file for inconsistencies... 	...done.

--------------------------------------------------------------
User input:
--------------------------------------------------------------
$molecule
-1 1
--
0 1
C    2.92600    1.01300    -8.85700
O    2.63900    -0.02100   -8.24000
C    3.05900    2.29900    -8.25000
C    3.33200    3.43600    -8.94000
C    3.63600    3.40600    -10.40600
C    4.08500    2.00600    -10.83100
C    3.09100    0.96300    -10.35400
C    3.21800    4.74900    -8.26600
C    4.13300    5.84500    -8.80500
C    4.12700    5.85400    -10.33100
C    4.65000    4.49200    -10.81700
C    4.99700    6.96800    -10.90000
C    5.07100    6.93200    -12.43300
C    5.72200    5.61900    -12.84700
C    4.89000    4.44700    -12.33200
C    4.60900    8.42100    -10.62700
C    5.42300    9.21100    -11.66800
C    5.92700    8.18400    -12.71000
C    3.71000    7.09300    -13.11600
O    5.83100    8.71400    -14.01300
H    2.87900    2.35300    -7.18500
H    2.69200    3.65300    -10.91700
H    5.07000    1.79400    -10.40500
H    4.16500    1.94500    -11.91700
H    2.10700    1.16900    -10.78900
H    3.38800    -0.04500   -10.65000
H    3.35500    4.63100    -7.18900
H    2.16800    5.07100    -8.40000
H    5.15400    5.68300    -8.44500
H    3.79800    6.80900    -8.42300
H    3.09500    5.97500    -10.66500
H    5.60700    4.29300    -10.31500
H    6.01800    6.81700    -10.52300
H    6.73200    5.56500    -12.42800
H    5.80700    5.56200    -13.93400
H    3.92500    4.43700    -12.84000
H    5.41600    3.52500    -12.58600
H    4.83600    8.73400    -9.61100
H    3.53900    8.55100    -10.78300
H    6.26300    9.72700    -11.20300
H    4.82000    9.96100    -12.17900
H    6.98200    7.93300    -12.50700
H    3.37900    8.12700    -13.07300
H    3.80400    6.81300    -14.16200
H    2.95100    6.46800    -12.66000
H    5.75700    7.97700    -14.63700
--
-1 1
H    6.16500    -6.10100   -8.68400
C    6.13400    -5.72400   -9.70400
H    5.89200    -6.55300   -10.36500
C    5.09200    -4.61600   -9.81100
H    4.11500    -5.01900   -9.52600
H    5.33100    -3.83100   -9.08700
C    4.95900    -3.97300   -11.16700
C    5.67100    -4.38100   -12.28300
H    6.36400    -5.20600   -12.22200
C    5.51800    -3.74100   -13.50200
H    6.08700    -4.07200   -14.36300
C    4.64300    -2.67300   -13.62600
O    4.47800    -1.99900   -14.80300
H    5.05600    -2.38000   -15.47500
C    3.91000    -2.26200   -12.51700
H    3.22400    -1.43700   -12.62700
C    4.07200    -2.90700   -11.30900
H    3.50700    -2.57500   -10.45000
H    7.12400    -5.34900   -9.95600
H    8.02700    -2.17300   -13.41300
C    7.93100    -1.09800   -13.54400
H    6.93700    -0.88400   -13.92800
C    8.13800    -0.37700   -12.21300
H    9.15300    -0.59100   -11.85600
C    7.99600    1.13200    -12.39300
H    6.98700    1.37600    -12.71700
H    8.18600    1.65000    -11.45600
H    8.69500    1.50600    -13.13800
C    7.13900    -0.88000   -11.17400
H    7.23900    -1.95300   -11.02900
H    7.29700    -0.38700   -10.21800
H    6.12200    -0.67900   -11.50200
H    8.66400    -0.76800   -14.27800
H    -3.76700   6.15200    -7.11200
C    -2.83600   6.34900    -7.64400
H    -2.29900   7.14300    -7.12500
C    -1.97700   5.09000    -7.71800
H    -1.72700   4.75800    -6.70800
H    -2.53000   4.30000    -8.23200
C    -0.66000   5.34000    -8.50300
O    0.36000    5.61600    -7.83500
O    -0.71200   5.22200    -9.73700
H    -3.07400   6.69600    -8.64800
H    2.51700    6.86500    -17.81500
C    2.97100    6.77000    -16.83300
H    3.01300    7.74100    -16.34800
H    2.36100    6.10800    -16.22000
C    4.37600    6.20000    -16.92600
O    5.27800    6.53000    -16.17900
N    4.54700    5.28600    -17.90600
H    3.75900    5.02100    -18.47500
C    5.80000    4.60800    -18.17200
H    6.50800    4.95400    -17.41800
C    5.65500    3.08700    -18.13600
H    4.93000    2.78700    -18.89900
H    6.61900    2.65000    -18.40700
C    5.21300    2.52400    -16.78000
H    4.27600    3.01100    -16.48700
C    4.96000    1.02300    -16.91000
H    5.87900    0.51200    -17.19400
H    4.61600    0.60600    -15.96600
H    4.20600    0.81800    -17.66700
C    6.25200    2.78800    -15.69500
H    6.35100    3.85100    -15.49800
H    5.95200    2.30500    -14.77000
H    7.22300    2.39400    -15.98900
H    6.16900    4.91300    -19.15900
H    11.44400   6.55200    -16.54400
C    11.25000   6.05400    -15.59600
H    11.41400   6.76500    -14.78900
C    9.81400    5.53200    -15.53900
H    9.68100    4.79500    -16.34200
C    9.55400    4.85400    -14.19800
H    9.65200    5.58300    -13.39600
H    8.54900    4.44200    -14.16200
H    10.26400   4.04800    -14.02400
C    8.82200    6.67200    -15.74400
H    9.01000    7.19000    -16.68300
H    7.79800    6.30900    -15.75400
H    8.91300    7.38500    -14.92900
H    11.96200   5.23900    -15.48400
H    9.18300    2.96800    -2.69300
C    10.07900   2.61700    -3.20000
H    10.85200   2.43300    -2.45600
C    9.77700    1.34200    -3.99000
H    10.69300   1.00000    -4.48000
H    9.45400    0.56200    -3.29600
C    8.70500    1.56800    -5.02300
C    9.03500    1.86700    -6.33800
H    10.07800   1.93200    -6.62400
C    8.04800    2.07200    -7.28700
H    8.32200    2.29500    -8.30800
C    6.71300    1.98400    -6.93000
H    5.93800    2.14100    -7.66600
C    6.37000    1.68800    -5.62200
H    5.33200    1.60000    -5.34400
C    7.36200    1.48500    -4.67800
H    7.08900    1.24800    -3.65800
H    10.42000   3.40400    -3.86900
H    11.27700   5.58300    -8.31100
C    10.75400   6.36500    -8.85900
H    11.34800   6.63000    -9.73100
C    9.36800    5.87900    -9.28000
H    8.88000    6.67200    -9.85900
C    9.48600    4.64700    -10.17300
H    9.95800    3.83000    -9.63000
H    8.50200    4.32200    -10.50400
H    10.08500   4.86900    -11.05300
C    8.51400    5.57400    -8.05300
H    8.40300    6.46000    -7.43300
H    7.52100    5.24200    -8.34800
H    8.96800    4.78800    -7.45200
H    10.67700   7.23700    -8.21100
H    12.11600   9.83900    -13.17700
C    11.78100   10.57800   -13.90200
H    12.56100   10.70500   -14.64900
C    10.48300   10.11900   -14.55500
H    10.14900   10.86600   -15.28200
H    10.65900   9.18500    -15.09200
C    9.36500    9.90800    -13.54400
H    9.18400    10.81300   -12.96600
H    8.43800    9.61500    -14.03800
S    9.77700    8.59100    -12.33600
C    9.72100    9.55200    -10.79900
H    8.71300    9.92900    -10.64800
H    9.98800    8.87600    -9.99300
H    10.43600   10.36900   -10.85000
H    11.63900   11.52800   -13.38900
H    10.00900   11.32500   -6.57000
C    9.38100    10.61900   -6.02800
H    9.06500    11.09300   -5.10300
C    8.18300    10.21300   -6.87500
H    7.55500    11.08700   -7.06100
H    8.54100    9.85300    -7.84300
C    7.32900    9.11500    -6.23500
H    7.97700    8.25500    -6.02200
C    6.69700    9.57400    -4.92600
H    6.11700    10.47900   -5.08900
H    6.02800    8.80200    -4.55800
H    7.44800    9.76900    -4.16400
C    6.23600    8.68100    -7.20700
H    6.67000    8.32100    -8.13800
H    5.63400    7.88500    -6.78000
H    5.57700    9.51800    -7.42700
H    9.98400    9.74800    -5.77900
H    6.92500    6.72300    -3.16800
C    6.01000    6.23400    -2.84000
H    5.18500    6.93000    -2.95700
C    5.74900    4.97400    -3.66300
H    6.60100    4.29300    -3.55000
C    4.49100    4.26400    -3.17000
H    3.63300    4.92700    -3.25700
H    4.30200    3.37000    -3.76000
H    4.59500    3.97300    -2.12500
C    5.60900    5.32400    -5.14100
H    6.50800    5.81700    -5.50500
H    5.45500    4.42300    -5.72900
H    4.76100    5.99000    -5.29200
H    6.11100    5.99200    -1.78300
H    3.11300    0.53200    -2.38800
C    2.13500    0.99800    -2.48400
H    2.28700    2.05700    -2.67700
C    1.36000    0.36700    -3.62700
H    1.18600    -0.69700   -3.45300
H    0.38500    0.84400    -3.74500
C    2.10700    0.50600    -4.94200
O    3.13500    1.12500    -5.06400
O    1.49900    -0.12800   -5.92000
H    2.01300    -0.05800   -6.80300
H    1.59700    0.88400    -1.54500
H    -3.09900   -2.16600   -4.94200
C    -3.39400   -1.24500   -5.43900
H    -4.34600   -0.91500   -5.02700
C    -2.32900   -0.16900   -5.25200
H    -2.23000   0.07000    -4.18800
H    -1.36400   -0.54100   -5.60100
C    -2.67700   1.10900    -6.00300
H    -3.69500   1.42600    -5.77300
H    -1.98900   1.91800    -5.76100
S    -2.61800   0.90100    -7.81700
C    -0.87000   1.27900    -8.11300
H    -0.25000   0.65000    -7.48200
H    -0.67500   1.05900    -9.15800
H    -0.68700   2.33300    -7.92300
H    -3.52900   -1.44600   -6.49900
H    -1.24100   4.24100    -4.45100
C    -0.20600   4.36300    -4.13400
H    -0.08100   3.84000    -3.18500
C    0.74800    3.82000    -5.18800
H    0.66100    4.38900    -6.11100
H    1.77900    3.87700    -4.84500
H    0.52600    2.77700    -5.40500
H    -0.03700   5.42400    -3.96500
H    1.33800    9.60000    -2.33000
C    2.37000    9.92800    -2.43200
H    2.77000    10.13300   -1.44000
C    3.20200    8.85600    -3.13500
H    4.23800    9.20400    -3.18500
H    3.17500    7.94100    -2.53700
C    2.71000    8.54800    -4.51500
C    2.09200    7.39900    -4.93100
H    1.86400    6.52100    -4.35800
N    1.78000    7.46200    -6.25500
H    1.27400    6.75800    -6.79400
C    2.19400    8.66500    -6.73300
C    2.11200    9.19200    -8.01600
H    1.65400    8.62300    -8.81100
C    2.63200    10.45000   -8.22700
H    2.59200    10.88900   -9.21300
C    3.21600    11.17700   -7.18400
H    3.60900    12.16400   -7.39100
C    3.29700    10.66400   -5.90900
H    3.74800    11.24000   -5.11200
C    2.78900    9.38800    -5.66500
H    2.37600    10.85100   -3.00700
O    1.12100    4.97500    -11.61700
H    0.48400    4.82800    -12.31800
H    0.54700    5.11600    -10.81500
$end

$rem
JOBTYPE  SP
METHOD  WB97X-V
BASIS  6-31G(D)
SYMMETRY  FALSE
SYM_IGNORE  TRUE
MEM_TOTAL  64000
MEM_STATIC  4000
BASIS_LIN_DEP_THRESH  6
THRESH  14
SCF_CONVERGENCE  8
FD_MAT_VEC_PROD  FALSE
XC_GRID  000075000302
NL_GRID  1
MAX_SCF_CYCLES  200
ENV_METHOD  WB97X-V
GEN_SCFMAN_EMBED  TRUE
SPADE_PARTITION  TRUE
EMBEDDING_EARLY_STOP  TRUE
$end

--------------------------------------------------------------
 ----------------------------------------------------------------
             Standard Nuclear Orientation (Angstroms)
    I     Atom           X                Y                Z
 ----------------------------------------------------------------
    1      C       2.9260000000     1.0130000000    -8.8570000000
    2      O       2.6390000000    -0.0210000000    -8.2400000000
    3      C       3.0590000000     2.2990000000    -8.2500000000
    4      C       3.3320000000     3.4360000000    -8.9400000000
    5      C       3.6360000000     3.4060000000   -10.4060000000
    6      C       4.0850000000     2.0060000000   -10.8310000000
    7      C       3.0910000000     0.9630000000   -10.3540000000
    8      C       3.2180000000     4.7490000000    -8.2660000000
    9      C       4.1330000000     5.8450000000    -8.8050000000
   10      C       4.1270000000     5.8540000000   -10.3310000000
   11      C       4.6500000000     4.4920000000   -10.8170000000
   12      C       4.9970000000     6.9680000000   -10.9000000000
   13      C       5.0710000000     6.9320000000   -12.4330000000
   14      C       5.7220000000     5.6190000000   -12.8470000000
   15      C       4.8900000000     4.4470000000   -12.3320000000
   16      C       4.6090000000     8.4210000000   -10.6270000000
   17      C       5.4230000000     9.2110000000   -11.6680000000
   18      C       5.9270000000     8.1840000000   -12.7100000000
   19      C       3.7100000000     7.0930000000   -13.1160000000
   20      O       5.8310000000     8.7140000000   -14.0130000000
   21      H       2.8790000000     2.3530000000    -7.1850000000
   22      H       2.6920000000     3.6530000000   -10.9170000000
   23      H       5.0700000000     1.7940000000   -10.4050000000
   24      H       4.1650000000     1.9450000000   -11.9170000000
   25      H       2.1070000000     1.1690000000   -10.7890000000
   26      H       3.3880000000    -0.0450000000   -10.6500000000
   27      H       3.3550000000     4.6310000000    -7.1890000000
   28      H       2.1680000000     5.0710000000    -8.4000000000
   29      H       5.1540000000     5.6830000000    -8.4450000000
   30      H       3.7980000000     6.8090000000    -8.4230000000
   31      H       3.0950000000     5.9750000000   -10.6650000000
   32      H       5.6070000000     4.2930000000   -10.3150000000
   33      H       6.0180000000     6.8170000000   -10.5230000000
   34      H       6.7320000000     5.5650000000   -12.4280000000
   35      H       5.8070000000     5.5620000000   -13.9340000000
   36      H       3.9250000000     4.4370000000   -12.8400000000
   37      H       5.4160000000     3.5250000000   -12.5860000000
   38      H       4.8360000000     8.7340000000    -9.6110000000
   39      H       3.5390000000     8.5510000000   -10.7830000000
   40      H       6.2630000000     9.7270000000   -11.2030000000
   41      H       4.8200000000     9.9610000000   -12.1790000000
   42      H       6.9820000000     7.9330000000   -12.5070000000
   43      H       3.3790000000     8.1270000000   -13.0730000000
   44      H       3.8040000000     6.8130000000   -14.1620000000
   45      H       2.9510000000     6.4680000000   -12.6600000000
   46      H       5.7570000000     7.9770000000   -14.6370000000
   47      H       6.1650000000    -6.1010000000    -8.6840000000
   48      C       6.1340000000    -5.7240000000    -9.7040000000
   49      H       5.8920000000    -6.5530000000   -10.3650000000
   50      C       5.0920000000    -4.6160000000    -9.8110000000
   51      H       4.1150000000    -5.0190000000    -9.5260000000
   52      H       5.3310000000    -3.8310000000    -9.0870000000
   53      C       4.9590000000    -3.9730000000   -11.1670000000
   54      C       5.6710000000    -4.3810000000   -12.2830000000
   55      H       6.3640000000    -5.2060000000   -12.2220000000
   56      C       5.5180000000    -3.7410000000   -13.5020000000
   57      H       6.0870000000    -4.0720000000   -14.3630000000
   58      C       4.6430000000    -2.6730000000   -13.6260000000
   59      O       4.4780000000    -1.9990000000   -14.8030000000
   60      H       5.0560000000    -2.3800000000   -15.4750000000
   61      C       3.9100000000    -2.2620000000   -12.5170000000
   62      H       3.2240000000    -1.4370000000   -12.6270000000
   63      C       4.0720000000    -2.9070000000   -11.3090000000
   64      H       3.5070000000    -2.5750000000   -10.4500000000
   65      H       7.1240000000    -5.3490000000    -9.9560000000
   66      H       8.0270000000    -2.1730000000   -13.4130000000
   67      C       7.9310000000    -1.0980000000   -13.5440000000
   68      H       6.9370000000    -0.8840000000   -13.9280000000
   69      C       8.1380000000    -0.3770000000   -12.2130000000
   70      H       9.1530000000    -0.5910000000   -11.8560000000
   71      C       7.9960000000     1.1320000000   -12.3930000000
   72      H       6.9870000000     1.3760000000   -12.7170000000
   73      H       8.1860000000     1.6500000000   -11.4560000000
   74      H       8.6950000000     1.5060000000   -13.1380000000
   75      C       7.1390000000    -0.8800000000   -11.1740000000
   76      H       7.2390000000    -1.9530000000   -11.0290000000
   77      H       7.2970000000    -0.3870000000   -10.2180000000
   78      H       6.1220000000    -0.6790000000   -11.5020000000
   79      H       8.6640000000    -0.7680000000   -14.2780000000
   80      H      -3.7670000000     6.1520000000    -7.1120000000
   81      C      -2.8360000000     6.3490000000    -7.6440000000
   82      H      -2.2990000000     7.1430000000    -7.1250000000
   83      C      -1.9770000000     5.0900000000    -7.7180000000
   84      H      -1.7270000000     4.7580000000    -6.7080000000
   85      H      -2.5300000000     4.3000000000    -8.2320000000
   86      C      -0.6600000000     5.3400000000    -8.5030000000
   87      O       0.3600000000     5.6160000000    -7.8350000000
   88      O      -0.7120000000     5.2220000000    -9.7370000000
   89      H      -3.0740000000     6.6960000000    -8.6480000000
   90      H       2.5170000000     6.8650000000   -17.8150000000
   91      C       2.9710000000     6.7700000000   -16.8330000000
   92      H       3.0130000000     7.7410000000   -16.3480000000
   93      H       2.3610000000     6.1080000000   -16.2200000000
   94      C       4.3760000000     6.2000000000   -16.9260000000
   95      O       5.2780000000     6.5300000000   -16.1790000000
   96      N       4.5470000000     5.2860000000   -17.9060000000
   97      H       3.7590000000     5.0210000000   -18.4750000000
   98      C       5.8000000000     4.6080000000   -18.1720000000
   99      H       6.5080000000     4.9540000000   -17.4180000000
  100      C       5.6550000000     3.0870000000   -18.1360000000
  101      H       4.9300000000     2.7870000000   -18.8990000000
  102      H       6.6190000000     2.6500000000   -18.4070000000
  103      C       5.2130000000     2.5240000000   -16.7800000000
  104      H       4.2760000000     3.0110000000   -16.4870000000
  105      C       4.9600000000     1.0230000000   -16.9100000000
  106      H       5.8790000000     0.5120000000   -17.1940000000
  107      H       4.6160000000     0.6060000000   -15.9660000000
  108      H       4.2060000000     0.8180000000   -17.6670000000
  109      C       6.2520000000     2.7880000000   -15.6950000000
  110      H       6.3510000000     3.8510000000   -15.4980000000
  111      H       5.9520000000     2.3050000000   -14.7700000000
  112      H       7.2230000000     2.3940000000   -15.9890000000
  113      H       6.1690000000     4.9130000000   -19.1590000000
  114      H      11.4440000000     6.5520000000   -16.5440000000
  115      C      11.2500000000     6.0540000000   -15.5960000000
  116      H      11.4140000000     6.7650000000   -14.7890000000
  117      C       9.8140000000     5.5320000000   -15.5390000000
  118      H       9.6810000000     4.7950000000   -16.3420000000
  119      C       9.5540000000     4.8540000000   -14.1980000000
  120      H       9.6520000000     5.5830000000   -13.3960000000
  121      H       8.5490000000     4.4420000000   -14.1620000000
  122      H      10.2640000000     4.0480000000   -14.0240000000
  123      C       8.8220000000     6.6720000000   -15.7440000000
  124      H       9.0100000000     7.1900000000   -16.6830000000
  125      H       7.7980000000     6.3090000000   -15.7540000000
  126      H       8.9130000000     7.3850000000   -14.9290000000
  127      H      11.9620000000     5.2390000000   -15.4840000000
  128      H       9.1830000000     2.9680000000    -2.6930000000
  129      C      10.0790000000     2.6170000000    -3.2000000000
  130      H      10.8520000000     2.4330000000    -2.4560000000
  131      C       9.7770000000     1.3420000000    -3.9900000000
  132      H      10.6930000000     1.0000000000    -4.4800000000
  133      H       9.4540000000     0.5620000000    -3.2960000000
  134      C       8.7050000000     1.5680000000    -5.0230000000
  135      C       9.0350000000     1.8670000000    -6.3380000000
  136      H      10.0780000000     1.9320000000    -6.6240000000
  137      C       8.0480000000     2.0720000000    -7.2870000000
  138      H       8.3220000000     2.2950000000    -8.3080000000
  139      C       6.7130000000     1.9840000000    -6.9300000000
  140      H       5.9380000000     2.1410000000    -7.6660000000
  141      C       6.3700000000     1.6880000000    -5.6220000000
  142      H       5.3320000000     1.6000000000    -5.3440000000
  143      C       7.3620000000     1.4850000000    -4.6780000000
  144      H       7.0890000000     1.2480000000    -3.6580000000
  145      H      10.4200000000     3.4040000000    -3.8690000000
  146      H      11.2770000000     5.5830000000    -8.3110000000
  147      C      10.7540000000     6.3650000000    -8.8590000000
  148      H      11.3480000000     6.6300000000    -9.7310000000
  149      C       9.3680000000     5.8790000000    -9.2800000000
  150      H       8.8800000000     6.6720000000    -9.8590000000
  151      C       9.4860000000     4.6470000000   -10.1730000000
  152      H       9.9580000000     3.8300000000    -9.6300000000
  153      H       8.5020000000     4.3220000000   -10.5040000000
  154      H      10.0850000000     4.8690000000   -11.0530000000
  155      C       8.5140000000     5.5740000000    -8.0530000000
  156      H       8.4030000000     6.4600000000    -7.4330000000
  157      H       7.5210000000     5.2420000000    -8.3480000000
  158      H       8.9680000000     4.7880000000    -7.4520000000
  159      H      10.6770000000     7.2370000000    -8.2110000000
  160      H      12.1160000000     9.8390000000   -13.1770000000
  161      C      11.7810000000    10.5780000000   -13.9020000000
  162      H      12.5610000000    10.7050000000   -14.6490000000
  163      C      10.4830000000    10.1190000000   -14.5550000000
  164      H      10.1490000000    10.8660000000   -15.2820000000
  165      H      10.6590000000     9.1850000000   -15.0920000000
  166      C       9.3650000000     9.9080000000   -13.5440000000
  167      H       9.1840000000    10.8130000000   -12.9660000000
  168      H       8.4380000000     9.6150000000   -14.0380000000
  169      S       9.7770000000     8.5910000000   -12.3360000000
  170      C       9.7210000000     9.5520000000   -10.7990000000
  171      H       8.7130000000     9.9290000000   -10.6480000000
  172      H       9.9880000000     8.8760000000    -9.9930000000
  173      H      10.4360000000    10.3690000000   -10.8500000000
  174      H      11.6390000000    11.5280000000   -13.3890000000
  175      H      10.0090000000    11.3250000000    -6.5700000000
  176      C       9.3810000000    10.6190000000    -6.0280000000
  177      H       9.0650000000    11.0930000000    -5.1030000000
  178      C       8.1830000000    10.2130000000    -6.8750000000
  179      H       7.5550000000    11.0870000000    -7.0610000000
  180      H       8.5410000000     9.8530000000    -7.8430000000
  181      C       7.3290000000     9.1150000000    -6.2350000000
  182      H       7.9770000000     8.2550000000    -6.0220000000
  183      C       6.6970000000     9.5740000000    -4.9260000000
  184      H       6.1170000000    10.4790000000    -5.0890000000
  185      H       6.0280000000     8.8020000000    -4.5580000000
  186      H       7.4480000000     9.7690000000    -4.1640000000
  187      C       6.2360000000     8.6810000000    -7.2070000000
  188      H       6.6700000000     8.3210000000    -8.1380000000
  189      H       5.6340000000     7.8850000000    -6.7800000000
  190      H       5.5770000000     9.5180000000    -7.4270000000
  191      H       9.9840000000     9.7480000000    -5.7790000000
  192      H       6.9250000000     6.7230000000    -3.1680000000
  193      C       6.0100000000     6.2340000000    -2.8400000000
  194      H       5.1850000000     6.9300000000    -2.9570000000
  195      C       5.7490000000     4.9740000000    -3.6630000000
  196      H       6.6010000000     4.2930000000    -3.5500000000
  197      C       4.4910000000     4.2640000000    -3.1700000000
  198      H       3.6330000000     4.9270000000    -3.2570000000
  199      H       4.3020000000     3.3700000000    -3.7600000000
  200      H       4.5950000000     3.9730000000    -2.1250000000
  201      C       5.6090000000     5.3240000000    -5.1410000000
  202      H       6.5080000000     5.8170000000    -5.5050000000
  203      H       5.4550000000     4.4230000000    -5.7290000000
  204      H       4.7610000000     5.9900000000    -5.2920000000
  205      H       6.1110000000     5.9920000000    -1.7830000000
  206      H       3.1130000000     0.5320000000    -2.3880000000
  207      C       2.1350000000     0.9980000000    -2.4840000000
  208      H       2.2870000000     2.0570000000    -2.6770000000
  209      C       1.3600000000     0.3670000000    -3.6270000000
  210      H       1.1860000000    -0.6970000000    -3.4530000000
  211      H       0.3850000000     0.8440000000    -3.7450000000
  212      C       2.1070000000     0.5060000000    -4.9420000000
  213      O       3.1350000000     1.1250000000    -5.0640000000
  214      O       1.4990000000    -0.1280000000    -5.9200000000
  215      H       2.0130000000    -0.0580000000    -6.8030000000
  216      H       1.5970000000     0.8840000000    -1.5450000000
  217      H      -3.0990000000    -2.1660000000    -4.9420000000
  218      C      -3.3940000000    -1.2450000000    -5.4390000000
  219      H      -4.3460000000    -0.9150000000    -5.0270000000
  220      C      -2.3290000000    -0.1690000000    -5.2520000000
  221      H      -2.2300000000     0.0700000000    -4.1880000000
  222      H      -1.3640000000    -0.5410000000    -5.6010000000
  223      C      -2.6770000000     1.1090000000    -6.0030000000
  224      H      -3.6950000000     1.4260000000    -5.7730000000
  225      H      -1.9890000000     1.9180000000    -5.7610000000
  226      S      -2.6180000000     0.9010000000    -7.8170000000
  227      C      -0.8700000000     1.2790000000    -8.1130000000
  228      H      -0.2500000000     0.6500000000    -7.4820000000
  229      H      -0.6750000000     1.0590000000    -9.1580000000
  230      H      -0.6870000000     2.3330000000    -7.9230000000
  231      H      -3.5290000000    -1.4460000000    -6.4990000000
  232      H      -1.2410000000     4.2410000000    -4.4510000000
  233      C      -0.2060000000     4.3630000000    -4.1340000000
  234      H      -0.0810000000     3.8400000000    -3.1850000000
  235      C       0.7480000000     3.8200000000    -5.1880000000
  236      H       0.6610000000     4.3890000000    -6.1110000000
  237      H       1.7790000000     3.8770000000    -4.8450000000
  238      H       0.5260000000     2.7770000000    -5.4050000000
  239      H      -0.0370000000     5.4240000000    -3.9650000000
  240      H       1.3380000000     9.6000000000    -2.3300000000
  241      C       2.3700000000     9.9280000000    -2.4320000000
  242      H       2.7700000000    10.1330000000    -1.4400000000
  243      C       3.2020000000     8.8560000000    -3.1350000000
  244      H       4.2380000000     9.2040000000    -3.1850000000
  245      H       3.1750000000     7.9410000000    -2.5370000000
  246      C       2.7100000000     8.5480000000    -4.5150000000
  247      C       2.0920000000     7.3990000000    -4.9310000000
  248      H       1.8640000000     6.5210000000    -4.3580000000
  249      N       1.7800000000     7.4620000000    -6.2550000000
  250      H       1.2740000000     6.7580000000    -6.7940000000
  251      C       2.1940000000     8.6650000000    -6.7330000000
  252      C       2.1120000000     9.1920000000    -8.0160000000
  253      H       1.6540000000     8.6230000000    -8.8110000000
  254      C       2.6320000000    10.4500000000    -8.2270000000
  255      H       2.5920000000    10.8890000000    -9.2130000000
  256      C       3.2160000000    11.1770000000    -7.1840000000
  257      H       3.6090000000    12.1640000000    -7.3910000000
  258      C       3.2970000000    10.6640000000    -5.9090000000
  259      H       3.7480000000    11.2400000000    -5.1120000000
  260      C       2.7890000000     9.3880000000    -5.6650000000
  261      H       2.3760000000    10.8510000000    -3.0070000000
  262      O       1.1210000000     4.9750000000   -11.6170000000
  263      H       0.4840000000     4.8280000000   -12.3180000000
  264      H       0.5470000000     5.1160000000   -10.8150000000
 ----------------------------------------------------------------
 Nuclear Repulsion Energy =       24094.24924738 hartrees
 There are      405 alpha and      405 beta electrons
 Requested basis set is 6-31G(d)
 There are 732 shells and 1849 basis functions

 Total QAlloc Memory Limit  64000 MB
 Mega-Array Size      3911 MB
 MEM_STATIC part      4000 MB

 A cutoff of  1.0D-14 yielded  79608 shell pairs
 There are    492366 function pairs
 Smallest overlap matrix eigenvalue = 3.42E-04

 Scale SEOQF with 1.000000e-02/1.000000e-02/1.000000e-03

 Standard Electronic Orientation quadrupole field applied
 Nucleus-field energy     =     0.0000002119 hartrees
 Guess from superposition of atomic densities
 Warning:  Energy on first SCF cycle will be non-variational
 SAD guess density has 809.000002 electrons

 -----------------------------------------------------------------------
  General SCF calculation program by
  Eric Jon Sundstrom, Paul Horn, Yuezhi Mao, Dmitri Zuev, Alec White,
  David Stuck, Shaama M.S., Shane Yost, Joonho Lee, David Small,
  Daniel Levine, Susi Lehtola, Hugh Burton, Evgeny Epifanovsky,
  Bang C. Huynh
 -----------------------------------------------------------------------
=================================================
        Doing projection-based embedding         
      F. Manby et al. JCTC, 8, 2564 (2012)       
=================================================

****************************************************
   Low-level SCF calculation for the whole system   
****************************************************
----------------------------------------------
 Summary of the low-level theory: 
 Exchange:     0.1670 Hartree-Fock + 1.0000 wB97X-V + LR-HF
 Correlation:  1.0000 wB97X-V
 Using Euler-Maclaurin-Lebedev (75,302) quadrature formula
 Nonlocal Correlation:  VV10 with C = 0.0100 and b = 6.00 and scale = 1.00000
 Grid used for NLC:  SG-1 standard quadrature
----------------------------------------------
 using 32 threads for integral computing
 -------------------------------------------------------
 OpenMP Integral computing Module                
 Release: version 1.0, May 2013, Q-Chem Inc. Pittsburgh 
 -------------------------------------------------------
 A restricted SCF calculation will be
 performed using DIIS
 SCF converges when DIIS error is below 1.0e-08
 ---------------------------------------
  Cycle       Energy         DIIS error
 ---------------------------------------
    1   -5062.1502803502      1.81e-02  
    2   -5032.4165662434      1.58e-03  
    3   -5032.7528256427      1.47e-03  
    4   -5033.4084613896      2.59e-04  
    5   -5033.4282729806      1.16e-04  
    6   -5033.4327597979      3.02e-05  
    7   -5033.4330804775      6.96e-06  
    8   -5033.4331083515      2.30e-06  
    9   -5033.4331124272      1.13e-06  
   10   -5033.4331134040      4.33e-07  
   11   -5033.4331135859      2.08e-07  
   12   -5033.4331136273      7.85e-08  
   13   -5033.4331136338      3.03e-08  
   14   -5033.4331136351      1.19e-08  
   15   -5033.4331136353      6.10e-09  Convergence criterion met
 ---------------------------------------
 SCF time:   CPU 53717.53s  wall 1790.00s 
 SCF   energy in the final basis set =    -5033.4331136353
 Total energy in the final basis set =    -5033.4331136353

****************************************************
             Start embedding calculation            
****************************************************
----------------------------------------------
 Summary of the high-level theory: 
 Exchange:     0.1670 Hartree-Fock + 1.0000 wB97X-V + LR-HF
 Correlation:  1.0000 wB97X-V
 Using Euler-Maclaurin-Lebedev (75,302) quadrature formula
 Nonlocal Correlation:  VV10 with C = 0.0100 and b = 6.00 and scale = 1.00000
 Grid used for NLC:  SG-1 standard quadrature
----------------------------------------------
Doing R-in-R Embedding Calculation
Number of fragments: 2
Embedded fragment(s): 1 
NOcc for each fragment
           75
          330
NBasis for each fragment
          352
         1497
Variational space of the embedded problem: 
NOcc (active)  = 75
NOcc (fixed)   = 330
NVir (total)   = 1444
Read converged orbitals from disk
=========================================================
       Doing SPADE partition for the orbital space       
     D. Claudino and N. Mayhall JCTC 15, 1053 (2019)     
=========================================================
SPADE singular values:
 1.0000 1.0000 1.0000 1.0000 1.0000 1.0000 1.0000 1.0000 1.0000 1.0000
 1.0000 1.0000 1.0000 1.0000 1.0000 1.0000 1.0000 1.0000 1.0000 1.0000
 1.0000 1.0000 1.0000 1.0000 1.0000 1.0000 1.0000 1.0000 1.0000 1.0000
 1.0000 1.0000 1.0000 1.0000 1.0000 1.0000 1.0000 1.0000 1.0000 1.0000
 1.0000 1.0000 1.0000 0.9999 0.9999 0.9999 0.9999 0.9999 0.9999 0.9999
 0.9998 0.9998 0.9997 0.9996 0.9995 0.9995 0.9994 0.9993 0.9993 0.9992
 0.9991 0.9991 0.9989 0.9988 0.9988 0.9986 0.9984 0.9983 0.9981 0.9981
 0.9977 0.9976 0.9969 0.9958 0.9664 0.1743 0.1482 0.1453 0.1085 0.0937
 0.0817 0.0760 0.0716 0.0661 0.0616 0.0557 0.0550 0.0536 0.0482 0.0462
 0.0375 0.0357 0.0350 0.0309 0.0293 0.0270 0.0262 0.0252 0.0240 0.0234
 0.0223 0.0204 0.0184 0.0168 0.0161 0.0156 0.0147 0.0145 0.0136 0.0133
 0.0121 0.0108 0.0105 0.0098 0.0094 0.0090 0.0085 0.0081 0.0079 0.0068
 0.0066 0.0063 0.0060 0.0056 0.0055 0.0050 0.0048 0.0046 0.0039 0.0037
 0.0036 0.0033 0.0032 0.0030 0.0029 0.0028 0.0025 0.0024 0.0022 0.0022
 0.0020 0.0019 0.0019 0.0018 0.0017 0.0017 0.0015 0.0014 0.0014 0.0013
 0.0012 0.0011 0.0011 0.0011 0.0011 0.0010 0.0010 0.0010 0.0010 0.0009
 0.0008 0.0008 0.0008 0.0008 0.0007 0.0007 0.0007 0.0007 0.0007 0.0006
 0.0006 0.0006 0.0006 0.0006 0.0006 0.0006 0.0006 0.0005 0.0005 0.0005
 0.0005 0.0005 0.0005 0.0005 0.0004 0.0004 0.0004 0.0004 0.0004 0.0004
 0.0004 0.0004 0.0003 0.0003 0.0003 0.0003 0.0003 0.0003 0.0003 0.0003
 0.0003 0.0003 0.0003 0.0002 0.0002 0.0002 0.0002 0.0002 0.0002 0.0002
 0.0002 0.0002 0.0002 0.0002 0.0002 0.0002 0.0002 0.0002 0.0002 0.0001
 0.0001 0.0001 0.0001 0.0001 0.0001 0.0001 0.0001 0.0001 0.0001 0.0001
 0.0001 0.0001 0.0001 0.0001 0.0001 0.0001 0.0001 0.0001 0.0001 0.0001
 0.0001 0.0001 0.0001 0.0001 0.0001 0.0001 0.0001 0.0001 0.0001 0.0001
 0.0001 0.0001 0.0001 0.0001 0.0001 0.0000 0.0000 0.0000 0.0000 0.0000
 0.0000 0.0000 0.0000 0.0000 0.0000 0.0000 0.0000 0.0000 0.0000 0.0000
 0.0000 0.0000 0.0000 0.0000 0.0000 0.0000 0.0000 0.0000 0.0000 0.0000
 0.0000 0.0000 0.0000 0.0000 0.0000 0.0000 0.0000 0.0000 0.0000 0.0000
 0.0000 0.0000 0.0000 0.0000 0.0000 0.0000 0.0000 0.0000 0.0000 0.0000
 0.0000 0.0000 0.0000 0.0000 0.0000 0.0000 0.0000 0.0000 0.0000 0.0000
 0.0000 0.0000 0.0000 0.0000 0.0000 0.0000 0.0000 0.0000 0.0000 0.0000
 0.0000 0.0000 0.0000 0.0000 0.0000 0.0000 0.0000 0.0000 0.0000 0.0000
 0.0000 0.0000 0.0000 0.0000 0.0000 0.0000 0.0000 0.0000 0.0000 0.0000
 0.0000 0.0000 0.0000 0.0000 0.0000 0.0000 0.0000 0.0000 0.0000 0.0000
 0.0000 0.0000
Early stop requested; no embedded SCF will be performed

 330 environment occs will be part of frozen-core in future post-HF calculations
 
 --------------------------------------------------------------
 
                    Orbital Energies (a.u.)
 --------------------------------------------------------------
 
 Alpha MOs
 -- Occupied --
-88.8007 -88.7778 -19.2146 -19.1699 -19.1567 -19.1309 -19.0957 -19.0602
-19.0571 -14.4096 -14.3565 -10.3436 -10.3235 -10.2908 -10.2695 -10.2515
-10.2408 -10.2404 -10.2377 -10.2362 -10.2332 -10.2321 -10.2313 -10.2295
-10.2281 -10.2273 -10.2265 -10.2245 -10.2224 -10.2214 -10.2182 -10.2170
-10.2168 -10.2158 -10.2145 -10.2139 -10.2131 -10.2126 -10.2105 -10.2095
-10.2093 -10.2092 -10.2084 -10.2069 -10.2063 -10.2057 -10.2034 -10.2034
-10.2031 -10.2012 -10.2009 -10.2006 -10.2003 -10.1995 -10.1992 -10.1986
-10.1978 -10.1968 -10.1966 -10.1956 -10.1943 -10.1938 -10.1934 -10.1930
-10.1919 -10.1917 -10.1880 -10.1874 -10.1863 -10.1857 -10.1851 -10.1837
-10.1825 -10.1819 -10.1792 -10.1779 -10.1734 -10.1728 -10.1717 -10.1650
-10.1630  -7.9663  -7.9447  -5.9244  -5.9202  -5.9128  -5.9027  -5.8984
 -5.8912  -1.1403  -1.1398  -1.1275  -1.0471  -1.0462  -1.0171  -1.0149
 -0.9968  -0.9497  -0.9415  -0.9210  -0.9013  -0.8890  -0.8855  -0.8745
 -0.8741  -0.8725  -0.8719  -0.8683  -0.8665  -0.8546  -0.8528  -0.8505
 -0.8450  -0.8389  -0.8328  -0.8289  -0.8116  -0.8018  -0.7993  -0.7978
 -0.7969  -0.7962  -0.7936  -0.7904  -0.7819  -0.7715  -0.7612  -0.7609
 -0.7517  -0.7494  -0.7480  -0.7446  -0.7433  -0.7421  -0.7411  -0.7375
 -0.7312  -0.7286  -0.7230  -0.7169  -0.7120  -0.7105  -0.6933  -0.6903
 -0.6856  -0.6770  -0.6743  -0.6691  -0.6652  -0.6522  -0.6511  -0.6506
 -0.6491  -0.6442  -0.6370  -0.6296  -0.6229  -0.6184  -0.6165  -0.6151
 -0.6100  -0.6094  -0.6083  -0.6080  -0.6012  -0.5957  -0.5834  -0.5658
 -0.5576  -0.5542  -0.5531  -0.5478  -0.5372  -0.5282  -0.5275  -0.5226
 -0.5195  -0.5184  -0.5166  -0.5156  -0.5149  -0.5144  -0.5130  -0.5110
 -0.5095  -0.5075  -0.5072  -0.5059  -0.5054  -0.5026  -0.4979  -0.4976
 -0.4960  -0.4944  -0.4941  -0.4919  -0.4893  -0.4849  -0.4833  -0.4813
 -0.4791  -0.4790  -0.4770  -0.4762  -0.4754  -0.4740  -0.4714  -0.4711
 -0.4709  -0.4707  -0.4679  -0.4679  -0.4673  -0.4667  -0.4660  -0.4636
 -0.4606  -0.4602  -0.4585  -0.4565  -0.4541  -0.4536  -0.4529  -0.4503
 -0.4487  -0.4477  -0.4465  -0.4456  -0.4447  -0.4418  -0.4398  -0.4389
 -0.4381  -0.4377  -0.4331  -0.4330  -0.4325  -0.4287  -0.4279  -0.4274
 -0.4269  -0.4247  -0.4231  -0.4218  -0.4195  -0.4187  -0.4171  -0.4169
 -0.4152  -0.4128  -0.4119  -0.4119  -0.4094  -0.4082  -0.4073  -0.4042
 -0.4027  -0.4014  -0.4008  -0.3993  -0.3961  -0.3943  -0.3931  -0.3922
 -0.3894  -0.3887  -0.3878  -0.3869  -0.3858  -0.3851  -0.3816  -0.3808
 -0.3797  -0.3794  -0.3789  -0.3785  -0.3783  -0.3780  -0.3773  -0.3766
 -0.3741  -0.3739  -0.3736  -0.3730  -0.3723  -0.3623  -0.3611  -0.3604
 -0.3597  -0.3592  -0.3587  -0.3582  -0.3574  -0.3570  -0.3563  -0.3560
 -0.3551  -0.3541  -0.3533  -0.3531  -0.3514  -0.3510  -0.3426  -0.3419
 -0.3398  -0.3390  -0.3380  -0.3376  -0.3366  -0.3322  -0.3317  -0.3296
 -0.3247  -0.3145  -0.3112  -0.3076  -0.2912  -0.2883  -0.2851  -0.2800
 -0.2636  -0.2548  -0.2512  -0.2510  -0.2366  -0.2313  -0.2236  -0.2196
 -0.2144  -0.1908 -11.8995 -10.2182 -10.2578 -10.0594  -9.8208 -10.0224
-10.4538  -9.9853  -9.9543 -10.5100 -10.7552 -12.4421 -11.9087  -9.9353
 -9.8368 -10.4365 -10.0565  -9.1731  -9.4896 -13.3949  -1.8632  -1.6730
 -2.0214  -1.5447  -0.9640  -1.3880  -1.2328  -1.0156  -1.0377  -1.2412
 -1.0942  -1.0122  -1.1377  -0.8515  -0.9787  -0.6507  -0.8135  -0.7359
 -0.7039  -1.1190  -0.6678  -0.5347  -0.5596  -0.4419  -0.5180  -0.5009
 -0.5158  -0.5367  -0.5289  -1.1081  -0.4795  -0.4571  -0.4444  -0.4787
 -0.4464  -0.4704  -0.4478  -0.4289  -0.4499  -0.4508  -0.6466  -0.4560
 -0.3580  -0.4284  -0.4213  -0.4219  -0.3916  -0.4004  -0.3989  -0.4014
 -0.3758  -0.3652  -0.3625  -0.2964  -0.4857
 -- Virtual --
  0.1168   0.1358   0.1521   0.1600   0.1610   0.1622   0.1679   0.1742
  0.1848   0.1969   0.1976   0.2015   0.2032   0.2044   0.2106   0.2115
  0.2136   0.2196   0.2216   0.2281   0.2305   0.2315   0.2349   0.2366
  0.2383   0.2417   0.2434   0.2457   0.2477   0.2485   0.2517   0.2536
  0.2549   0.2558   0.2570   0.2590   0.2595   0.2605   0.2616   0.2640
  0.2655   0.2673   0.2677   0.2693   0.2700   0.2721   0.2760   0.2781
  0.2796   0.2810   0.2824   0.2839   0.2849   0.2864   0.2873   0.2876
  0.2880   0.2910   0.2923   0.2925   0.2935   0.2950   0.2964   0.2971
  0.2976   0.2991   0.3009   0.3015   0.3026   0.3028   0.3035   0.3051
  0.3069   0.3074   0.3082   0.3096   0.3105   0.3127   0.3140   0.3148
  0.3157   0.3178   0.3180   0.3193   0.3198   0.3204   0.3214   0.3231
  0.3234   0.3246   0.3253   0.3262   0.3271   0.3282   0.3282   0.3306
  0.3316   0.3325   0.3330   0.3335   0.3336   0.3352   0.3366   0.3384
  0.3393   0.3402   0.3408   0.3415   0.3424   0.3430   0.3438   0.3448
  0.3450   0.3466   0.3472   0.3476   0.3493   0.3504   0.3511   0.3519
  0.3528   0.3538   0.3544   0.3560   0.3573   0.3582   0.3589   0.3595
  0.3608   0.3609   0.3628   0.3639   0.3647   0.3655   0.3664   0.3670
  0.3677   0.3681   0.3683   0.3708   0.3724   0.3739   0.3744   0.3756
  0.3771   0.3781   0.3784   0.3793   0.3807   0.3812   0.3822   0.3829
  0.3835   0.3842   0.3860   0.3868   0.3875   0.3889   0.3905   0.3917
  0.3929   0.3940   0.3957   0.3965   0.3973   0.3988   0.4004   0.4013
  0.4026   0.4030   0.4039   0.4053   0.4075   0.4096   0.4103   0.4106
  0.4120   0.4122   0.4129   0.4136   0.4157   0.4170   0.4174   0.4197
  0.4217   0.4237   0.4249   0.4270   0.4273   0.4287   0.4290   0.4312
  0.4324   0.4327   0.4341   0.4350   0.4359   0.4367   0.4376   0.4390
  0.4404   0.4416   0.4422   0.4443   0.4453   0.4464   0.4471   0.4485
  0.4509   0.4524   0.4546   0.4574   0.4587   0.4593   0.4605   0.4613
  0.4631   0.4660   0.4691   0.4716   0.4720   0.4734   0.4757   0.4778
  0.4794   0.4820   0.4839   0.4855   0.4896   0.4904   0.4929   0.4930
  0.4948   0.4974   0.4988   0.5046   0.5060   0.5072   0.5088   0.5102
  0.5156   0.5158   0.5167   0.5209   0.5225   0.5279   0.5314   0.5336
  0.5346   0.5407   0.5449   0.5469   0.5491   0.5541   0.5576   0.5627
  0.5706   0.5731   0.5777   0.5872   0.5913   0.6008   0.6062   0.6139
  0.6149   0.6152   0.6204   0.6236   0.6261   0.6302   0.6322   0.6371
  0.6380   0.6442   0.6502   0.6514   0.6528   0.6535   0.6588   0.6607
  0.6649   0.6656   0.6688   0.6706   0.6719   0.6736   0.6758   0.6770
  0.6784   0.6794   0.6816   0.6824   0.6850   0.6859   0.6878   0.6883
  0.6915   0.6926   0.6942   0.6966   0.6979   0.6982   0.7010   0.7021
  0.7036   0.7050   0.7057   0.7063   0.7066   0.7092   0.7116   0.7121
  0.7127   0.7145   0.7155   0.7180   0.7200   0.7218   0.7229   0.7240
  0.7256   0.7261   0.7289   0.7310   0.7319   0.7351   0.7356   0.7370
  0.7391   0.7402   0.7415   0.7439   0.7443   0.7474   0.7480   0.7507
  0.7524   0.7527   0.7562   0.7569   0.7603   0.7608   0.7615   0.7633
  0.7647   0.7650   0.7655   0.7671   0.7689   0.7710   0.7720   0.7729
  0.7741   0.7749   0.7767   0.7769   0.7791   0.7811   0.7824   0.7843
  0.7853   0.7871   0.7904   0.7920   0.7940   0.7953   0.7957   0.7977
  0.7988   0.8011   0.8028   0.8040   0.8049   0.8060   0.8067   0.8076
  0.8092   0.8127   0.8142   0.8149   0.8169   0.8190   0.8206   0.8220
  0.8234   0.8248   0.8277   0.8295   0.8313   0.8317   0.8336   0.8367
  0.8375   0.8381   0.8390   0.8418   0.8451   0.8456   0.8475   0.8489
  0.8524   0.8531   0.8535   0.8549   0.8561   0.8582   0.8589   0.8592
  0.8623   0.8626   0.8643   0.8659   0.8673   0.8692   0.8700   0.8711
  0.8722   0.8731   0.8742   0.8754   0.8779   0.8789   0.8795   0.8836
  0.8853   0.8859   0.8863   0.8900   0.8923   0.8947   0.8964   0.8989
  0.9004   0.9013   0.9026   0.9047   0.9057   0.9062   0.9086   0.9102
  0.9111   0.9116   0.9129   0.9139   0.9145   0.9151   0.9178   0.9186
  0.9193   0.9201   0.9225   0.9234   0.9250   0.9264   0.9289   0.9313
  0.9325   0.9337   0.9354   0.9358   0.9379   0.9402   0.9427   0.9437
  0.9457   0.9488   0.9501   0.9531   0.9550   0.9564   0.9602   0.9614
  0.9616   0.9636   0.9643   0.9649   0.9656   0.9663   0.9683   0.9713
  0.9746   0.9774   0.9788   0.9809   0.9819   0.9836   0.9841   0.9857
  0.9895   0.9904   0.9936   0.9990   0.9993   1.0012   1.0049   1.0064
  1.0094   1.0108   1.0117   1.0127   1.0152   1.0154   1.0176   1.0189
  1.0218   1.0222   1.0252   1.0262   1.0289   1.0292   1.0311   1.0337
  1.0351   1.0363   1.0370   1.0391   1.0403   1.0409   1.0416   1.0432
  1.0445   1.0459   1.0479   1.0485   1.0492   1.0499   1.0512   1.0521
  1.0527   1.0540   1.0550   1.0575   1.0578   1.0590   1.0593   1.0617
  1.0623   1.0637   1.0646   1.0653   1.0667   1.0670   1.0693   1.0713
  1.0734   1.0745   1.0756   1.0763   1.0774   1.0785   1.0805   1.0813
  1.0820   1.0828   1.0837   1.0839   1.0859   1.0876   1.0882   1.0896
  1.0914   1.0921   1.0930   1.0937   1.0947   1.0952   1.0961   1.0981
  1.0984   1.0998   1.1001   1.1014   1.1021   1.1035   1.1042   1.1050
  1.1064   1.1073   1.1077   1.1092   1.1103   1.1111   1.1117   1.1125
  1.1140   1.1150   1.1155   1.1165   1.1170   1.1173   1.1202   1.1205
  1.1228   1.1246   1.1253   1.1262   1.1269   1.1275   1.1278   1.1288
  1.1303   1.1313   1.1323   1.1343   1.1361   1.1370   1.1372   1.1398
  1.1415   1.1421   1.1428   1.1442   1.1453   1.1469   1.1479   1.1486
  1.1517   1.1527   1.1542   1.1556   1.1574   1.1580   1.1590   1.1604
  1.1627   1.1642   1.1644   1.1663   1.1670   1.1678   1.1695   1.1718
  1.1727   1.1733   1.1753   1.1766   1.1774   1.1806   1.1823   1.1839
  1.1852   1.1881   1.1886   1.1898   1.1909   1.1926   1.1942   1.1951
  1.1963   1.1987   1.2010   1.2017   1.2035   1.2043   1.2059   1.2063
  1.2075   1.2086   1.2116   1.2134   1.2167   1.2198   1.2211   1.2222
  1.2245   1.2268   1.2289   1.2307   1.2314   1.2335   1.2390   1.2418
  1.2430   1.2445   1.2474   1.2492   1.2500   1.2530   1.2547   1.2605
  1.2623   1.2625   1.2688   1.2702   1.2720   1.2736   1.2781   1.2791
  1.2822   1.2844   1.2880   1.2899   1.2914   1.2936   1.2960   1.2998
  1.3003   1.3025   1.3037   1.3062   1.3080   1.3121   1.3136   1.3155
  1.3175   1.3196   1.3216   1.3277   1.3329   1.3342   1.3366   1.3399
  1.3426   1.3458   1.3482   1.3505   1.3529   1.3540   1.3563   1.3590
  1.3606   1.3639   1.3642   1.3684   1.3721   1.3743   1.3759   1.3772
  1.3779   1.3825   1.3839   1.3857   1.3911   1.3948   1.3989   1.4038
  1.4053   1.4080   1.4097   1.4121   1.4142   1.4180   1.4186   1.4225
  1.4253   1.4265   1.4282   1.4316   1.4349   1.4379   1.4421   1.4446
  1.4465   1.4489   1.4518   1.4578   1.4629   1.4693   1.4730   1.4741
  1.4796   1.4834   1.4881   1.4927   1.4935   1.5002   1.5018   1.5050
  1.5085   1.5117   1.5133   1.5160   1.5173   1.5204   1.5229   1.5307
  1.5380   1.5445   1.5448   1.5474   1.5488   1.5550   1.5611   1.5638
  1.5669   1.5709   1.5735   1.5743   1.5787   1.5797   1.5863   1.5910
  1.5939   1.5980   1.5983   1.5998   1.6003   1.6032   1.6054   1.6060
  1.6080   1.6130   1.6145   1.6168   1.6181   1.6203   1.6213   1.6234
  1.6244   1.6267   1.6312   1.6322   1.6324   1.6341   1.6350   1.6357
  1.6379   1.6390   1.6410   1.6417   1.6443   1.6466   1.6486   1.6524
  1.6597   1.6619   1.6664   1.6680   1.6684   1.6695   1.6722   1.6743
  1.6779   1.6794   1.6822   1.6845   1.6892   1.6911   1.6946   1.6963
  1.6980   1.7007   1.7019   1.7034   1.7052   1.7078   1.7087   1.7107
  1.7164   1.7185   1.7189   1.7217   1.7246   1.7272   1.7313   1.7361
  1.7430   1.7467   1.7574   1.7681   1.7691   1.7738   1.7775   1.7809
  1.7858   1.7901   1.7977   1.8070   1.8130   1.8134   1.8186   1.8196
  1.8255   1.8273   1.8285   1.8377   1.8407   1.8445   1.8494   1.8500
  1.8517   1.8604   1.8659   1.8709   1.8749   1.8764   1.8780   1.8813
  1.8839   1.8856   1.8894   1.8926   1.8934   1.8959   1.8975   1.8995
  1.9013   1.9029   1.9043   1.9107   1.9114   1.9159   1.9171   1.9186
  1.9200   1.9250   1.9275   1.9306   1.9326   1.9334   1.9364   1.9374
  1.9393   1.9458   1.9526   1.9609   1.9616   1.9641   1.9652   1.9667
  1.9704   1.9776   1.9790   1.9805   1.9812   1.9830   1.9846   1.9859
  1.9884   1.9912   1.9934   1.9942   1.9989   2.0009   2.0011   2.0020
  2.0024   2.0047   2.0060   2.0081   2.0085   2.0101   2.0110   2.0155
  2.0173   2.0230   2.0242   2.0254   2.0294   2.0309   2.0351   2.0415
  2.0423   2.0432   2.0456   2.0496   2.0528   2.0558   2.0585   2.0591
  2.0646   2.0686   2.0745   2.0810   2.0820   2.0836   2.0881   2.0894
  2.0908   2.0932   2.0970   2.0984   2.0997   2.1013   2.1074   2.1105
  2.1109   2.1116   2.1139   2.1147   2.1179   2.1195   2.1218   2.1250
  2.1254   2.1275   2.1298   2.1318   2.1327   2.1343   2.1363   2.1378
  2.1391   2.1404   2.1411   2.1423   2.1433   2.1446   2.1471   2.1516
  2.1529   2.1541   2.1570   2.1581   2.1618   2.1625   2.1641   2.1657
  2.1671   2.1688   2.1707   2.1720   2.1725   2.1745   2.1764   2.1809
  2.1818   2.1873   2.1888   2.1909   2.1913   2.1940   2.1955   2.1977
  2.1983   2.2012   2.2025   2.2053   2.2061   2.2096   2.2107   2.2119
  2.2125   2.2147   2.2157   2.2195   2.2198   2.2211   2.2231   2.2258
  2.2286   2.2291   2.2316   2.2334   2.2361   2.2390   2.2431   2.2445
  2.2477   2.2497   2.2529   2.2565   2.2569   2.2597   2.2626   2.2665
  2.2692   2.2734   2.2813   2.2840   2.2870   2.2880   2.2911   2.2918
  2.2940   2.2964   2.2982   2.3011   2.3015   2.3023   2.3031   2.3091
  2.3126   2.3140   2.3158   2.3165   2.3202   2.3220   2.3236   2.3250
  2.3280   2.3294   2.3330   2.3362   2.3403   2.3440   2.3453   2.3467
  2.3481   2.3519   2.3539   2.3618   2.3633   2.3657   2.3660   2.3742
  2.3775   2.3807   2.3825   2.3863   2.3887   2.3928   2.3965   2.3973
  2.3978   2.4001   2.4026   2.4055   2.4065   2.4125   2.4178   2.4232
  2.4279   2.4299   2.4308   2.4318   2.4326   2.4360   2.4371   2.4389
  2.4406   2.4438   2.4449   2.4455   2.4461   2.4481   2.4499   2.4522
  2.4533   2.4545   2.4555   2.4590   2.4607   2.4619   2.4630   2.4647
  2.4657   2.4676   2.4700   2.4711   2.4716   2.4721   2.4766   2.4777
  2.4783   2.4817   2.4836   2.4840   2.4846   2.4879   2.4895   2.4911
  2.4918   2.4926   2.4941   2.4987   2.4993   2.5029   2.5040   2.5054
  2.5120   2.5136   2.5157   2.5167   2.5186   2.5205   2.5241   2.5242
  2.5290   2.5302   2.5330   2.5340   2.5351   2.5380   2.5391   2.5405
  2.5412   2.5455   2.5468   2.5473   2.5484   2.5512   2.5527   2.5547
  2.5560   2.5581   2.5651   2.5669   2.5731   2.5767   2.5811   2.5826
  2.5915   2.5923   2.5979   2.5983   2.6034   2.6086   2.6100   2.6153
  2.6175   2.6199   2.6221   2.6270   2.6338   2.6451   2.6464   2.6511
  2.6603   2.6638   2.6677   2.6730   2.6762   2.6765   2.6798   2.6805
  2.6829   2.6899   2.6925   2.6934   2.6988   2.7032   2.7039   2.7042
  2.7066   2.7084   2.7166   2.7169   2.7185   2.7228   2.7262   2.7281
  2.7292   2.7343   2.7345   2.7405   2.7502   2.7532   2.7541   2.7563
  2.7662   2.7685   2.7709   2.7718   2.7778   2.7810   2.7836   2.7918
  2.7955   2.7977   2.7995   2.8017   2.8044   2.8071   2.8161   2.8231
  2.8341   2.8369   2.8374   2.8418   2.8475   2.8516   2.8549   2.8571
  2.8597   2.8664   2.8677   2.8700   2.8727   2.8795   2.8809   2.8869
  2.8885   2.8892   2.8915   2.8934   2.8969   2.8995   2.9055   2.9089
  2.9149   2.9173   2.9195   2.9280   2.9285   2.9297   2.9334   2.9356
  2.9370   2.9412   2.9444   2.9484   2.9524   2.9571   2.9579   2.9626
  2.9657   2.9685   2.9730   2.9846   2.9900   2.9968   3.0060   3.0137
  3.0207   3.0285   3.0350   3.0527   3.0584   3.0625   3.0824   3.0899
  3.0940   3.0976   3.1021   3.1125   3.1155   3.1357   3.1524   3.1541
  3.1619   3.1651   3.1753   3.2192   3.2297   3.2333   3.2396   3.2434
  3.2568   3.2689   3.2847   3.2883   3.3199   3.3349   3.3359   3.3486
  3.3868   3.3989   3.4124   3.4844   3.6244   3.6434   3.6906   4.0800
  4.1331   4.1421   4.1544   4.1690   4.2128   4.2157   4.3051   4.3110
  4.3260   4.3283   4.3384   4.3404   4.3426   4.3457   4.3573   4.3597
  4.3609   4.3650   4.3672   4.3687   4.3736   4.3815   4.3891   4.3925
  4.3999   4.4008   4.4026   4.4067   4.4083   4.4096   4.4164   4.4256
  4.4313   4.4436   4.4501   4.4546   4.4662   4.4759   4.4855   4.4860
  4.4951   4.4994   4.4999   4.5139   4.5150   4.5158   4.5191   4.5216
  4.5304   4.5332   4.5415   4.5425   4.5514   4.5562   4.5588   4.5617
  4.5687   4.5729   4.5757   4.5817   4.5844   4.5956   4.5985   4.6085
  4.6128   4.6296   4.6306   4.6310   4.6466   4.6578   4.6646   4.6662
  4.6707   4.6770   4.6853   4.6989   4.7106   4.7137   4.7193   4.7426
  4.7584   4.7689   4.7736   4.7787   4.7833   4.8000   4.8046   4.8137
  4.8336   4.8345   4.8555   4.8717   4.9289   4.9398   4.9580   4.9598
  4.9843   5.0389   5.0508   5.0899
 --------------------------------------------------------------
 
          Ground-State Mulliken Net Atomic Charges

     Atom                 Charge (a.u.)
  ----------------------------------------
      1 C                     0.469401
      2 O                    -0.567234
      3 C                    -0.299426
      4 C                     0.169958
      5 C                    -0.216793
      6 C                    -0.310608
      7 C                    -0.387940
      8 C                    -0.407601
      9 C                    -0.305080
     10 C                    -0.156045
     11 C                    -0.122155
     12 C                    -0.122880
     13 C                    -0.022298
     14 C                    -0.307033
     15 C                    -0.307415
     16 C                    -0.310725
     17 C                    -0.325258
     18 C                     0.138272
     19 C                    -0.522897
     20 O                    -0.689640
     21 H                     0.186216
     22 H                     0.238614
     23 H                     0.150004
     24 H                     0.150724
     25 H                     0.184891
     26 H                     0.170461
     27 H                     0.159855
     28 H                     0.264474
     29 H                     0.139319
     30 H                     0.169784
     31 H                     0.197388
     32 H                     0.118390
     33 H                     0.119387
     34 H                     0.135464
     35 H                     0.153880
     36 H                     0.154932
     37 H                     0.138584
     38 H                     0.172442
     39 H                     0.149716
     40 H                     0.134447
     41 H                     0.153367
     42 H                     0.144993
     43 H                     0.152800
     44 H                     0.138371
     45 H                     0.204565
     46 H                     0.427770
     47 H                     0.159923
     48 C                    -0.479757
     49 H                     0.151956
     50 C                    -0.340840
     51 H                     0.164817
     52 H                     0.178689
     53 C                     0.103068
     54 C                    -0.200428
     55 H                     0.147225
     56 C                    -0.223822
     57 H                     0.134388
     58 C                     0.351152
     59 O                    -0.654381
     60 H                     0.412873
     61 C                    -0.193767
     62 H                     0.171951
     63 C                    -0.194782
     64 H                     0.181660
     65 H                     0.158111
     66 H                     0.143987
     67 C                    -0.460138
     68 H                     0.149741
     69 C                    -0.120841
     70 H                     0.131015
     71 C                    -0.461620
     72 H                     0.155095
     73 H                     0.156864
     74 H                     0.146060
     75 C                    -0.457223
     76 H                     0.146069
     77 H                     0.154953
     78 H                     0.157396
     79 H                     0.137189
     80 H                     0.132314
     81 C                    -0.469780
     82 H                     0.154083
     83 C                    -0.360194
     84 H                     0.137596
     85 H                     0.161877
     86 C                     0.559749
     87 O                    -0.576517
     88 O                    -0.591705
     89 H                     0.158295
     90 H                     0.161870
     91 C                    -0.572417
     92 H                     0.215996
     93 H                     0.205596
     94 C                     0.586840
     95 O                    -0.493750
     96 N                    -0.607318
     97 H                     0.334293
     98 C                    -0.162479
     99 H                     0.213747
    100 C                    -0.292063
    101 H                     0.131033
    102 H                     0.149052
    103 C                    -0.119171
    104 H                     0.144337
    105 C                    -0.468920
    106 H                     0.136607
    107 H                     0.181080
    108 H                     0.141078
    109 C                    -0.483225
    110 H                     0.183952
    111 H                     0.169976
    112 H                     0.141539
    113 H                     0.156545
    114 H                     0.138352
    115 C                    -0.462561
    116 H                     0.164421
    117 C                    -0.119249
    118 H                     0.120829
    119 C                    -0.474946
    120 H                     0.180874
    121 H                     0.162524
    122 H                     0.138384
    123 C                    -0.483041
    124 H                     0.134024
    125 H                     0.183776
    126 H                     0.164286
    127 H                     0.142271
    128 H                     0.163932
    129 C                    -0.457781
    130 H                     0.142789
    131 C                    -0.347258
    132 H                     0.147261
    133 H                     0.151788
    134 C                     0.117447
    135 C                    -0.203361
    136 H                     0.131219
    137 C                    -0.151298
    138 H                     0.149754
    139 C                    -0.168044
    140 H                     0.159334
    141 C                    -0.174411
    142 H                     0.223613
    143 C                    -0.203748
    144 H                     0.138647
    145 H                     0.159447
    146 H                     0.143450
    147 C                    -0.463425
    148 H                     0.153173
    149 C                    -0.130868
    150 H                     0.152862
    151 C                    -0.464821
    152 H                     0.137725
    153 H                     0.161889
    154 H                     0.156821
    155 C                    -0.472224
    156 H                     0.157745
    157 H                     0.168234
    158 H                     0.150861
    159 H                     0.144368
    160 H                     0.182993
    161 C                    -0.471559
    162 H                     0.147106
    163 C                    -0.284592
    164 H                     0.148624
    165 H                     0.162901
    166 C                    -0.471243
    167 H                     0.175132
    168 H                     0.228796
    169 S                     0.080491
    170 C                    -0.636830
    171 H                     0.202628
    172 H                     0.203755
    173 H                     0.177752
    174 H                     0.140754
    175 H                     0.142214
    176 C                    -0.468553
    177 H                     0.151925
    178 C                    -0.271667
    179 H                     0.139823
    180 H                     0.134827
    181 C                    -0.125693
    182 H                     0.131923
    183 C                    -0.470351
    184 H                     0.146610
    185 H                     0.174159
    186 H                     0.137596
    187 C                    -0.471439
    188 H                     0.140515
    189 H                     0.173750
    190 H                     0.170553
    191 H                     0.146876
    192 H                     0.144660
    193 C                    -0.466036
    194 H                     0.163265
    195 C                    -0.119709
    196 H                     0.134650
    197 C                    -0.473914
    198 H                     0.143885
    199 H                     0.182066
    200 H                     0.131402
    201 C                    -0.471031
    202 H                     0.146614
    203 H                     0.164357
    204 H                     0.163965
    205 H                     0.133447
    206 H                     0.159447
    207 C                    -0.465244
    208 H                     0.183848
    209 C                    -0.381565
    210 H                     0.171293
    211 H                     0.184330
    212 C                     0.591442
    213 O                    -0.469702
    214 O                    -0.624889
    215 H                     0.473063
    216 H                     0.139781
    217 H                     0.145361
    218 C                    -0.470730
    219 H                     0.137593
    220 C                    -0.283560
    221 H                     0.138072
    222 H                     0.179461
    223 C                    -0.450030
    224 H                     0.173334
    225 H                     0.194020
    226 S                     0.054564
    227 C                    -0.632135
    228 H                     0.203459
    229 H                     0.185791
    230 H                     0.215362
    231 H                     0.181524
    232 H                     0.150181
    233 C                    -0.470995
    234 H                     0.132574
    235 C                    -0.521053
    236 H                     0.226919
    237 H                     0.151418
    238 H                     0.134684
    239 H                     0.152831
    240 H                     0.153617
    241 C                    -0.456049
    242 H                     0.135654
    243 C                    -0.342659
    244 H                     0.153230
    245 H                     0.147472
    246 C                     0.009743
    247 C                    -0.006498
    248 H                     0.169656
    249 N                    -0.719065
    250 H                     0.420057
    251 C                     0.280951
    252 C                    -0.181219
    253 H                     0.176431
    254 C                    -0.177239
    255 H                     0.137012
    256 C                    -0.180540
    257 H                     0.123914
    258 C                    -0.206759
    259 H                     0.131138
    260 C                     0.030558
    261 H                     0.154938
    262 O                    -0.842726
    263 H                     0.371075
    264 H                     0.440449
  ----------------------------------------
  Sum of atomic charges =    -1.000000

 -----------------------------------------------------------------
                    Cartesian Multipole Moments
 -----------------------------------------------------------------
    Charge (ESU x 10^10)
                -4.8032
    Dipole Moment (Debye)
         X     -12.2771      Y     -26.0861      Z      35.6187
       Tot      45.8248
    Quadrupole Moments (Debye-Ang)
        XX    -777.5958     XY     -93.8987     YY    -862.2501
        XZ     101.0793     YZ     212.9678     ZZ    -891.6879
    Octopole Moments (Debye-Ang^2)
       XXX  -10491.2194    XXY   -3600.6914    XYY   -3848.1337
       YYY  -10221.4038    XXZ    7410.7788    XYZ     978.5020
       YYZ    7924.0592    XZZ   -4082.6236    YZZ   -4710.1784
       ZZZ   19190.0538
    Hexadecapole Moments (Debye-Ang^3)
      XXXX -154089.4309   XXXY  -53534.7652   XXYY  -52323.0432
      XYYY  -52483.6066   YYYY -153698.6796   XXXZ  110265.7151
      XXYZ   35106.7239   XYYZ   40145.4758   YYYZ   93695.5319
      XXZZ -107549.6454   XYZZ  -27609.6394   YYZZ -109745.2485
      XZZZ  106621.9822   YZZZ   94723.3199   ZZZZ -394663.4549
 -----------------------------------------------------------------
 Total job time:  1831.78s(wall), 54485.72s(cpu) 
 Fri Aug  9 14:27:53 2024

        *************************************************************
        *                                                           *
        *  Thank you very much for using Q-Chem.  Have a nice day.  *
        *                                                           *
        *************************************************************



Running Job 2 of 2 19nt_xstal_distance_cutoff3_xtb_optimized_spade_wb97x-v_631gd.in
qchem 19nt_xstal_distance_cutoff3_xtb_optimized_spade_wb97x-v_631gd.in_1418854.1 ./qchem1418854/ 1
srun -n 1 /cm/shared/apps/spack/0.17.3/cpu/b/opt/spack/linux-rocky8-zen2/gcc-10.2.0/qchem-6.0-rytxnwjazd34ekd2gqyi5ufsaimxsd3r/exe/qcprog.exe 19nt_xstal_distance_cutoff3_xtb_optimized_spade_wb97x-v_631gd.in_1418854.1 ./qchem1418854/

                  Welcome to Q-Chem
     A Quantum Leap Into The Future Of Chemistry


 Q-Chem 6.0, Q-Chem, Inc., Pleasanton, CA (2022)

 License issued to: University of California, San Diego (site)

 E. Epifanovsky,  A. T. B. Gilbert,  Xintian Feng,  Joonho Lee,  Yuezhi Mao,  
 N. Mardirossian,  P. Pokhilko,  A. White,  M. Wormit,  M. P. Coons,  
 A. L. Dempwolff,  Zhengting Gan,  D. Hait,  P. R. Horn,  L. D. Jacobson,  
 I. Kaliman,  J. Kussmann,  A. W. Lange,  Ka Un Lao,  D. S. Levine,  Jie Liu,  
 S. C. McKenzie,  A. F. Morrison,  K. Nanda,  F. Plasser,  D. R. Rehn,  
 M. L. Vidal,  Zhi-Qiang You,  Ying Zhu,  B. Alam,  B. Albrecht,  
 A. Aldossary,  E. Alguire,  J. H. Andersen,  V. Athavale,  D. Barton,  
 K. Begam,  A. Behn,  N. Bellonzi,  Y. A. Bernard,  E. J. Berquist,  
 H. Burton,  A. Carreras,  K. Carter-Fenk,  Romit Chakraborty,  
 Chandrima Chakravarty,  Junhan Chen,  A. D. Chien,  K. D. Closser,  
 V. Cofer-Shabica,  L. Cunha,  S. Dasgupta,  Jia Deng,  M. de Wergifosse,  
 M. Diedenhofen,  Hainam Do,  S. Ehlert,  Po-Tung Fang,  S. Fatehi,  
 Qingguo Feng,  T. Friedhoff,  B. Ganoe,  J. Gayvert,  Qinghui Ge,  
 G. Gidofalvi,  M. Goldey,  J. Gomes,  C. Gonzalez-Espinoza,  S. Gulania,  
 A. Gunina,  J. A. Gyamfi,  M. W. D. Hanson-Heine,  P. H. P. Harbach,  
 A. W. Hauser,  M. F. Herbst,  M. Hernandez Vera,  M. Hodecker,  
 Z. C. Holden,  S. Houck,  Xunkun Huang,  Kerwin Hui,  B. C. Huynh,  
 K. Ikeda,  M. Ivanov,  Hyunjun Ji,  Zuxin Jin,  Hanjie Jiang,  B. Kaduk,  
 S. Kaehler,  R. Kang,  K. Khistyaev,  Jaehoon Kim,  Yongbin Kim,  
 P. Klunzinger,  Z. Koczor-Benda,  Joong Hoon Koh,  D. Kosenkov,  
 Saikiran Kotaru,  L. Koulias,  T. Kowalczyk,  C. M. Krauter,  K. Kue,  
 A. Kunitsa,  T. Kus,  A. Landau,  K. V. Lawler,  D. Lefrancois,  S. Lehtola,  
 Rain Li,  Shaozhi Li,  Yi-Pei Li,  Jiashu Liang,  M. Liebenthal,  
 Hung-Hsuan Lin,  You-Sheng Lin,  Fenglai Liu,  Kuan-Yu Liu,  
 M. Loipersberger,  A. Luenser,  C. Malbon,  A. Manjanath,  P. Manohar,  
 E. Mansoor,  S. F. Manzer,  Shan-Ping Mao,  A. V. Marenich,  T. Markovich,  
 S. Mason,  F. Matz,  S. A. Maurer,  P. F. McLaughlin,  M. F. S. J. Menger,  
 J.-M. Mewes,  S. A. Mewes,  P. Morgante,  Mohammad Mostafanejad,  
 J. W. Mullinax,  K. J. Oosterbaan,  G. Paran,  V. Parravicini,  
 Alexander C. Paul,  Suranjan K. Paul,  F. Pavosevic,  Zheng Pei,  S. Prager,  
 E. I. Proynov,  E. Ramos,  B. Rana,  A. E. Rask,  A. Rettig,  R. M. Richard,  
 F. Rob,  E. Rossomme,  T. Scheele,  M. Scheurer,  M. Schneider,  
 P. E. Schneider,  N. Sergueev,  S. M. Sharada,  Hengyuan Shen,  
 W. Skomorowski,  D. W. Small,  C. J. Stein,  Yingli Su,  Yu-Chuan Su,  
 E. J. Sundstrom,  Zhen Tao,  J. Thirman,  Hung-Yi Tsai,  T. Tsuchimochi,  
 N. M. Tubman,  C. Utku,  S. P. Veccham,  O. Vydrov,  J. Wenzel,  
 Jonathan Wong,  J. Witte,  A. Yamada,  Chou-Hsun Yang,  Kun Yao,  
 S. Yeganeh,  S. R. Yost,  A. Zech,  F. Zeller,  Igor Ying Zhang,  
 Xing Zhang,  Yu Zhang,  D. Zuev,  A. Aspuru-Guzik,  A. T. Bell,  
 N. A. Besley,  K. B. Bravaya,  B. R. Brooks,  D. Casanova,  Jeng-Da Chai,  
 Hsing-Ta Chen,  S. Coriani,  C. J. Cramer,  A. E. DePrince, III,  
 R. A. DiStasio Jr.,  A. Dreuw,  B. D. Dunietz,  T. R. Furlani,  
 W. A. Goddard III,  S. Grimme,  S. Hammes-Schiffer,  T. Head-Gordon,  
 W. J. Hehre,  Chao-Ping Hsu,  T.-C. Jagau,  Yousung Jung,  A. Klamt,  
 Jing Kong,  D. S. Lambrecht,  Xiangyuan Li,  WanZhen Liang,  N. J. Mayhall,  
 C. W. McCurdy,  J. B. Neaton,  T. Neudecker,  C. Ochsenfeld,  
 J. A. Parkhill,  R. Peverati,  V. A. Rassolov,  Haisheng Ren,  Yihan Shao,  
 L. V. Slipchenko,  R. P. Steele,  J. E. Subotnik,  A. J. W. Thom,  
 A. Tkatchenko,  D. G. Truhlar,  T. Van Voorhis,  Fan Wang,  
 T. A. Wesolowski,  K. B. Whaley,  H. L. Woodcock III,  P. M. Zimmerman,  
 S. Faraji,  P. M. W. Gill,  M. Head-Gordon,  J. M. Herbert,  A. I. Krylov

 Contributors to earlier versions of Q-Chem not listed above: 
 R. D. Adamson,  B. Austin,  R. Baer,  J. Baker,  G. J. O. Beran,  
 K. Brandhorst,  S. T. Brown,  E. F. C. Byrd,  Arup K. Chakraborty,  
 G. K. L. Chan,  Chun-Min Chang,  Yunqing Chen,  C.-L. Cheng,  
 Siu Hung Chien,  D. M. Chipman,  D. L. Crittenden,  H. Dachsel,  
 R. J. Doerksen,  A. D. Dutoi,  R. G. Edgar,  J. Fosso-Tande,  
 L. Fusti-Molnar,  D. Ghosh,  A. Ghysels,  A. Golubeva-Zadorozhnaya,  
 J. Gonthier,  M. S. Gordon,  S. R. Gwaltney,  G. Hawkins,  J. E. Herr,  
 A. Heyden,  S. Hirata,  E. G. Hohenstein,  G. Kedziora,  F. J. Keil,  
 C. Kelley,  Jihan Kim,  R. A. King,  R. Z. Khaliullin,  P. P. Korambath,  
 W. Kurlancheek,  A. Laurent,  A. M. Lee,  M. S. Lee,  S. V. Levchenko,  
 Ching Yeh Lin,  D. Liotard,  E. Livshits,  R. C. Lochan,  I. Lotan,  
 L. A. Martinez-Martinez,  P. E. Maslen,  N. Nair,  D. P. O'Neill,  
 D. Neuhauser,  E. Neuscamman,  C. M. Oana,  R. Olivares-Amaya,  R. Olson,  
 T. M. Perrine,  B. Peters,  P. A. Pieniazek,  A. Prociuk,  Y. M. Rhee,  
 J. Ritchie,  M. A. Rohrdanz,  E. Rosta,  N. J. Russ,  H. F. Schaefer III,  
 M. W. Schmidt,  N. E. Schultz,  S. Sharma,  N. Shenvi,  C. D. Sherrill,  
 A. C. Simmonett,  A. Sodt,  T. Stein,  D. Stuck,  K. S. Thanthiriwatte,  
 V. Vanovschi,  L. Vogt,  Tao Wang,  A. Warshel,  M. A. Watson,  
 C. F. Williams,  Q. Wu,  X. Xu,  Jun Yang,  W. Zhang,  Yan Zhao

   Please cite Q-Chem as follows:
  "Software for the frontiers of quantum chemistry:
   An overview of developments in the Q-Chem 5 package"
   J. Chem. Phys. 155, 084801 (2021)
   https://doi.org/10.1063/5.0055522 (open access)

 Q-Chem 6.0.2 for Intel X86 EM64T Linux

 Parts of Q-Chem use Armadillo 9.900.5 (Nocturnal Misbehaviour).
 http://arma.sourceforge.net/

 Q-Chem begins on Fri Aug  9 14:28:08 2024  

 Host: 
0

     Scratch files written to ./qchem1418854//
 Dec722 |scratch|qcdevops|jenkins|workspace|build_RNUM    
 Processing $rem in /cm/shared/apps/spack/0.17.3/cpu/b/opt/spack/linux-rocky8-zen2/gcc-10.2.0/qchem-6.0-rytxnwjazd34ekd2gqyi5ufsaimxsd3r/config/preferences:
 Processing $rem in /home/hklem/.qchemrc:

 Checking the input file for inconsistencies... 	...done.

--------------------------------------------------------------
User input:
--------------------------------------------------------------

$molecule
-1 1
@C    2.92600    1.01300    -8.85700
@O    2.63900    -0.02100   -8.24000
@C    3.05900    2.29900    -8.25000
@C    3.33200    3.43600    -8.94000
@C    3.63600    3.40600    -10.40600
@C    4.08500    2.00600    -10.83100
@C    3.09100    0.96300    -10.35400
@C    3.21800    4.74900    -8.26600
@C    4.13300    5.84500    -8.80500
@C    4.12700    5.85400    -10.33100
@C    4.65000    4.49200    -10.81700
@C    4.99700    6.96800    -10.90000
@C    5.07100    6.93200    -12.43300
@C    5.72200    5.61900    -12.84700
@C    4.89000    4.44700    -12.33200
@C    4.60900    8.42100    -10.62700
@C    5.42300    9.21100    -11.66800
@C    5.92700    8.18400    -12.71000
@C    3.71000    7.09300    -13.11600
@O    5.83100    8.71400    -14.01300
@H    2.87900    2.35300    -7.18500
@H    2.69200    3.65300    -10.91700
@H    5.07000    1.79400    -10.40500
@H    4.16500    1.94500    -11.91700
@H    2.10700    1.16900    -10.78900
@H    3.38800    -0.04500   -10.65000
@H    3.35500    4.63100    -7.18900
@H    2.16800    5.07100    -8.40000
@H    5.15400    5.68300    -8.44500
@H    3.79800    6.80900    -8.42300
@H    3.09500    5.97500    -10.66500
@H    5.60700    4.29300    -10.31500
@H    6.01800    6.81700    -10.52300
@H    6.73200    5.56500    -12.42800
@H    5.80700    5.56200    -13.93400
@H    3.92500    4.43700    -12.84000
@H    5.41600    3.52500    -12.58600
@H    4.83600    8.73400    -9.61100
@H    3.53900    8.55100    -10.78300
@H    6.26300    9.72700    -11.20300
@H    4.82000    9.96100    -12.17900
@H    6.98200    7.93300    -12.50700
@H    3.37900    8.12700    -13.07300
@H    3.80400    6.81300    -14.16200
@H    2.95100    6.46800    -12.66000
@H    5.75700    7.97700    -14.63700
H    6.16500    -6.10100   -8.68400
C    6.13400    -5.72400   -9.70400
H    5.89200    -6.55300   -10.36500
C    5.09200    -4.61600   -9.81100
H    4.11500    -5.01900   -9.52600
H    5.33100    -3.83100   -9.08700
C    4.95900    -3.97300   -11.16700
C    5.67100    -4.38100   -12.28300
H    6.36400    -5.20600   -12.22200
C    5.51800    -3.74100   -13.50200
H    6.08700    -4.07200   -14.36300
C    4.64300    -2.67300   -13.62600
O    4.47800    -1.99900   -14.80300
H    5.05600    -2.38000   -15.47500
C    3.91000    -2.26200   -12.51700
H    3.22400    -1.43700   -12.62700
C    4.07200    -2.90700   -11.30900
H    3.50700    -2.57500   -10.45000
H    7.12400    -5.34900   -9.95600
H    8.02700    -2.17300   -13.41300
C    7.93100    -1.09800   -13.54400
H    6.93700    -0.88400   -13.92800
C    8.13800    -0.37700   -12.21300
H    9.15300    -0.59100   -11.85600
C    7.99600    1.13200    -12.39300
H    6.98700    1.37600    -12.71700
H    8.18600    1.65000    -11.45600
H    8.69500    1.50600    -13.13800
[...]
    3   0.2764865   1.2968673   0.4673262  -1.0500186  -0.2367626  -1.1017973
          151         152         153         154         155         156
    1   1.0813558   2.1626392  -0.9064180   2.1664715   0.4070515   0.6717878
    2  -0.8089935  -1.9317538  -0.8761298  -0.2141368   0.0758567   1.4817524
    3  -0.7213090   0.4159258  -1.0637508  -1.7142313   0.6668187   1.3980833
          157         158         159         160         161         162
    1  -1.2997089   1.7152065   1.8103525   2.5108611   1.8567416   2.5951479
    2  -0.3759701  -1.0345186   1.8690290  -0.0229757   1.4102585   1.2181809
    3  -0.4564809   1.4686771   1.4992654   0.6771297  -0.4944125  -1.7662074
          163         164         165         166         167         168
    1   0.7398795  -0.0664703   1.2507673  -0.4586225  -0.4878935  -1.9243749
    2   1.2820256   2.4835546  -0.3848188   1.8293759   3.3628217   1.0343493
    3  -1.7160350  -2.4596332  -2.3417187  -1.0246630   0.2167179  -1.7746495
          169         170         171         172         173         174
    1   0.7326289   0.7286555  -1.3175030   1.4855234   2.1096541   1.0919360
    2   0.1618443   1.6924274   2.1500632   0.2922187   2.8329159   2.9541617
    3  -0.3074075   0.8625230   0.4040610   1.5824461   0.4470315   0.3920092
          175         176         177         178         179         180
    1   2.2556734   1.7579866   0.8575857   0.9504641  -0.3133608   1.4680308
    2   2.4830487   1.5350249   2.2367380   1.7469137   3.3272223   0.9280149
    3  -0.2723919   0.8990350   2.3575110  -0.2676871  -0.4324170  -1.5928657
          181         182         183         184         185         186
    1   1.0033317   2.1797113   0.5085859  -0.3484608  -0.2313248   1.8542667
    2   0.6217111  -0.8500211   1.3986201   3.0999141   0.0093253   1.4770331
    3   0.5753883   1.1197509   1.7239429   1.0001308   1.9655544   2.7764482
          187         188         189         190         191         192
    1  -0.0472704   0.6498120  -0.6290633  -0.7089560   2.5993514   2.4346331
    2   0.6049572   0.1764068  -0.7026609   2.3104295  -0.2575593   1.3521980
    3  -0.6496950  -1.9567129   0.2745569  -0.9821914   1.2657400   1.3487023
          193         194         195         196         197         198
    1   0.8636781  -0.6408560   0.8456603   2.1855058  -0.4845572  -1.7258555
    2   0.8734188   1.6509444  -0.2352736  -1.1433538  -0.5506017   0.7521543
    3   2.1847974   1.8518761   1.5038644   1.7830868   1.9323594   1.6810945
          199         200         201         202         203         204
    1  -0.4024382   0.0441528   0.3665918   1.9634612  -0.1070512  -1.0104475
    2  -1.6904655  -0.8198398   0.1957371   0.8871394  -1.1996847   1.0278794
    3   0.7060944   3.6263457  -0.0383015  -0.1276193  -0.8109459  -0.0254848
          205         206         207         208         209         210
    1   0.8386375   1.5979702  -0.0812040  -0.0812676  -1.0977768  -0.9235662
    2   0.1367947  -1.6730180  -0.5952208   1.1652841  -1.3808183  -3.2194570
    3   3.6885384   2.1915338   2.3904894   1.8921582   1.7212559   1.7657011
          211         212         213         214         215         216
    1  -2.5421835  -0.5033694   1.2473326  -0.9617899   0.7591999  -1.1462950
    2  -0.1809424  -1.3166743  -0.2553880  -2.0607907  -1.3743818  -0.7902907
    3   1.4389614   0.9908180   0.4061277  -0.5335359  -2.4065590   3.3698680
          217         218         219         220         221         222
    1  -0.6920692  -1.6767558  -3.0413276  -0.7755400  -0.9218776   0.6627624
    2  -2.8034049  -1.6957654  -0.5680247  -1.1532770  -0.4725478  -2.0847267
    3   1.3379253   0.5843154   1.2740169   1.3188475   2.9927941   0.3197234
          223         224         225         226         227         228
    1  -1.7041630  -3.5099744  -0.4935239  -1.8784922   0.0746032   0.5826224
    2   0.1448441   0.5866042   1.2111504  -0.7619125  -0.5711972  -1.8406904
    3   1.1681165   1.2101864   1.4314545  -0.9603441  -0.9244777   0.2379192
          229         230         231         232         233         234
    1  -0.1362677  -0.2183454  -1.7329395  -3.0719660  -1.5362297  -1.0718045
    2  -1.0992701   1.0294390  -1.9558365   0.1114229   0.3358246  -0.5852586
    3  -2.6651694  -0.3614542  -1.4056145   0.9901528   1.7448327   3.1301843
          235         236         237         238         239         240
    1  -0.5083483  -0.6451234   0.9743458  -1.0658576  -1.2137340  -2.6380530
    2  -0.2242744   0.4630288  -0.0155020  -1.5794802   1.9027925   0.7068224
    3   0.5429472  -0.6972668   1.2321637   0.2360968   1.8609400   1.8533807
          241         242         243         244         245         246
    1  -0.8813529   0.1629843   0.1451678   1.8602781  -0.2628342  -0.4044909
    2   1.6254727   1.5009136   0.7836392   1.6188957  -0.8100734   0.9594842
    3   1.9963903   3.2061599   2.1510583   1.8424521   3.0469459   1.6706755
          247         248         249         250         251         252
    1  -1.0666716  -1.2195630  -1.3301890  -1.6436273  -0.9506077  -1.1982966
    2  -0.4124597  -1.1408626  -0.2370349  -0.7472637   1.0152419   0.8187315
    3   1.6907286   2.3100698  -0.2585763  -0.8741708  -0.5979168  -1.6234504
          253         254         255         256         257         258
    1  -1.5989250  -0.6560334  -0.6573642  -0.0671777   0.4440386   0.0397809
    2   0.1736888   2.0171613   2.3148709   2.8345224   3.7458837   2.5388970
    3  -2.4796622  -1.6360809  -2.6515800  -0.4488120  -0.5686629   0.9885593
          259         260         261         262         263         264
    1   0.6360268  -0.3964786  -0.7196520  -0.1760125  -2.4029000  -1.3736948
    2   3.1475236   1.6847097   3.1321907   0.1415624  -0.2741603   0.4537146
    3   2.0211368   0.7563883   0.7329199  -1.2342178  -3.0595178   0.0585563
 EField
            1           2           3           4           5           6
    1   0.0042607   0.0203243  -0.0018371  -0.0085843  -0.0129999  -0.0042187
    2   0.0164754   0.0095133   0.0173950   0.0136898   0.0126981   0.0100852
    3  -0.0113705  -0.0443190  -0.0019098  -0.0035923  -0.0035120  -0.0007085
            7           8           9          10          11          12
    1  -0.0000420  -0.0157121  -0.0104821  -0.0129319  -0.0117022  -0.0068094
    2   0.0108565   0.0074607   0.0005007  -0.0014091   0.0048779  -0.0029393
    3  -0.0036949  -0.0043977  -0.0010317  -0.0012173  -0.0003247   0.0005954
           13          14          15          16          17          18
    1  -0.0041875  -0.0047228  -0.0078451  -0.0044993  -0.0033349  -0.0020033
    2  -0.0030180   0.0033751   0.0052803  -0.0051904  -0.0065684  -0.0067682
    3  -0.0005194  -0.0014034   0.0029670   0.0035563   0.0015700  -0.0005216
           19          20          21          22          23          24
    1  -0.0013356  -0.0043703   0.0023795  -0.0214596  -0.0029183  -0.0039819
    2  -0.0067727  -0.0128709   0.0157612   0.0244336   0.0060013   0.0085988
    3   0.0046991  -0.0027148   0.0056622  -0.0076346  -0.0021703   0.0024557
           25          26          27          28          29          30
    1  -0.0002896   0.0025510  -0.0093015  -0.0312896  -0.0091038  -0.0076187
    2   0.0132297   0.0081956   0.0062630   0.0105794   0.0025726  -0.0018099
    3  -0.0022335  -0.0027043  -0.0071993  -0.0012512  -0.0004644  -0.0006186
           31          32          33          34          35          36
    1  -0.0175169  -0.0083188  -0.0060468  -0.0042023  -0.0056093  -0.0095084
    2  -0.0092028   0.0045831  -0.0009100   0.0036829   0.0095088   0.0065546
    3  -0.0056001  -0.0012296  -0.0008377  -0.0009027  -0.0037991   0.0095749
           37          38          39          40          41          42
    1  -0.0049562  -0.0065963  -0.0013776  -0.0057893  -0.0019776   0.0021893
    2   0.0067980  -0.0038152  -0.0077906  -0.0064653  -0.0064620  -0.0056398
    3   0.0029414   0.0043136   0.0036792   0.0009613   0.0021301   0.0011590
           43          44          45          46          47          48
    1   0.0006721   0.0099602  -0.0098442  -0.0069392   0.0033589   0.0002593
    2  -0.0085383  -0.0019799  -0.0114860  -0.0191692  -0.0147790   0.0005642
    3   0.0049920   0.0043744   0.0142605  -0.0114914   0.0339934  -0.0009703
           49          50          51          52          53          54
    1  -0.0063676   0.0014867  -0.0310171   0.0083268   0.0011011  -0.0049368
    2  -0.0313129  -0.0014133  -0.0134163   0.0234173   0.0025337   0.0064495
    3  -0.0228674   0.0006917   0.0099242   0.0230844  -0.0064953   0.0007994
           55          56          57          58          59          60
    1   0.0272073  -0.0031357   0.0227626   0.0044782  -0.0736706   0.0306046
    2  -0.0318054   0.0028898  -0.0133708  -0.0137488   0.0900397  -0.0166465
    3   0.0028641   0.0070808  -0.0308017   0.0266538  -0.0161685  -0.0386823
           61          62          63          64          65          66
    1   0.0038440  -0.0266180   0.0060833  -0.0197364   0.0363644   0.0012828
    2  -0.0019542   0.0354111  -0.0020697   0.0134156   0.0110275  -0.0378658
    3   0.0013610  -0.0053591  -0.0086348   0.0272415  -0.0084629   0.0033612
           67          68          69          70          71          72
    1  -0.0002516  -0.0377128  -0.0016309   0.0324813  -0.0005359  -0.0376102
    2   0.0032795   0.0077290   0.0013211  -0.0059758  -0.0028446   0.0136742
    3   0.0042890  -0.0148762   0.0000034   0.0114410   0.0004474  -0.0116492
           73          74          75          76          77          78
    1   0.0052707   0.0232235   0.0018281   0.0003475   0.0037745  -0.0382672
    2   0.0228571   0.0176874   0.0023917  -0.0380361   0.0183248   0.0066026
    3   0.0320214  -0.0263786  -0.0039289   0.0047806   0.0345360  -0.0111946
           79          80          81          82          83          84
    1   0.0249916  -0.0303053   0.0039832   0.0201398   0.0079516   0.0133890
    2   0.0119320  -0.0052034  -0.0002246   0.0270305  -0.0009207  -0.0104683
    3  -0.0270880   0.0169539  -0.0021982   0.0160354  -0.0042555   0.0304243
           85          86          87          88          89          90
    1  -0.0135970   0.0028255   0.0894182  -0.0106451  -0.0050903  -0.0195583
    2  -0.0264129  -0.0009220   0.0151792  -0.0104524   0.0115801   0.0074347
    3  -0.0181493  -0.0011526   0.0401890  -0.0951779  -0.0353574  -0.0318814
           91          92          93          94          95          96
    1   0.0023332   0.0043224  -0.0213675  -0.0022258   0.0830912   0.0060844
    2   0.0025298   0.0296056  -0.0205179   0.0085635   0.0373506   0.0052967
    3   0.0056805   0.0197641   0.0258066   0.0125488   0.0797546   0.0055945
           97          98          99         100         101         102
    1  -0.0368451   0.0179085   0.0223023  -0.0016602  -0.0220954   0.0311995
    2  -0.0099725  -0.0080555   0.0151975   0.0002187  -0.0137434  -0.0162337
    3  -0.0230999   0.0018485   0.0256860   0.0071742  -0.0257185  -0.0098254
          103         104         105         106         107         108
    1   0.0001919  -0.0303117  -0.0004906   0.0317421  -0.0122693  -0.0271511
    2   0.0007864   0.0179382   0.0046304  -0.0191759  -0.0163857  -0.0088787
    3   0.0019374   0.0121711   0.0030508  -0.0088406   0.0327523  -0.0252598
          109         110         111         112         113         114
    1  -0.0034834   0.0029485  -0.0092974   0.0361065   0.0138348   0.0079192
    2   0.0022810   0.0414016  -0.0140539  -0.0129207   0.0126402   0.0180060
    3  -0.0001423   0.0121594   0.0362868  -0.0066543  -0.0276389  -0.0326089
          115         116         117         118         119         120
    1  -0.0057520   0.0070400  -0.0018954  -0.0061034  -0.0014769   0.0000198
    2  -0.0016692   0.0252269   0.0009472  -0.0236870   0.0032264   0.0247252
    3   0.0013574   0.0294646   0.0015820  -0.0252090  -0.0020906   0.0309838
          121         122         123         124         125         126
    1  -0.0381018   0.0231925  -0.0024518   0.0023823  -0.0450148  -0.0022932
    2  -0.0143936  -0.0289982  -0.0044248   0.0192481  -0.0081213   0.0237049
    3   0.0047393   0.0091096   0.0022689  -0.0321852   0.0013545   0.0290389
          127         128         129         130         131         132
    1   0.0258840  -0.0307652  -0.0010084   0.0267564  -0.0003543   0.0291845
    2  -0.0275417   0.0153417   0.0004113  -0.0036964   0.0008836  -0.0138513
    3   0.0045243   0.0171668  -0.0011948   0.0266246  -0.0006103  -0.0147620
          133         134         135         136         137         138
    1  -0.0081466  -0.0038783  -0.0084388   0.0389844  -0.0024017   0.0100414
    2  -0.0274809   0.0025076   0.0004926   0.0030555   0.0009784   0.0114467
    3   0.0213123  -0.0036939   0.0019561  -0.0114470   0.0070823  -0.0406688
          139         140         141         142         143         144
    1   0.0060355  -0.0280215   0.0035833  -0.0418795   0.0020194  -0.0109537
    2   0.0023424   0.0103130   0.0036762  -0.0004215   0.0036157  -0.0078116
    3   0.0047347  -0.0294184  -0.0002338   0.0112724  -0.0084840   0.0391050
          145         146         147         148         149         150
    1   0.0105466   0.0189324  -0.0057238   0.0220842  -0.0025424  -0.0194444
    2   0.0297164  -0.0267639  -0.0019061   0.0094359  -0.0003690   0.0249306
    3  -0.0223690   0.0196466  -0.0019826  -0.0306186   0.0001696  -0.0206157
          151         152         153         154         155         156
    1  -0.0017775   0.0158075  -0.0365132   0.0187583  -0.0000116  -0.0087151
    2   0.0048158  -0.0301461  -0.0116914   0.0063876   0.0006902   0.0305835
    3   0.0014289   0.0178340  -0.0143506  -0.0333053  -0.0028523   0.0231390
          157         158         159         160         161         162
    1  -0.0395220   0.0114226  -0.0017872   0.0108446  -0.0006422   0.0288680
    2  -0.0109681  -0.0280963   0.0301281  -0.0261489  -0.0027346   0.0048737
    3  -0.0077815   0.0232195   0.0235776   0.0253497   0.0006071  -0.0245068
          163         164         165         166         167         168
    1   0.0024828  -0.0094437   0.0056867  -0.0012743  -0.0082495  -0.0261173
    2  -0.0010174   0.0219184  -0.0313968   0.0070206   0.0325059  -0.0086888
    3   0.0001381  -0.0263953  -0.0207727  -0.0089618   0.0189607  -0.0120030
          169         170         171         172         173         174
    1   0.0062578  -0.0017512  -0.0363969   0.0076857   0.0255247  -0.0023003
    2  -0.0449478   0.0053492   0.0113004  -0.0226962   0.0283414   0.0334429
    3  -0.0080795   0.0100410   0.0093857   0.0311419   0.0014113   0.0185230
          175         176         177         178         179         180
    1   0.0223204  -0.0032737  -0.0103983  -0.0037776  -0.0237574   0.0085265
    2   0.0237740  -0.0011374   0.0163223  -0.0044146   0.0280570  -0.0115042
    3  -0.0169538  -0.0016122   0.0331197   0.0018932  -0.0093910  -0.0343331
          181         182         183         184         185         186
    1  -0.0021792   0.0192932  -0.0007502  -0.0242965  -0.0265605   0.0243198
    2   0.0006678  -0.0289841  -0.0025640   0.0307856  -0.0266454   0.0065144
    3  -0.0018743   0.0062227  -0.0042863  -0.0057022   0.0131292   0.0282767
          187         188         189         190         191         192
    1  -0.0022033   0.0094380  -0.0275595  -0.0305570   0.0217353   0.0311104
    2   0.0002909  -0.0152131  -0.0295030   0.0257565  -0.0301801   0.0196398
    3   0.0010126  -0.0363972   0.0109403  -0.0107682   0.0096783  -0.0119428
          193         194         195         196         197         198
    1  -0.0024772  -0.0294205  -0.0010679   0.0273047   0.0032486  -0.0330473
    2  -0.0032652   0.0271021   0.0011903  -0.0220199   0.0021747   0.0236541
    3  -0.0045704  -0.0053423  -0.0022484   0.0011966  -0.0043931  -0.0056929
          199         200         201         202         203         204
    1  -0.0105503   0.0013844  -0.0023756   0.0298909  -0.0073742  -0.0333837
    2  -0.0300008  -0.0100899  -0.0003848   0.0182880  -0.0289109   0.0250753
    3  -0.0216408   0.0356563   0.0009442  -0.0181322  -0.0256000  -0.0114067
          205         206         207         208         209         210
    1   0.0031384   0.0357825   0.0021139   0.0088448  -0.0000958  -0.0100968
    2  -0.0061883  -0.0110149   0.0042818   0.0389523   0.0034759  -0.0345396
    3   0.0368498   0.0052202   0.0012440  -0.0059089   0.0066137   0.0096574
          211         212         213         214         215         216
    1  -0.0360777   0.0055824   0.0954157  -0.0944153  -0.0095521  -0.0173190
    2   0.0167580   0.0155570   0.0663609  -0.0513802   0.0073141  -0.0012954
    3  -0.0012236   0.0265217  -0.0039593   0.0166708   0.0276091   0.0349338
          217         218         219         220         221         222
    1   0.0071554   0.0001516  -0.0355286  -0.0011403   0.0043143   0.0305885
    2  -0.0330644   0.0019436   0.0099986   0.0000494   0.0071902  -0.0105586
    3   0.0167969  -0.0019311   0.0141987  -0.0008099   0.0359187  -0.0081143
          223         224         225         226         227         228
    1   0.0001256  -0.0335693   0.0199340  -0.0342023   0.0098425   0.0161857
    2   0.0018339   0.0157057   0.0329979  -0.0078783   0.0097873  -0.0137472
    3   0.0110538   0.0086392   0.0097867  -0.0278561  -0.0019688   0.0203837
          229         230         231         232         233         234
    1   0.0085660   0.0087774  -0.0055284  -0.0351246   0.0016948   0.0037020
    2   0.0003349   0.0445656  -0.0068780  -0.0005215   0.0014399  -0.0147479
    3  -0.0413249   0.0020343  -0.0374242  -0.0116647  -0.0031821   0.0327153
          235         236         237         238         239         240
    1   0.0019773   0.0005135   0.0401113  -0.0045787   0.0038965  -0.0363388
    2   0.0078419   0.0229557   0.0021532  -0.0307423   0.0382664  -0.0105655
    3  -0.0090750  -0.0409201   0.0058148  -0.0123715   0.0042021   0.0015286
          241         242         243         244         245         246
    1  -0.0000212   0.0126967   0.0001096   0.0354967   0.0029542  -0.0030854
    2  -0.0021339   0.0081939   0.0003270   0.0074178  -0.0296535  -0.0045857
    3  -0.0027743   0.0340108  -0.0005597  -0.0015893   0.0186302  -0.0045439
          247         248         249         250         251         252
    1   0.0097554  -0.0088860  -0.0030396  -0.0252483   0.0080447   0.0046764
    2   0.0099067  -0.0373153  -0.0121545  -0.0397139   0.0146789   0.0019464
    3   0.0114584   0.0208738  -0.0112350  -0.0346871  -0.0064912  -0.0003642
          253         254         255         256         257         258
    1  -0.0164136   0.0002124  -0.0021167  -0.0023002   0.0143013  -0.0028821
    2  -0.0277360  -0.0075106   0.0130683  -0.0101975   0.0351766  -0.0039249
    3  -0.0331509   0.0069445  -0.0381744   0.0025995  -0.0073907  -0.0102782
          259         260         261         262         263         264
    1   0.0170102   0.0000692  -0.0021933   0.1160773  -0.0276107  -0.0155020
    2   0.0210523  -0.0020303   0.0320421   0.0035389  -0.0080547   0.0067450
    3   0.0290507  -0.0021700  -0.0206337   0.0148063  -0.0358851   0.0395603
  --- DONE ESP SUMMARY ---
 Total job time:  8.01s(wall), 100.99s(cpu) 
 Fri Aug  9 14:28:16 2024

        *************************************************************
        *                                                           *
        *  Thank you very much for using Q-Chem.  Have a nice day.  *
        *                                                           *
        *************************************************************


