
Running Job 1 of 2 cutoff6_dft_elec.inp
qchem cutoff6_dft_elec.inp_799997.0 /media/work/klemlab/arkanil/qchem_scratch/qchem799997/ 1
/home/klemlab/Desktop/software/QChem/exe/qcprog.exe_s cutoff6_dft_elec.inp_799997.0 /media/work/klemlab/arkanil/qchem_scratch/qchem799997/
                  Welcome to Q-Chem
     A Quantum Leap Into The Future Of Chemistry


 Q-Chem 6.4, Q-Chem, Inc., Pleasanton, CA (2025)

 E. Epifanovsky,  A. T. B. Gilbert,  Xintian Feng,  Joonho Lee,  Yuezhi Mao,  
 N. Mardirossian,  P. Pokhilko,  A. White,  M. Wormit,  M. P. Coons,  
 A. L. Dempwolff,  Zhengting Gan,  D. Hait,  P. R. Horn,  L. D. Jacobson,  
 I. Kaliman,  J. Kussmann,  A. W. Lange,  Ka Un Lao,  D. S. Levine,  Jie Liu,  
 S. C. McKenzie,  A. F. Morrison,  K. D. Nanda,  F. Plasser,  D. R. Rehn,  
 M. L. Vidal,  Zhi-Qiang You,  Ying Zhu,  Huseyin Aksu,  B. Alam,  
 B. Albrecht,  A. Aldossary,  E. Alguire,  J. H. Andersen,  
 J. E. Arias-Martinez,  V. Athavale,  F. Ballesteros,  D. Barton,  K. Begam,  
 A. Behn,  N. Bellonzi,  Y. A. Bernard,  E. J. Berquist,  H. Burton,  
 S. Camps,  A. Carreras,  K. Carter-Fenk,  Mathew Chow,  Jeng-Da Chai,  
 Arnab Chakraborty,  Romit Chakraborty,  Chandrima Chakravarty,  Junhan Chen,  
 A. D. Chien,  K. D. Closser,  V. Cofer-Shabica,  L. Cunha,  S. Dasgupta,  
 Jia Deng,  Joseph Dickinson,  M. de Wergifosse,  M. Diedenhofen,  
 L. B. Dittmer,  Hainam Do,  Wenjie Dou,  S. Ehlert,  Po-Tung Fang,  
 Anthuan Ferino-Pérez,  S. Fatehi,  Qingguo Feng,  Jonathan Fetherolf,  
 T. Friedhoff,  Thomas Froitzheim,  Sarai Folkestad,  B. Ganoe,  J. Gayvert,  
 Qinghui Ge,  G. Gidofalvi,  M. Gimferrer,  G. Giudetti,  M. Goldey,  
 Montgomery Gray,  J. Gomes,  C. Gonzalez-Espinoza,  S. Gulania,  A. Gunina,  
 J. A. Gyamfi,  M. W. D. Hanson-Heine,  P. H. P. Harbach,  A. W. Hauser,  
 M. F. Herbst,  M. Hernandez Vera,  M. Hodecker,  Z. C. Holden,  S. Houck,  
 Xunkun Huang,  Kerwin Hui,  B. C. Huynh,  K. Ikeda,  M. Ivanov,  
 Nayanthara K. Jayadev,  Hyunjun Ji,  Zuxin Jin,  Hanjie Jiang,  
 Subrata Jana,  B. Kaduk,  S. Kaehler,  Richard Kang,  K. Khistyaev,  
 Jaehoon Kim,  Yongbin Kim,  P. Klunzinger,  Z. Koczor-Benda,  
 Joong Hoon Koh,  Elena Kolodzeiski,  D. Kosenkov,  Saikiran Kotaru,  
 L. Koulias,  T. Kowalczyk,  C. M. Krauter,  K. Kue,  A. Kunitsa,  T. Kus,  
 A. Landau,  C. W. Lander,  K. V. Lawler,  D. Lefrancois,  S. Lehtola,  
 Rain Li,  Shaozhi Li,  Tao E. Li,  Yi-Pei Li,  Jiashu Liang,  M. Liebenthal,  
 Hung-Hsuan Lin,  You-Sheng Lin,  Fenglai Liu,  Kuan-Yu Liu,  Xiao Liu,  
 M. Loipersberger,  A. Luenser,  C. Malbon,  Aniket Mandal,  Manisha,  
 A. Manjanath,  P. Manohar,  E. Mansoor,  S. F. Manzer,  Shan-Ping Mao,  
 A. V. Marenich,  T. Markovich,  S. Mason,  F. Matz,  S. A. Maurer,  
 Samuel May,  Alexandra McIsaac,  P. F. McLaughlin,  M. F. S. J. Menger,  
 J.-M. Mewes,  S. A. Mewes,  R. E. Moorby,  P. Morgante,  
 Mohammad Mostafanejad,  Madhubani Mukherjee,  J. W. Mullinax,  Quyen Nguyen,  
 Avik Kumar Ojha,  K. J. Oosterbaan,  Eno Paenurk,  Xiaoliang Pan,  G. Paran,  
 V. Parravicini,  R. L. Patterson,  Alexander C. Paul,  Suranjan K. Paul,  
 F. Pavosevic,  Zheng Pei,  P. Pokhilko,  S. Prager,  E. I. Proynov,  
 E. Ramos,  B. Rana,  A. E. Rask,  A. Rettig,  R. M. Richard,  F. Rob,  
 E. Rossomme,  S. Roy,  T. Scheele,  M. Scheurer,  M. Schneider,  
 P. E. Schneider,  Tim K. Schramm,  N. Sergueev,  S. M. Sharada,  
 Hengyuan Shen,  W. Skomorowski,  D. W. Small,  C. J. Stein,  
 Alistair J. Sterling,  Yingli Su,  Yu-Chuan Su,  E. J. Sundstrom,  
 J. Talbot,  J. A. Tan,  Zhen Tao,  Hung-Hsuan Teh,  J. Thirman,  C. Titeca,  
 N. Tkachenko,  Hung-Yi Tsai,  T. Tsuchimochi,  N. M. Tubman,  C. Utku,  
 S. P. Veccham,  O. Vydrov,  Z. Wang,  Markus G. S. Weiss,  Rahel Weiss,  
 J. Wenzel,  Jonathan Wong,  J. Witte,  H. Wu,  Yanze Wu,  A. Yamada,  
 Chou-Hsun Yang,  Kun Yao,  S. Yeganeh,  S. R. Yost,  Qi Yu,  A. Zech,  
 F. Zeller,  Chongxiao Zhao,  T. Zhao,  Igor Ying Zhang,  Xing Zhang,  
 Yu Zhang,  Zeyi Zhang,  D. Zuev,  A. Aspuru-Guzik,  A. T. Bell,  
 N. A. Besley,  K. B. Bravaya,  B. R. Brooks,  D. Casanova,  Jeng-Da Chai,  
 Hsing-Ta Chen,  S. Coriani,  C. J. Cramer,  A. E. DePrince, III,  
 R. A. DiStasio Jr.,  A. Dreuw,  B. D. Dunietz,  T. R. Furlani,  
 W. A. Goddard III,  S. Grimme,  S. Hammes-Schiffer,  T. Head-Gordon,  
 W. J. Hehre,  Chao-Ping Hsu,  T.-C. Jagau,  Yousung Jung,  A. Klamt,  
 Jing Kong,  D. S. Lambrecht,  Xiangyuan Li,  WanZhen Liang,  N. J. Mayhall,  
 C. W. McCurdy,  J. B. Neaton,  T. Neudecker,  C. Ochsenfeld,  
 J. A. Parkhill,  R. Peverati,  V. A. Rassolov,  Haisheng Ren,  Yihan Shao,  
 L. V. Slipchenko,  R. P. Steele,  J. E. Subotnik,  A. J. W. Thom,  
 A. Tkatchenko,  D. G. Truhlar,  T. Van Voorhis,  Fan Wang,  
 T. A. Wesolowski,  K. B. Whaley,  H. L. Woodcock III,  P. M. Zimmerman,  
 S. Faraji,  P. M. W. Gill,  M. Head-Gordon,  J. M. Herbert,  A. I. Krylov

 Contributors to earlier versions of Q-Chem not listed above: 
 R. D. Adamson,  B. Austin,  R. Baer,  J. Baker,  G. J. O. Beran,  
 K. Brandhorst,  S. T. Brown,  E. F. C. Byrd,  Arup K. Chakraborty,  
 G. K. L. Chan,  Chun-Min Chang,  Yunqing Chen,  C.-L. Cheng,  
 Siu Hung Chien,  D. M. Chipman,  D. L. Crittenden,  H. Dachsel,  
 R. J. Doerksen,  A. D. Dutoi,  R. G. Edgar,  J. Fosso-Tande,  
 L. Fusti-Molnar,  D. Ghosh,  A. Ghysels,  A. Golubeva-Zadorozhnaya,  
 J. Gonthier,  M. S. Gordon,  S. R. Gwaltney,  G. Hawkins,  J. E. Herr,  
 A. Heyden,  S. Hirata,  E. G. Hohenstein,  G. Kedziora,  F. J. Keil,  
 C. Kelley,  Jihan Kim,  R. A. King,  R. Z. Khaliullin,  P. P. Korambath,  
 W. Kurlancheek,  A. Laurent,  A. M. Lee,  M. S. Lee,  S. V. Levchenko,  
 Ching Yeh Lin,  D. Liotard,  E. Livshits,  R. C. Lochan,  I. Lotan,  
 L. A. Martinez-Martinez,  P. E. Maslen,  N. Nair,  D. P. O'Neill,  
 D. Neuhauser,  E. Neuscamman,  C. M. Oana,  R. Olivares-Amaya,  R. Olson,  
 T. M. Perrine,  B. Peters,  P. A. Pieniazek,  A. Prociuk,  Y. M. Rhee,  
 J. Ritchie,  M. A. Rohrdanz,  E. Rosta,  N. J. Russ,  H. F. Schaefer III,  
 M. W. Schmidt,  N. E. Schultz,  S. Sharma,  N. Shenvi,  C. D. Sherrill,  
 A. C. Simmonett,  A. Sodt,  T. Stein,  D. Stuck,  K. S. Thanthiriwatte,  
 V. Vanovschi,  L. Vogt,  Tao Wang,  A. Warshel,  M. A. Watson,  
 C. F. Williams,  Q. Wu,  X. Xu,  Jun Yang,  W. Zhang,  Yan Zhao

   Please cite Q-Chem as follows:
  "Software for the frontiers of quantum chemistry:
   An overview of developments in the Q-Chem 5 package"
   J. Chem. Phys. 155, 084801 (2021)
   https://doi.org/10.1063/5.0055522 (open access)

 Q-Chem 6.4.0 for Intel X86 EM64T Linux

 Parts of Q-Chem use Armadillo 12.8.2 (Cortisol Injector).
 http://arma.sourceforge.net/

 Q-Chem begins on Sat May  2 09:54:06 2026  

 Host: 
0

 Scratch files written to /media/work/klemlab/arkanil/qchem_scratch/qchem799997//
 Executable: /home/klemlab/Desktop/software/QChem/exe/qcprog.exe_s
 Number of threads = 3
 Dec1625 |scratch|qcdevops|jenkins|workspace|build_RNUM -1
 Processing $rem in /home/klemlab/Desktop/software/QChem/config/preferences:
 Processing $rem in /home/klemlab/.qchemrc:
 No nuclear gradient supported for projection-based embedding or EMFT. Set max ideriv = 0.

 Checking the input file for inconsistencies... 	...done.

--------------------------------------------------------------
User input:
--------------------------------------------------------------
$molecule
-1 1
--
0 1
C         3.405000       -0.303000       -1.084000
O         4.483000       -0.420000       -1.681000
C         2.819000        0.990000       -0.816000
C         1.638000        1.144000       -0.171000
C         0.835000       -0.047000        0.319000
C         1.186000       -1.312000       -0.473000
C         2.687000       -1.530000       -0.594000
C         1.162000        2.525000        0.157000
C        -0.355000        2.682000        0.152000
C        -1.003000        1.579000        0.985000
C        -0.688000        0.216000        0.333000
C        -2.507000        1.749000        1.123000
C        -3.178000        0.621000        1.929000
C        -2.944000       -0.704000        1.200000
C        -1.446000       -0.962000        0.978000
C        -3.058000        3.036000        1.757000
C        -4.500000        2.651000        2.182000
C        -4.629000        1.142000        1.894000
C        -2.675000        0.528000        3.379000
O        -5.546000        0.539000        2.795000
H         3.395000        1.857000       -1.132000
H         1.137000       -0.184000        1.371000
H         0.750000       -1.228000       -1.478000
H         0.734000       -2.191000       -0.005000
H         3.129000       -1.771000        0.382000
H         2.933000       -2.366000       -1.255000
H         1.635000        3.246000       -0.517000
H         1.543000        2.773000        1.159000
H        -0.741000        2.643000       -0.877000
H        -0.610000        3.669000        0.547000
H        -0.541000        1.601000        1.981000
H        -1.019000        0.287000       -0.716000
H        -2.933000        1.690000        0.107000
H        -3.455000       -0.674000        0.227000
H        -3.372000       -1.547000        1.760000
H        -0.965000       -1.203000        1.936000
H        -1.341000       -1.860000        0.357000
H        -3.031000        3.884000        1.069000
H        -2.451000        3.324000        2.624000
H        -5.259000        3.218000        1.635000
H        -4.674000        2.827000        3.248000
H        -4.998000        1.008000        0.868000
H        -2.882000        1.438000        3.950000
H        -3.168000       -0.305000        3.888000
H        -1.598000        0.343000        3.434000
H        -5.554000       -0.414000        2.619000
--
-1 1
H         8.393000       -7.599000       -3.880000
C         7.848000       -7.041000       -3.108000
H         7.924000       -7.611000       -2.178000
C         8.503000       -5.658000       -2.927000
H         9.530000       -5.820000       -2.579000
H         8.598000       -5.157000       -3.899000
C         7.770000       -4.738000       -1.977000
C         7.936000       -4.790000       -0.594000
H         8.615000       -5.519000       -0.156000
C         7.242000       -3.923000        0.258000
H         7.362000       -4.015000        1.336000
C         6.357000       -2.980000       -0.275000
O         5.649000       -2.103000        0.465000
H         5.970000       -2.014000        1.381000
C         6.173000       -2.928000       -1.661000
H         5.491000       -2.184000       -2.056000
C         6.868000       -3.795000       -2.482000
H         6.711000       -3.732000       -3.555000
C         6.366000       -7.041000       -3.458000
O         5.555000       -7.705000       -2.824000
N         5.996000       -6.294000       -4.528000
H         6.686000       -5.762000       -5.034000
C         4.606000       -6.210000       -4.933000
H         4.004000       -5.912000       -4.066000
C         4.392000       -5.229000       -6.092000
H         5.032000       -5.559000       -6.925000
C         2.938000       -5.327000       -6.562000
H         2.246000       -5.125000       -5.738000
H         2.734000       -4.600000       -7.355000
H         2.712000       -6.328000       -6.948000
C         4.786000       -3.774000       -5.770000
H         5.863000       -3.720000       -5.564000
H         4.648000       -3.173000       -6.678000
C         4.023000       -3.115000       -4.623000
H         4.179000       -3.644000       -3.677000
H         4.353000       -2.080000       -4.487000
H         2.946000       -3.078000       -4.819000
H         4.256000       -7.208000       -5.225000
H         2.821000       -8.059000       -1.126000
C         2.013000       -7.384000       -0.825000
H         2.055000       -7.268000        0.266000
C         2.163000       -6.023000       -1.514000
H         2.120000       -6.193000       -2.601000
C         1.019000       -5.078000       -1.138000
H         1.054000       -4.843000       -0.066000
H         1.086000       -4.132000       -1.689000
H         0.037000       -5.522000       -1.345000
C         3.518000       -5.391000       -1.189000
H         4.344000       -6.060000       -1.448000
H         3.659000       -4.453000       -1.736000
H         3.589000       -5.151000       -0.120000
H         1.053000       -7.854000       -1.073000
H         7.206000       -9.323000        3.399000
C         7.865000       -8.455000        3.287000
H         8.320000       -8.509000        2.290000
C         7.090000       -7.141000        3.453000
H         6.634000       -7.142000        4.455000
C         8.043000       -5.947000        3.370000
H         8.531000       -5.908000        2.388000
H         7.516000       -5.000000        3.523000
H         8.836000       -6.008000        4.124000
C         5.951000       -7.037000        2.426000
H         6.380000       -6.923000        1.420000
H         5.401000       -7.988000        2.416000
C         4.958000       -5.903000        2.687000
H         5.414000       -4.912000        2.582000
H         4.124000       -5.952000        1.980000
H         4.544000       -5.964000        3.700000
H         8.669000       -8.538000        4.027000
H        14.278000       -4.479000        3.817000
C        13.781000       -4.838000        4.724000
H        13.660000       -3.981000        5.396000
C        12.424000       -5.465000        4.387000
H        12.574000       -6.334000        3.736000
H        11.960000       -5.842000        5.306000
C        11.490000       -4.486000        3.715000
C        11.275000       -4.511000        2.337000
H        11.773000       -5.264000        1.732000
C        10.429000       -3.598000        1.715000
H        10.264000       -3.637000        0.642000
C         9.778000       -2.641000        2.486000
O         8.904000       -1.732000        1.945000
H         8.640000       -2.025000        1.057000
C         9.996000       -2.576000        3.860000
H         9.503000       -1.803000        4.444000
C        10.844000       -3.496000        4.460000
H        11.001000       -3.447000        5.535000
H        14.440000       -5.563000        5.213000
H         5.049000        6.514000        4.299000
C         4.272000        6.067000        3.665000
H         4.433000        6.451000        2.656000
C         4.415000        4.546000        3.680000
H         5.378000        4.259000        3.239000
H         4.424000        4.175000        4.709000
C         3.298000        3.803000        2.925000
O         2.437000        4.486000        2.323000
O         3.340000        2.539000        2.978000
C         2.930000        6.510000        4.228000
O         2.415000        5.945000        5.193000
N         2.364000        7.610000        3.675000
C         1.131000        8.161000        4.232000
H         1.228000        8.282000        5.315000
H         0.293000        7.480000        4.047000
C         0.954000        9.483000        3.481000
H         1.480000       10.289000        4.006000
H        -0.098000        9.765000        3.388000
C         1.619000        9.211000        2.126000
H         1.923000       10.122000        1.602000
H         0.932000        8.656000        1.480000
C         2.817000        8.326000        2.483000
H         3.062000        7.643000        1.667000
H         3.712000        8.926000        2.698000
H         3.042000       -1.735000       10.687000
C         2.667000       -1.103000        9.871000
H         1.909000       -0.443000       10.302000
C         3.822000       -0.274000        9.286000
H         4.304000        0.247000       10.122000
H         4.594000       -0.926000        8.858000
C         3.377000        0.735000        8.253000
C         2.647000        1.862000        8.651000
H         2.390000        1.990000        9.701000
C         2.271000        2.827000        7.720000
H         1.730000        3.713000        8.041000
C         2.620000        2.680000        6.377000
H         2.370000        3.467000        5.670000
C         3.333000        1.554000        5.970000
H         3.617000        1.465000        4.926000
C         3.699000        0.585000        6.904000
H         4.258000       -0.289000        6.576000
C         1.957000       -2.011000        8.888000
O         0.720000       -2.023000        8.781000
N         2.717000       -2.857000        8.180000
H         3.722000       -2.763000        8.201000
C         2.127000       -3.784000        7.234000
H         1.453000       -3.231000        6.570000
C         3.195000       -4.515000        6.426000
H         3.824000       -5.110000        7.101000
H         2.674000       -5.232000        5.780000
C         4.065000       -3.612000        5.578000
C         5.454000       -3.698000        5.641000
H         5.921000       -4.396000        6.332000
C         6.269000       -2.935000        4.804000
H         7.351000       -3.034000        4.849000
C         5.678000       -2.071000        3.890000
O         6.394000       -1.342000        2.983000
H         7.351000       -1.517000        3.008000
C         4.289000       -1.934000        3.843000
H         3.850000       -1.223000        3.150000
C         3.493000       -2.705000        4.674000
H         2.412000       -2.590000        4.607000
H         1.513000       -4.509000        7.782000
H        -1.471000       -3.445000        9.939000
C        -2.409000       -2.879000        9.975000
H        -3.125000       -3.428000       10.590000
C        -2.128000       -1.475000       10.554000
H        -1.812000       -0.810000        9.745000
H        -3.056000       -1.054000       10.957000
C        -1.044000       -1.513000       11.636000
H        -1.338000       -2.171000       12.459000
H        -0.128000       -1.913000       11.185000
C        -0.727000       -0.158000       12.260000
O        -0.837000        0.044000       13.460000
N        -0.265000        0.794000       11.399000
H        -0.169000        1.720000       11.791000
H        -0.343000        0.722000       10.381000
C        -2.972000       -2.762000        8.567000
O        -4.172000       -2.821000        8.323000
N        -2.034000       -2.551000        7.594000
H        -1.067000       -2.423000        7.880000
C        -2.401000       -2.125000        6.258000
H        -3.349000       -1.579000        6.295000
H        -1.626000       -1.456000        5.873000
C        -2.581000       -3.239000        5.243000
O        -2.851000       -2.944000        4.069000
N        -2.415000       -4.488000        5.681000
H        -2.257000       -4.590000        6.672000
C        -2.764000       -5.656000        4.893000
H        -3.469000       -5.330000        4.126000
C        -1.525000       -6.323000        4.281000
H        -0.894000       -6.696000        5.101000
H        -1.850000       -7.208000        3.714000
C        -0.669000       -5.423000        3.371000
H        -0.453000       -4.496000        3.920000
C         0.671000       -6.096000        3.060000
H         0.523000       -7.024000        2.491000
H         1.312000       -5.438000        2.461000
H         1.219000       -6.351000        3.976000
C        -1.391000       -5.045000        2.075000
H        -2.319000       -4.507000        2.281000
H        -0.764000       -4.389000        1.461000
H        -1.619000       -5.939000        1.479000
H        -3.300000       -6.353000        5.544000
H        -6.488000       -6.465000        0.258000
C        -5.964000       -5.780000       -0.414000
H        -6.665000       -5.016000       -0.767000
C        -4.810000       -5.090000        0.360000
H        -4.085000       -5.867000        0.636000
C        -4.095000       -4.026000       -0.480000
H        -4.802000       -3.261000       -0.825000
H        -3.324000       -3.531000        0.120000
H        -3.612000       -4.442000       -1.370000
C        -5.360000       -4.472000        1.648000
H        -5.850000       -5.218000        2.283000
H        -4.557000       -4.011000        2.233000
H        -6.092000       -3.686000        1.426000
C        -5.466000       -6.600000       -1.581000
O        -5.122000       -7.792000       -1.425000
N        -5.399000       -5.976000       -2.765000
H        -5.706000       -5.001000       -2.812000
C        -4.696000       -6.507000       -3.921000
H        -4.165000       -7.402000       -3.588000
C        -5.628000       -6.804000       -5.120000
H        -5.771000       -5.924000       -5.762000
H        -5.146000       -7.560000       -5.755000
C        -7.051000       -7.224000       -4.767000
H        -7.532000       -6.426000       -4.192000
H        -7.597000       -7.260000       -5.717000
C        -7.199000       -8.511000       -3.963000
H        -6.809000       -8.412000       -2.950000
H        -8.253000       -8.791000       -3.876000
N        -6.505000       -9.635000       -4.609000
H        -6.770000       -9.801000       -5.570000
C        -5.428000      -10.267000       -4.164000
N        -4.794000       -9.922000       -3.050000
H        -4.977000       -9.050000       -2.496000
H        -4.142000      -10.576000       -2.646000
N        -4.974000      -11.344000       -4.857000
H        -5.449000      -11.634000       -5.697000
H        -3.997000      -11.587000       -4.796000
C        -3.693000       -5.441000       -4.340000
O        -3.844000       -4.266000       -4.024000
N        -2.671000       -5.860000       -5.108000
H        -2.562000       -6.845000       -5.293000
C        -1.651000       -4.935000       -5.555000
H        -2.110000       -3.947000       -5.589000
C        -0.430000       -4.924000       -4.637000
H         0.097000       -5.885000       -4.658000
H         0.272000       -4.142000       -4.945000
H        -0.727000       -4.722000       -3.604000
H        -1.365000       -5.201000       -6.578000
H         8.822000        2.158000       -9.129000
C         7.913000        1.641000       -9.456000
H         7.984000        1.487000      -10.538000
C         7.745000        0.307000       -8.724000
H         6.850000       -0.208000       -9.093000
H         8.597000       -0.345000       -8.947000
C         7.631000        0.481000       -7.209000
H         8.507000        1.016000       -6.821000
H         6.741000        1.072000       -6.963000
S         7.521000       -1.142000       -6.390000
C         7.392000       -0.612000       -4.661000
H         6.441000       -0.112000       -4.466000
H         7.445000       -1.504000       -4.033000
H         8.229000        0.038000       -4.389000
H         7.063000        2.306000       -9.266000
H         2.348000        1.042000       -9.132000
C         1.573000        0.284000       -8.974000
H         1.251000       -0.087000       -9.953000
C         2.103000       -0.857000       -8.093000
H         1.322000       -1.617000       -7.970000
H         2.946000       -1.347000       -8.597000
C         2.541000       -0.345000       -6.741000
C         1.702000       -0.427000       -5.628000
H         0.743000       -0.933000       -5.719000
C         2.069000        0.146000       -4.413000
H         1.402000        0.091000       -3.556000
C         3.278000        0.825000       -4.301000
H         3.563000        1.310000       -3.377000
C         4.124000        0.907000       -5.403000
H         5.053000        1.464000       -5.317000
C         3.766000        0.315000       -6.608000
H         4.431000        0.382000       -7.467000
H         0.721000        0.776000       -8.494000
H        -3.122000       -0.415000       -5.388000
C        -3.606000       -1.192000       -4.786000
H        -3.356000       -2.169000       -5.207000
C        -3.108000       -1.118000       -3.327000
H        -3.783000       -1.729000       -2.714000
C        -1.705000       -1.705000       -3.191000
H        -0.978000       -1.142000       -3.792000
H        -1.375000       -1.673000       -2.147000
H        -1.695000       -2.749000       -3.515000
C        -3.152000        0.317000       -2.810000
H        -4.142000        0.753000       -2.954000
H        -2.922000        0.362000       -1.742000
H        -2.426000        0.947000       -3.343000
C        -5.109000       -0.980000       -4.869000
O        -5.622000        0.110000       -5.110000
N        -5.817000       -2.107000       -4.615000
H        -5.302000       -2.942000       -4.356000
C        -7.255000       -2.168000       -4.496000
H        -7.642000       -1.178000       -4.751000
C        -7.839000       -3.271000       -5.407000
H        -7.425000       -4.229000       -5.070000
H        -8.924000       -3.321000       -5.238000
C        -7.545000       -3.150000       -6.897000
H        -8.139000       -2.356000       -7.359000
H        -6.484000       -2.898000       -7.028000
C        -7.809000       -4.505000       -7.633000
O        -7.253000       -5.512000       -7.097000
O        -8.513000       -4.472000       -8.651000
C        -7.599000       -2.558000       -3.070000
O        -6.980000       -3.447000       -2.474000
N        -8.649000       -1.918000       -2.534000
H        -9.245000       -1.338000       -3.110000
C        -9.118000       -2.166000       -1.197000
H        -9.300000       -3.246000       -1.080000
C        -8.088000       -1.771000       -0.122000
H        -8.483000       -2.047000        0.862000
H        -7.208000       -2.402000       -0.278000
C        -7.660000       -0.299000       -0.100000
H        -8.507000        0.370000       -0.290000
H        -7.275000       -0.048000        0.894000
S        -6.323000        0.101000       -1.288000
C        -7.184000        1.128000       -2.504000
H        -7.372000        2.132000       -2.114000
H        -6.550000        1.179000       -3.393000
H        -8.131000        0.661000       -2.782000
C       -10.491000       -1.502000       -1.076000
O       -11.147000       -1.231000       -2.079000
N       -10.931000       -1.315000        0.184000
H       -10.349000       -1.521000        0.998000
C       -12.294000       -0.925000        0.456000
H       -12.785000       -0.834000       -0.518000
C       -13.033000       -1.993000        1.293000
H       -12.489000       -2.095000        2.241000
C       -14.466000       -1.549000        1.597000
H       -15.026000       -1.372000        0.670000
H       -14.992000       -2.325000        2.162000
H       -14.491000       -0.631000        2.192000
C       -13.017000       -3.340000        0.570000
H       -11.995000       -3.687000        0.393000
H       -13.530000       -4.100000        1.169000
H       -13.524000       -3.271000       -0.400000
C       -12.330000        0.418000        1.179000
O       -11.856000        0.568000        2.310000
N       -12.982000        1.402000        0.532000
H       -13.147000        1.286000       -0.456000
C       -13.123000        2.725000        1.105000
H       -13.418000        2.599000        2.150000
C       -11.844000        3.579000        1.035000
H       -11.000000        2.949000        1.341000
H       -11.669000        3.882000       -0.001000
C       -11.925000        4.781000        1.919000
C       -12.013000        6.091000        1.546000
H       -12.025000        6.523000        0.555000
N       -12.085000        6.897000        2.665000
H       -12.105000        7.902000        2.657000
C       -12.031000        6.108000        3.792000
C       -12.055000        6.451000        5.146000
H       -12.125000        7.486000        5.468000
C       -11.978000        5.418000        6.065000
H       -11.990000        5.649000        7.126000
C       -11.879000        4.075000        5.653000
H       -11.815000        3.293000        6.405000
C       -11.856000        3.739000        4.311000
H       -11.774000        2.702000        3.992000
C       -11.934000        4.767000        3.359000
H       -13.944000        3.232000        0.590000
H       -12.607000        2.012000       -4.109000
C       -11.632000        1.603000       -4.391000
H       -11.515000        1.706000       -5.475000
C       -10.505000        2.338000       -3.676000
H        -9.528000        1.988000       -4.020000
H       -10.566000        3.414000       -3.860000
S       -10.665000        2.037000       -1.879000
H        -9.869000        3.031000       -1.453000
H       -11.623000        0.537000       -4.145000
H        -5.763000        3.045000       -5.440000
C        -5.119000        3.868000       -5.115000
H        -5.663000        4.809000       -5.259000
C        -4.684000        3.662000       -3.667000
H        -5.559000        3.706000       -3.003000
H        -4.288000        2.648000       -3.577000
C        -3.625000        4.642000       -3.146000
H        -2.742000        4.563000       -3.798000
C        -4.111000        6.093000       -3.183000
H        -5.028000        6.207000       -2.589000
H        -3.357000        6.766000       -2.760000
H        -4.324000        6.428000       -4.205000
C        -3.203000        4.249000       -1.730000
H        -2.868000        3.206000       -1.699000
H        -2.389000        4.879000       -1.354000
H        -4.048000        4.344000       -1.035000
H        -4.249000        3.887000       -5.781000
H         0.350000        4.118000       -6.232000
C         1.170000        4.715000       -5.816000
H         0.742000        5.646000       -5.422000
C         1.915000        3.948000       -4.727000
H         2.335000        3.044000       -5.182000
C         3.068000        4.787000       -4.178000
H         2.676000        5.714000       -3.742000
H         3.634000        4.242000       -3.413000
H         3.762000        5.071000       -4.981000
C         0.977000        3.509000       -3.599000
H         0.146000        2.907000       -3.986000
H         1.512000        2.899000       -2.861000
H         0.553000        4.374000       -3.072000
H         1.842000        4.987000       -6.638000
H         7.216000        2.741000       -5.054000
C         7.406000        3.527000       -4.315000
H         6.533000        4.184000       -4.292000
C         7.653000        2.926000       -2.933000
H         8.496000        2.229000       -2.942000
H         7.875000        3.714000       -2.202000
C         6.411000        2.211000       -2.452000
O         5.300000        2.699000       -2.551000
O         6.642000        1.004000       -1.961000
H         5.758000        0.558000       -1.785000
H         8.273000        4.102000       -4.657000
H        12.741000        2.995000       -2.888000
C        13.428000        2.168000       -2.675000
H        13.675000        2.206000       -1.607000
C        12.803000        0.822000       -3.047000
H        12.592000        0.797000       -4.123000
H        13.520000        0.016000       -2.849000
C        11.515000        0.544000       -2.274000
H        11.709000        0.558000       -1.194000
H        10.768000        1.319000       -2.486000
S        10.843000       -1.088000       -2.734000
C         9.454000       -1.195000       -1.574000
H         8.678000       -0.455000       -1.790000
H         9.020000       -2.194000       -1.682000
H         9.814000       -1.063000       -0.548000
H        14.349000        2.343000       -3.240000
H        11.995000        2.889000        1.839000
C        11.125000        2.956000        1.178000
H        11.490000        3.075000        0.150000
C        10.241000        1.712000        1.297000
H        10.829000        0.822000        1.028000
H         9.925000        1.570000        2.336000
C         9.004000        1.751000        0.397000
H         9.293000        2.023000       -0.625000
H         8.540000        0.764000        0.337000
S         7.687000        2.905000        0.932000
C         6.464000        1.702000        1.540000
H         6.870000        1.118000        2.369000
H         5.578000        2.234000        1.900000
H         6.163000        1.029000        0.733000
H        10.564000        3.858000        1.446000
H         6.434000        5.898000       -0.334000
C         5.555000        5.731000       -0.963000
H         5.888000        5.263000       -1.896000
C         4.570000        4.801000       -0.248000
H         4.180000        5.260000        0.663000
H         3.728000        4.544000       -0.898000
H         5.063000        3.864000        0.021000
C         4.940000        7.095000       -1.224000
O         4.822000        7.947000       -0.353000
N         4.484000        7.299000       -2.501000
H         4.675000        6.575000       -3.179000
C         4.268000        8.635000       -3.030000
H         4.386000        9.305000       -2.173000
C         5.322000        8.959000       -4.105000
H         5.076000        8.385000       -5.005000
H         5.231000       10.017000       -4.376000
C         6.712000        8.637000       -3.616000
C         7.332000        7.434000       -3.953000
H         6.847000        6.757000       -4.653000
C         8.560000        7.071000       -3.406000
H         9.019000        6.123000       -3.681000
C         9.193000        7.921000       -2.503000
O        10.393000        7.625000       -1.929000
H        10.654000        6.735000       -2.191000
C         8.597000        9.135000       -2.163000
H         9.098000        9.787000       -1.455000
C         7.371000        9.477000       -2.714000
H         6.903000       10.414000       -2.421000
C         2.845000        8.760000       -3.593000
O         2.595000        8.553000       -4.773000
N         1.910000        9.122000       -2.675000
H         2.172000        9.024000       -1.702000
C         0.489000        9.018000       -2.973000
H         0.343000        9.343000       -4.005000
C        -0.025000        7.576000       -2.788000
H        -1.096000        7.553000       -3.026000
H         0.473000        6.953000       -3.541000
C         0.210000        7.001000       -1.420000
C         1.346000        6.360000       -0.984000
H         2.259000        6.162000       -1.528000
N         1.206000        5.950000        0.315000
H         1.857000        5.407000        0.889000
C        -0.041000        6.304000        0.751000
C        -0.646000        6.058000        1.988000
H        -0.107000        5.513000        2.758000
C        -1.935000        6.528000        2.165000
H        -2.444000        6.349000        3.108000
C        -2.608000        7.225000        1.139000
H        -3.620000        7.577000        1.313000
C        -2.004000        7.457000       -0.085000
H        -2.537000        7.991000       -0.868000
C        -0.699000        6.985000       -0.303000
H        -0.045000        9.704000       -2.307000
H        -7.525000        8.592000       -4.991000
C        -7.761000        7.553000       -4.736000
H        -6.814000        7.044000       -4.530000
C        -8.710000        7.488000       -3.539000
H        -8.207000        7.890000       -2.648000
H        -9.573000        8.141000       -3.727000
C        -9.228000        6.077000       -3.222000
H        -9.744000        5.708000       -4.121000
C        -8.084000        5.113000       -2.903000
H        -7.499000        5.469000       -2.046000
H        -8.460000        4.114000       -2.656000
H        -7.401000        4.994000       -3.749000
C       -10.244000        6.117000       -2.077000
H       -11.049000        6.834000       -2.284000
H       -10.707000        5.136000       -1.919000
H        -9.762000        6.413000       -1.136000
H        -8.210000        7.084000       -5.619000
O         1.228000        0.951000        3.551000
H         0.821000        1.546000        4.192000
H         1.997000        1.484000        3.212000
O         0.333000       -1.569000        4.470000
H        -0.392000       -1.769000        3.864000
H         0.725000       -0.733000        4.135000
O        -0.327000        0.561000        8.498000
H         0.078000       -0.325000        8.477000
H         0.331000        1.139000        8.085000
O        -5.429000       -4.084000        5.972000
H        -5.122000       -3.625000        6.769000
H        -5.672000       -3.370000        5.361000
O        -5.423000       -1.926000        4.034000
H        -5.326000       -1.045000        4.423000
H        -4.504000       -2.249000        3.931000
O        -9.961000       -1.406000        2.845000
H        -9.111000       -1.075000        3.158000
H       -10.574000       -0.645000        2.885000
$end

$rem
JOBTYPE  SP
METHOD  WB97X-V
BASIS  6-31G(D)
SYMMETRY  FALSE
SYM_IGNORE  TRUE
MEM_TOTAL  10000
MEM_STATIC  2000
BASIS_LIN_DEP_THRESH  6
THRESH  14
SCF_CONVERGENCE  8
FD_MAT_VEC_PROD  FALSE
XC_GRID  000075000302
NL_GRID  1
MAX_SCF_CYCLES  200
ENV_METHOD  WB97X-V
GEN_SCFMAN_EMBED  TRUE
SPADE_PARTITION  TRUE
EMBEDDING_EARLY_STOP  TRUE
$end

--------------------------------------------------------------
 ----------------------------------------------------------------
             Standard Nuclear Orientation (Angstroms)
    I     Atom           X                Y                Z
 ----------------------------------------------------------------
    1      C       3.4050000000    -0.3030000000    -1.0840000000
    2      O       4.4830000000    -0.4200000000    -1.6810000000
    3      C       2.8190000000     0.9900000000    -0.8160000000
    4      C       1.6380000000     1.1440000000    -0.1710000000
    5      C       0.8350000000    -0.0470000000     0.3190000000
    6      C       1.1860000000    -1.3120000000    -0.4730000000
    7      C       2.6870000000    -1.5300000000    -0.5940000000
    8      C       1.1620000000     2.5250000000     0.1570000000
    9      C      -0.3550000000     2.6820000000     0.1520000000
   10      C      -1.0030000000     1.5790000000     0.9850000000
   11      C      -0.6880000000     0.2160000000     0.3330000000
   12      C      -2.5070000000     1.7490000000     1.1230000000
   13      C      -3.1780000000     0.6210000000     1.9290000000
   14      C      -2.9440000000    -0.7040000000     1.2000000000
   15      C      -1.4460000000    -0.9620000000     0.9780000000
   16      C      -3.0580000000     3.0360000000     1.7570000000
   17      C      -4.5000000000     2.6510000000     2.1820000000
   18      C      -4.6290000000     1.1420000000     1.8940000000
   19      C      -2.6750000000     0.5280000000     3.3790000000
   20      O      -5.5460000000     0.5390000000     2.7950000000
   21      H       3.3950000000     1.8570000000    -1.1320000000
   22      H       1.1370000000    -0.1840000000     1.3710000000
   23      H       0.7500000000    -1.2280000000    -1.4780000000
   24      H       0.7340000000    -2.1910000000    -0.0050000000
   25      H       3.1290000000    -1.7710000000     0.3820000000
   26      H       2.9330000000    -2.3660000000    -1.2550000000
   27      H       1.6350000000     3.2460000000    -0.5170000000
   28      H       1.5430000000     2.7730000000     1.1590000000
   29      H      -0.7410000000     2.6430000000    -0.8770000000
   30      H      -0.6100000000     3.6690000000     0.5470000000
   31      H      -0.5410000000     1.6010000000     1.9810000000
   32      H      -1.0190000000     0.2870000000    -0.7160000000
   33      H      -2.9330000000     1.6900000000     0.1070000000
   34      H      -3.4550000000    -0.6740000000     0.2270000000
   35      H      -3.3720000000    -1.5470000000     1.7600000000
   36      H      -0.9650000000    -1.2030000000     1.9360000000
   37      H      -1.3410000000    -1.8600000000     0.3570000000
   38      H      -3.0310000000     3.8840000000     1.0690000000
   39      H      -2.4510000000     3.3240000000     2.6240000000
   40      H      -5.2590000000     3.2180000000     1.6350000000
   41      H      -4.6740000000     2.8270000000     3.2480000000
   42      H      -4.9980000000     1.0080000000     0.8680000000
   43      H      -2.8820000000     1.4380000000     3.9500000000
   44      H      -3.1680000000    -0.3050000000     3.8880000000
   45      H      -1.5980000000     0.3430000000     3.4340000000
   46      H      -5.5540000000    -0.4140000000     2.6190000000
   47      H       8.3930000000    -7.5990000000    -3.8800000000
   48      C       7.8480000000    -7.0410000000    -3.1080000000
   49      H       7.9240000000    -7.6110000000    -2.1780000000
   50      C       8.5030000000    -5.6580000000    -2.9270000000
   51      H       9.5300000000    -5.8200000000    -2.5790000000
   52      H       8.5980000000    -5.1570000000    -3.8990000000
   53      C       7.7700000000    -4.7380000000    -1.9770000000
   54      C       7.9360000000    -4.7900000000    -0.5940000000
   55      H       8.6150000000    -5.5190000000    -0.1560000000
   56      C       7.2420000000    -3.9230000000     0.2580000000
   57      H       7.3620000000    -4.0150000000     1.3360000000
   58      C       6.3570000000    -2.9800000000    -0.2750000000
   59      O       5.6490000000    -2.1030000000     0.4650000000
   60      H       5.9700000000    -2.0140000000     1.3810000000
   61      C       6.1730000000    -2.9280000000    -1.6610000000
   62      H       5.4910000000    -2.1840000000    -2.0560000000
   63      C       6.8680000000    -3.7950000000    -2.4820000000
   64      H       6.7110000000    -3.7320000000    -3.5550000000
   65      C       6.3660000000    -7.0410000000    -3.4580000000
   66      O       5.5550000000    -7.7050000000    -2.8240000000
   67      N       5.9960000000    -6.2940000000    -4.5280000000
   68      H       6.6860000000    -5.7620000000    -5.0340000000
   69      C       4.6060000000    -6.2100000000    -4.9330000000
   70      H       4.0040000000    -5.9120000000    -4.0660000000
   71      C       4.3920000000    -5.2290000000    -6.0920000000
   72      H       5.0320000000    -5.5590000000    -6.9250000000
   73      C       2.9380000000    -5.3270000000    -6.5620000000
   74      H       2.2460000000    -5.1250000000    -5.7380000000
   75      H       2.7340000000    -4.6000000000    -7.3550000000
   76      H       2.7120000000    -6.3280000000    -6.9480000000
   77      C       4.7860000000    -3.7740000000    -5.7700000000
   78      H       5.8630000000    -3.7200000000    -5.5640000000
   79      H       4.6480000000    -3.1730000000    -6.6780000000
   80      C       4.0230000000    -3.1150000000    -4.6230000000
   81      H       4.1790000000    -3.6440000000    -3.6770000000
   82      H       4.3530000000    -2.0800000000    -4.4870000000
   83      H       2.9460000000    -3.0780000000    -4.8190000000
   84      H       4.2560000000    -7.2080000000    -5.2250000000
   85      H       2.8210000000    -8.0590000000    -1.1260000000
   86      C       2.0130000000    -7.3840000000    -0.8250000000
   87      H       2.0550000000    -7.2680000000     0.2660000000
   88      C       2.1630000000    -6.0230000000    -1.5140000000
   89      H       2.1200000000    -6.1930000000    -2.6010000000
   90      C       1.0190000000    -5.0780000000    -1.1380000000
   91      H       1.0540000000    -4.8430000000    -0.0660000000
   92      H       1.0860000000    -4.1320000000    -1.6890000000
   93      H       0.0370000000    -5.5220000000    -1.3450000000
   94      C       3.5180000000    -5.3910000000    -1.1890000000
   95      H       4.3440000000    -6.0600000000    -1.4480000000
   96      H       3.6590000000    -4.4530000000    -1.7360000000
   97      H       3.5890000000    -5.1510000000    -0.1200000000
   98      H       1.0530000000    -7.8540000000    -1.0730000000
   99      H       7.2060000000    -9.3230000000     3.3990000000
  100      C       7.8650000000    -8.4550000000     3.2870000000
  101      H       8.3200000000    -8.5090000000     2.2900000000
  102      C       7.0900000000    -7.1410000000     3.4530000000
  103      H       6.6340000000    -7.1420000000     4.4550000000
  104      C       8.0430000000    -5.9470000000     3.3700000000
  105      H       8.5310000000    -5.9080000000     2.3880000000
  106      H       7.5160000000    -5.0000000000     3.5230000000
  107      H       8.8360000000    -6.0080000000     4.1240000000
  108      C       5.9510000000    -7.0370000000     2.4260000000
  109      H       6.3800000000    -6.9230000000     1.4200000000
  110      H       5.4010000000    -7.9880000000     2.4160000000
  111      C       4.9580000000    -5.9030000000     2.6870000000
  112      H       5.4140000000    -4.9120000000     2.5820000000
  113      H       4.1240000000    -5.9520000000     1.9800000000
  114      H       4.5440000000    -5.9640000000     3.7000000000
  115      H       8.6690000000    -8.5380000000     4.0270000000
  116      H      14.2780000000    -4.4790000000     3.8170000000
  117      C      13.7810000000    -4.8380000000     4.7240000000
  118      H      13.6600000000    -3.9810000000     5.3960000000
  119      C      12.4240000000    -5.4650000000     4.3870000000
  120      H      12.5740000000    -6.3340000000     3.7360000000
  121      H      11.9600000000    -5.8420000000     5.3060000000
  122      C      11.4900000000    -4.4860000000     3.7150000000
  123      C      11.2750000000    -4.5110000000     2.3370000000
  124      H      11.7730000000    -5.2640000000     1.7320000000
  125      C      10.4290000000    -3.5980000000     1.7150000000
  126      H      10.2640000000    -3.6370000000     0.6420000000
  127      C       9.7780000000    -2.6410000000     2.4860000000
  128      O       8.9040000000    -1.7320000000     1.9450000000
  129      H       8.6400000000    -2.0250000000     1.0570000000
  130      C       9.9960000000    -2.5760000000     3.8600000000
  131      H       9.5030000000    -1.8030000000     4.4440000000
  132      C      10.8440000000    -3.4960000000     4.4600000000
  133      H      11.0010000000    -3.4470000000     5.5350000000
  134      H      14.4400000000    -5.5630000000     5.2130000000
  135      H       5.0490000000     6.5140000000     4.2990000000
  136      C       4.2720000000     6.0670000000     3.6650000000
  137      H       4.4330000000     6.4510000000     2.6560000000
  138      C       4.4150000000     4.5460000000     3.6800000000
  139      H       5.3780000000     4.2590000000     3.2390000000
  140      H       4.4240000000     4.1750000000     4.7090000000
  141      C       3.2980000000     3.8030000000     2.9250000000
  142      O       2.4370000000     4.4860000000     2.3230000000
  143      O       3.3400000000     2.5390000000     2.9780000000
  144      C       2.9300000000     6.5100000000     4.2280000000
  145      O       2.4150000000     5.9450000000     5.1930000000
  146      N       2.3640000000     7.6100000000     3.6750000000
  147      C       1.1310000000     8.1610000000     4.2320000000
  148      H       1.2280000000     8.2820000000     5.3150000000
  149      H       0.2930000000     7.4800000000     4.0470000000
  150      C       0.9540000000     9.4830000000     3.4810000000
  151      H       1.4800000000    10.2890000000     4.0060000000
  152      H      -0.0980000000     9.7650000000     3.3880000000
  153      C       1.6190000000     9.2110000000     2.1260000000
  154      H       1.9230000000    10.1220000000     1.6020000000
  155      H       0.9320000000     8.6560000000     1.4800000000
  156      C       2.8170000000     8.3260000000     2.4830000000
  157      H       3.0620000000     7.6430000000     1.6670000000
  158      H       3.7120000000     8.9260000000     2.6980000000
  159      H       3.0420000000    -1.7350000000    10.6870000000
  160      C       2.6670000000    -1.1030000000     9.8710000000
  161      H       1.9090000000    -0.4430000000    10.3020000000
  162      C       3.8220000000    -0.2740000000     9.2860000000
  163      H       4.3040000000     0.2470000000    10.1220000000
  164      H       4.5940000000    -0.9260000000     8.8580000000
  165      C       3.3770000000     0.7350000000     8.2530000000
  166      C       2.6470000000     1.8620000000     8.6510000000
  167      H       2.3900000000     1.9900000000     9.7010000000
  168      C       2.2710000000     2.8270000000     7.7200000000
  169      H       1.7300000000     3.7130000000     8.0410000000
  170      C       2.6200000000     2.6800000000     6.3770000000
  171      H       2.3700000000     3.4670000000     5.6700000000
  172      C       3.3330000000     1.5540000000     5.9700000000
  173      H       3.6170000000     1.4650000000     4.9260000000
  174      C       3.6990000000     0.5850000000     6.9040000000
  175      H       4.2580000000    -0.2890000000     6.5760000000
  176      C       1.9570000000    -2.0110000000     8.8880000000
  177      O       0.7200000000    -2.0230000000     8.7810000000
  178      N       2.7170000000    -2.8570000000     8.1800000000
  179      H       3.7220000000    -2.7630000000     8.2010000000
  180      C       2.1270000000    -3.7840000000     7.2340000000
  181      H       1.4530000000    -3.2310000000     6.5700000000
  182      C       3.1950000000    -4.5150000000     6.4260000000
  183      H       3.8240000000    -5.1100000000     7.1010000000
  184      H       2.6740000000    -5.2320000000     5.7800000000
  185      C       4.0650000000    -3.6120000000     5.5780000000
  186      C       5.4540000000    -3.6980000000     5.6410000000
  187      H       5.9210000000    -4.3960000000     6.3320000000
  188      C       6.2690000000    -2.9350000000     4.8040000000
  189      H       7.3510000000    -3.0340000000     4.8490000000
  190      C       5.6780000000    -2.0710000000     3.8900000000
  191      O       6.3940000000    -1.3420000000     2.9830000000
  192      H       7.3510000000    -1.5170000000     3.0080000000
  193      C       4.2890000000    -1.9340000000     3.8430000000
  194      H       3.8500000000    -1.2230000000     3.1500000000
  195      C       3.4930000000    -2.7050000000     4.6740000000
  196      H       2.4120000000    -2.5900000000     4.6070000000
  197      H       1.5130000000    -4.5090000000     7.7820000000
  198      H      -1.4710000000    -3.4450000000     9.9390000000
  199      C      -2.4090000000    -2.8790000000     9.9750000000
  200      H      -3.1250000000    -3.4280000000    10.5900000000
  201      C      -2.1280000000    -1.4750000000    10.5540000000
  202      H      -1.8120000000    -0.8100000000     9.7450000000
  203      H      -3.0560000000    -1.0540000000    10.9570000000
  204      C      -1.0440000000    -1.5130000000    11.6360000000
  205      H      -1.3380000000    -2.1710000000    12.4590000000
  206      H      -0.1280000000    -1.9130000000    11.1850000000
  207      C      -0.7270000000    -0.1580000000    12.2600000000
  208      O      -0.8370000000     0.0440000000    13.4600000000
  209      N      -0.2650000000     0.7940000000    11.3990000000
  210      H      -0.1690000000     1.7200000000    11.7910000000
  211      H      -0.3430000000     0.7220000000    10.3810000000
  212      C      -2.9720000000    -2.7620000000     8.5670000000
  213      O      -4.1720000000    -2.8210000000     8.3230000000
  214      N      -2.0340000000    -2.5510000000     7.5940000000
  215      H      -1.0670000000    -2.4230000000     7.8800000000
  216      C      -2.4010000000    -2.1250000000     6.2580000000
  217      H      -3.3490000000    -1.5790000000     6.2950000000
  218      H      -1.6260000000    -1.4560000000     5.8730000000
  219      C      -2.5810000000    -3.2390000000     5.2430000000
  220      O      -2.8510000000    -2.9440000000     4.0690000000
  221      N      -2.4150000000    -4.4880000000     5.6810000000
  222      H      -2.2570000000    -4.5900000000     6.6720000000
  223      C      -2.7640000000    -5.6560000000     4.8930000000
  224      H      -3.4690000000    -5.3300000000     4.1260000000
  225      C      -1.5250000000    -6.3230000000     4.2810000000
  226      H      -0.8940000000    -6.6960000000     5.1010000000
  227      H      -1.8500000000    -7.2080000000     3.7140000000
  228      C      -0.6690000000    -5.4230000000     3.3710000000
  229      H      -0.4530000000    -4.4960000000     3.9200000000
  230      C       0.6710000000    -6.0960000000     3.0600000000
  231      H       0.5230000000    -7.0240000000     2.4910000000
  232      H       1.3120000000    -5.4380000000     2.4610000000
  233      H       1.2190000000    -6.3510000000     3.9760000000
  234      C      -1.3910000000    -5.0450000000     2.0750000000
  235      H      -2.3190000000    -4.5070000000     2.2810000000
  236      H      -0.7640000000    -4.3890000000     1.4610000000
  237      H      -1.6190000000    -5.9390000000     1.4790000000
  238      H      -3.3000000000    -6.3530000000     5.5440000000
  239      H      -6.4880000000    -6.4650000000     0.2580000000
  240      C      -5.9640000000    -5.7800000000    -0.4140000000
  241      H      -6.6650000000    -5.0160000000    -0.7670000000
  242      C      -4.8100000000    -5.0900000000     0.3600000000
  243      H      -4.0850000000    -5.8670000000     0.6360000000
  244      C      -4.0950000000    -4.0260000000    -0.4800000000
  245      H      -4.8020000000    -3.2610000000    -0.8250000000
  246      H      -3.3240000000    -3.5310000000     0.1200000000
  247      H      -3.6120000000    -4.4420000000    -1.3700000000
  248      C      -5.3600000000    -4.4720000000     1.6480000000
  249      H      -5.8500000000    -5.2180000000     2.2830000000
  250      H      -4.5570000000    -4.0110000000     2.2330000000
  251      H      -6.0920000000    -3.6860000000     1.4260000000
  252      C      -5.4660000000    -6.6000000000    -1.5810000000
  253      O      -5.1220000000    -7.7920000000    -1.4250000000
  254      N      -5.3990000000    -5.9760000000    -2.7650000000
  255      H      -5.7060000000    -5.0010000000    -2.8120000000
  256      C      -4.6960000000    -6.5070000000    -3.9210000000
  257      H      -4.1650000000    -7.4020000000    -3.5880000000
  258      C      -5.6280000000    -6.8040000000    -5.1200000000
  259      H      -5.7710000000    -5.9240000000    -5.7620000000
  260      H      -5.1460000000    -7.5600000000    -5.7550000000
  261      C      -7.0510000000    -7.2240000000    -4.7670000000
  262      H      -7.5320000000    -6.4260000000    -4.1920000000
  263      H      -7.5970000000    -7.2600000000    -5.7170000000
  264      C      -7.1990000000    -8.5110000000    -3.9630000000
  265      H      -6.8090000000    -8.4120000000    -2.9500000000
  266      H      -8.2530000000    -8.7910000000    -3.8760000000
  267      N      -6.5050000000    -9.6350000000    -4.6090000000
  268      H      -6.7700000000    -9.8010000000    -5.5700000000
  269      C      -5.4280000000   -10.2670000000    -4.1640000000
  270      N      -4.7940000000    -9.9220000000    -3.0500000000
  271      H      -4.9770000000    -9.0500000000    -2.4960000000
  272      H      -4.1420000000   -10.5760000000    -2.6460000000
  273      N      -4.9740000000   -11.3440000000    -4.8570000000
  274      H      -5.4490000000   -11.6340000000    -5.6970000000
  275      H      -3.9970000000   -11.5870000000    -4.7960000000
  276      C      -3.6930000000    -5.4410000000    -4.3400000000
  277      O      -3.8440000000    -4.2660000000    -4.0240000000
  278      N      -2.6710000000    -5.8600000000    -5.1080000000
  279      H      -2.5620000000    -6.8450000000    -5.2930000000
  280      C      -1.6510000000    -4.9350000000    -5.5550000000
  281      H      -2.1100000000    -3.9470000000    -5.5890000000
  282      C      -0.4300000000    -4.9240000000    -4.6370000000
  283      H       0.0970000000    -5.8850000000    -4.6580000000
  284      H       0.2720000000    -4.1420000000    -4.9450000000
  285      H      -0.7270000000    -4.7220000000    -3.6040000000
  286      H      -1.3650000000    -5.2010000000    -6.5780000000
  287      H       8.8220000000     2.1580000000    -9.1290000000
  288      C       7.9130000000     1.6410000000    -9.4560000000
  289      H       7.9840000000     1.4870000000   -10.5380000000
  290      C       7.7450000000     0.3070000000    -8.7240000000
  291      H       6.8500000000    -0.2080000000    -9.0930000000
  292      H       8.5970000000    -0.3450000000    -8.9470000000
  293      C       7.6310000000     0.4810000000    -7.2090000000
  294      H       8.5070000000     1.0160000000    -6.8210000000
  295      H       6.7410000000     1.0720000000    -6.9630000000
  296      S       7.5210000000    -1.1420000000    -6.3900000000
  297      C       7.3920000000    -0.6120000000    -4.6610000000
  298      H       6.4410000000    -0.1120000000    -4.4660000000
  299      H       7.4450000000    -1.5040000000    -4.0330000000
  300      H       8.2290000000     0.0380000000    -4.3890000000
  301      H       7.0630000000     2.3060000000    -9.2660000000
  302      H       2.3480000000     1.0420000000    -9.1320000000
  303      C       1.5730000000     0.2840000000    -8.9740000000
  304      H       1.2510000000    -0.0870000000    -9.9530000000
  305      C       2.1030000000    -0.8570000000    -8.0930000000
  306      H       1.3220000000    -1.6170000000    -7.9700000000
  307      H       2.9460000000    -1.3470000000    -8.5970000000
  308      C       2.5410000000    -0.3450000000    -6.7410000000
  309      C       1.7020000000    -0.4270000000    -5.6280000000
  310      H       0.7430000000    -0.9330000000    -5.7190000000
  311      C       2.0690000000     0.1460000000    -4.4130000000
  312      H       1.4020000000     0.0910000000    -3.5560000000
  313      C       3.2780000000     0.8250000000    -4.3010000000
  314      H       3.5630000000     1.3100000000    -3.3770000000
  315      C       4.1240000000     0.9070000000    -5.4030000000
  316      H       5.0530000000     1.4640000000    -5.3170000000
  317      C       3.7660000000     0.3150000000    -6.6080000000
  318      H       4.4310000000     0.3820000000    -7.4670000000
  319      H       0.7210000000     0.7760000000    -8.4940000000
  320      H      -3.1220000000    -0.4150000000    -5.3880000000
  321      C      -3.6060000000    -1.1920000000    -4.7860000000
  322      H      -3.3560000000    -2.1690000000    -5.2070000000
  323      C      -3.1080000000    -1.1180000000    -3.3270000000
  324      H      -3.7830000000    -1.7290000000    -2.7140000000
  325      C      -1.7050000000    -1.7050000000    -3.1910000000
  326      H      -0.9780000000    -1.1420000000    -3.7920000000
  327      H      -1.3750000000    -1.6730000000    -2.1470000000
  328      H      -1.6950000000    -2.7490000000    -3.5150000000
  329      C      -3.1520000000     0.3170000000    -2.8100000000
  330      H      -4.1420000000     0.7530000000    -2.9540000000
  331      H      -2.9220000000     0.3620000000    -1.7420000000
  332      H      -2.4260000000     0.9470000000    -3.3430000000
  333      C      -5.1090000000    -0.9800000000    -4.8690000000
  334      O      -5.6220000000     0.1100000000    -5.1100000000
  335      N      -5.8170000000    -2.1070000000    -4.6150000000
  336      H      -5.3020000000    -2.9420000000    -4.3560000000
  337      C      -7.2550000000    -2.1680000000    -4.4960000000
  338      H      -7.6420000000    -1.1780000000    -4.7510000000
  339      C      -7.8390000000    -3.2710000000    -5.4070000000
  340      H      -7.4250000000    -4.2290000000    -5.0700000000
  341      H      -8.9240000000    -3.3210000000    -5.2380000000
  342      C      -7.5450000000    -3.1500000000    -6.8970000000
  343      H      -8.1390000000    -2.3560000000    -7.3590000000
  344      H      -6.4840000000    -2.8980000000    -7.0280000000
  345      C      -7.8090000000    -4.5050000000    -7.6330000000
  346      O      -7.2530000000    -5.5120000000    -7.0970000000
  347      O      -8.5130000000    -4.4720000000    -8.6510000000
  348      C      -7.5990000000    -2.5580000000    -3.0700000000
  349      O      -6.9800000000    -3.4470000000    -2.4740000000
  350      N      -8.6490000000    -1.9180000000    -2.5340000000
  351      H      -9.2450000000    -1.3380000000    -3.1100000000
  352      C      -9.1180000000    -2.1660000000    -1.1970000000
  353      H      -9.3000000000    -3.2460000000    -1.0800000000
  354      C      -8.0880000000    -1.7710000000    -0.1220000000
  355      H      -8.4830000000    -2.0470000000     0.8620000000
  356      H      -7.2080000000    -2.4020000000    -0.2780000000
  357      C      -7.6600000000    -0.2990000000    -0.1000000000
  358      H      -8.5070000000     0.3700000000    -0.2900000000
  359      H      -7.2750000000    -0.0480000000     0.8940000000
  360      S      -6.3230000000     0.1010000000    -1.2880000000
  361      C      -7.1840000000     1.1280000000    -2.5040000000
  362      H      -7.3720000000     2.1320000000    -2.1140000000
  363      H      -6.5500000000     1.1790000000    -3.3930000000
  364      H      -8.1310000000     0.6610000000    -2.7820000000
  365      C     -10.4910000000    -1.5020000000    -1.0760000000
  366      O     -11.1470000000    -1.2310000000    -2.0790000000
  367      N     -10.9310000000    -1.3150000000     0.1840000000
  368      H     -10.3490000000    -1.5210000000     0.9980000000
  369      C     -12.2940000000    -0.9250000000     0.4560000000
  370      H     -12.7850000000    -0.8340000000    -0.5180000000
  371      C     -13.0330000000    -1.9930000000     1.2930000000
  372      H     -12.4890000000    -2.0950000000     2.2410000000
  373      C     -14.4660000000    -1.5490000000     1.5970000000
  374      H     -15.0260000000    -1.3720000000     0.6700000000
  375      H     -14.9920000000    -2.3250000000     2.1620000000
  376      H     -14.4910000000    -0.6310000000     2.1920000000
  377      C     -13.0170000000    -3.3400000000     0.5700000000
  378      H     -11.9950000000    -3.6870000000     0.3930000000
  379      H     -13.5300000000    -4.1000000000     1.1690000000
  380      H     -13.5240000000    -3.2710000000    -0.4000000000
  381      C     -12.3300000000     0.4180000000     1.1790000000
  382      O     -11.8560000000     0.5680000000     2.3100000000
  383      N     -12.9820000000     1.4020000000     0.5320000000
  384      H     -13.1470000000     1.2860000000    -0.4560000000
  385      C     -13.1230000000     2.7250000000     1.1050000000
  386      H     -13.4180000000     2.5990000000     2.1500000000
  387      C     -11.8440000000     3.5790000000     1.0350000000
  388      H     -11.0000000000     2.9490000000     1.3410000000
  389      H     -11.6690000000     3.8820000000    -0.0010000000
  390      C     -11.9250000000     4.7810000000     1.9190000000
  391      C     -12.0130000000     6.0910000000     1.5460000000
  392      H     -12.0250000000     6.5230000000     0.5550000000
  393      N     -12.0850000000     6.8970000000     2.6650000000
  394      H     -12.1050000000     7.9020000000     2.6570000000
  395      C     -12.0310000000     6.1080000000     3.7920000000
  396      C     -12.0550000000     6.4510000000     5.1460000000
  397      H     -12.1250000000     7.4860000000     5.4680000000
  398      C     -11.9780000000     5.4180000000     6.0650000000
  399      H     -11.9900000000     5.6490000000     7.1260000000
  400      C     -11.8790000000     4.0750000000     5.6530000000
  401      H     -11.8150000000     3.2930000000     6.4050000000
  402      C     -11.8560000000     3.7390000000     4.3110000000
  403      H     -11.7740000000     2.7020000000     3.9920000000
  404      C     -11.9340000000     4.7670000000     3.3590000000
  405      H     -13.9440000000     3.2320000000     0.5900000000
  406      H     -12.6070000000     2.0120000000    -4.1090000000
  407      C     -11.6320000000     1.6030000000    -4.3910000000
  408      H     -11.5150000000     1.7060000000    -5.4750000000
  409      C     -10.5050000000     2.3380000000    -3.6760000000
  410      H      -9.5280000000     1.9880000000    -4.0200000000
  411      H     -10.5660000000     3.4140000000    -3.8600000000
  412      S     -10.6650000000     2.0370000000    -1.8790000000
  413      H      -9.8690000000     3.0310000000    -1.4530000000
  414      H     -11.6230000000     0.5370000000    -4.1450000000
  415      H      -5.7630000000     3.0450000000    -5.4400000000
  416      C      -5.1190000000     3.8680000000    -5.1150000000
  417      H      -5.6630000000     4.8090000000    -5.2590000000
  418      C      -4.6840000000     3.6620000000    -3.6670000000
  419      H      -5.5590000000     3.7060000000    -3.0030000000
  420      H      -4.2880000000     2.6480000000    -3.5770000000
  421      C      -3.6250000000     4.6420000000    -3.1460000000
  422      H      -2.7420000000     4.5630000000    -3.7980000000
  423      C      -4.1110000000     6.0930000000    -3.1830000000
  424      H      -5.0280000000     6.2070000000    -2.5890000000
  425      H      -3.3570000000     6.7660000000    -2.7600000000
  426      H      -4.3240000000     6.4280000000    -4.2050000000
  427      C      -3.2030000000     4.2490000000    -1.7300000000
  428      H      -2.8680000000     3.2060000000    -1.6990000000
  429      H      -2.3890000000     4.8790000000    -1.3540000000
  430      H      -4.0480000000     4.3440000000    -1.0350000000
  431      H      -4.2490000000     3.8870000000    -5.7810000000
  432      H       0.3500000000     4.1180000000    -6.2320000000
  433      C       1.1700000000     4.7150000000    -5.8160000000
  434      H       0.7420000000     5.6460000000    -5.4220000000
  435      C       1.9150000000     3.9480000000    -4.7270000000
  436      H       2.3350000000     3.0440000000    -5.1820000000
  437      C       3.0680000000     4.7870000000    -4.1780000000
  438      H       2.6760000000     5.7140000000    -3.7420000000
  439      H       3.6340000000     4.2420000000    -3.4130000000
  440      H       3.7620000000     5.0710000000    -4.9810000000
  441      C       0.9770000000     3.5090000000    -3.5990000000
  442      H       0.1460000000     2.9070000000    -3.9860000000
  443      H       1.5120000000     2.8990000000    -2.8610000000
  444      H       0.5530000000     4.3740000000    -3.0720000000
  445      H       1.8420000000     4.9870000000    -6.6380000000
  446      H       7.2160000000     2.7410000000    -5.0540000000
  447      C       7.4060000000     3.5270000000    -4.3150000000
  448      H       6.5330000000     4.1840000000    -4.2920000000
  449      C       7.6530000000     2.9260000000    -2.9330000000
  450      H       8.4960000000     2.2290000000    -2.9420000000
  451      H       7.8750000000     3.7140000000    -2.2020000000
  452      C       6.4110000000     2.2110000000    -2.4520000000
  453      O       5.3000000000     2.6990000000    -2.5510000000
  454      O       6.6420000000     1.0040000000    -1.9610000000
  455      H       5.7580000000     0.5580000000    -1.7850000000
  456      H       8.2730000000     4.1020000000    -4.6570000000
  457      H      12.7410000000     2.9950000000    -2.8880000000
  458      C      13.4280000000     2.1680000000    -2.6750000000
  459      H      13.6750000000     2.2060000000    -1.6070000000
  460      C      12.8030000000     0.8220000000    -3.0470000000
  461      H      12.5920000000     0.7970000000    -4.1230000000
  462      H      13.5200000000     0.0160000000    -2.8490000000
  463      C      11.5150000000     0.5440000000    -2.2740000000
  464      H      11.7090000000     0.5580000000    -1.1940000000
  465      H      10.7680000000     1.3190000000    -2.4860000000
  466      S      10.8430000000    -1.0880000000    -2.7340000000
  467      C       9.4540000000    -1.1950000000    -1.5740000000
  468      H       8.6780000000    -0.4550000000    -1.7900000000
  469      H       9.0200000000    -2.1940000000    -1.6820000000
  470      H       9.8140000000    -1.0630000000    -0.5480000000
  471      H      14.3490000000     2.3430000000    -3.2400000000
  472      H      11.9950000000     2.8890000000     1.8390000000
  473      C      11.1250000000     2.9560000000     1.1780000000
  474      H      11.4900000000     3.0750000000     0.1500000000
  475      C      10.2410000000     1.7120000000     1.2970000000
  476      H      10.8290000000     0.8220000000     1.0280000000
  477      H       9.9250000000     1.5700000000     2.3360000000
  478      C       9.0040000000     1.7510000000     0.3970000000
  479      H       9.2930000000     2.0230000000    -0.6250000000
  480      H       8.5400000000     0.7640000000     0.3370000000
  481      S       7.6870000000     2.9050000000     0.9320000000
  482      C       6.4640000000     1.7020000000     1.5400000000
  483      H       6.8700000000     1.1180000000     2.3690000000
  484      H       5.5780000000     2.2340000000     1.9000000000
  485      H       6.1630000000     1.0290000000     0.7330000000
  486      H      10.5640000000     3.8580000000     1.4460000000
  487      H       6.4340000000     5.8980000000    -0.3340000000
  488      C       5.5550000000     5.7310000000    -0.9630000000
  489      H       5.8880000000     5.2630000000    -1.8960000000
  490      C       4.5700000000     4.8010000000    -0.2480000000
  491      H       4.1800000000     5.2600000000     0.6630000000
  492      H       3.7280000000     4.5440000000    -0.8980000000
  493      H       5.0630000000     3.8640000000     0.0210000000
  494      C       4.9400000000     7.0950000000    -1.2240000000
  495      O       4.8220000000     7.9470000000    -0.3530000000
  496      N       4.4840000000     7.2990000000    -2.5010000000
  497      H       4.6750000000     6.5750000000    -3.1790000000
  498      C       4.2680000000     8.6350000000    -3.0300000000
  499      H       4.3860000000     9.3050000000    -2.1730000000
  500      C       5.3220000000     8.9590000000    -4.1050000000
  501      H       5.0760000000     8.3850000000    -5.0050000000
  502      H       5.2310000000    10.0170000000    -4.3760000000
  503      C       6.7120000000     8.6370000000    -3.6160000000
  504      C       7.3320000000     7.4340000000    -3.9530000000
  505      H       6.8470000000     6.7570000000    -4.6530000000
  506      C       8.5600000000     7.0710000000    -3.4060000000
  507      H       9.0190000000     6.1230000000    -3.6810000000
  508      C       9.1930000000     7.9210000000    -2.5030000000
  509      O      10.3930000000     7.6250000000    -1.9290000000
  510      H      10.6540000000     6.7350000000    -2.1910000000
  511      C       8.5970000000     9.1350000000    -2.1630000000
  512      H       9.0980000000     9.7870000000    -1.4550000000
  513      C       7.3710000000     9.4770000000    -2.7140000000
  514      H       6.9030000000    10.4140000000    -2.4210000000
  515      C       2.8450000000     8.7600000000    -3.5930000000
  516      O       2.5950000000     8.5530000000    -4.7730000000
  517      N       1.9100000000     9.1220000000    -2.6750000000
  518      H       2.1720000000     9.0240000000    -1.7020000000
  519      C       0.4890000000     9.0180000000    -2.9730000000
  520      H       0.3430000000     9.3430000000    -4.0050000000
  521      C      -0.0250000000     7.5760000000    -2.7880000000
  522      H      -1.0960000000     7.5530000000    -3.0260000000
  523      H       0.4730000000     6.9530000000    -3.5410000000
  524      C       0.2100000000     7.0010000000    -1.4200000000
  525      C       1.3460000000     6.3600000000    -0.9840000000
  526      H       2.2590000000     6.1620000000    -1.5280000000
  527      N       1.2060000000     5.9500000000     0.3150000000
  528      H       1.8570000000     5.4070000000     0.8890000000
  529      C      -0.0410000000     6.3040000000     0.7510000000
  530      C      -0.6460000000     6.0580000000     1.9880000000
  531      H      -0.1070000000     5.5130000000     2.7580000000
  532      C      -1.9350000000     6.5280000000     2.1650000000
  533      H      -2.4440000000     6.3490000000     3.1080000000
  534      C      -2.6080000000     7.2250000000     1.1390000000
  535      H      -3.6200000000     7.5770000000     1.3130000000
  536      C      -2.0040000000     7.4570000000    -0.0850000000
  537      H      -2.5370000000     7.9910000000    -0.8680000000
  538      C      -0.6990000000     6.9850000000    -0.3030000000
  539      H      -0.0450000000     9.7040000000    -2.3070000000
  540      H      -7.5250000000     8.5920000000    -4.9910000000
  541      C      -7.7610000000     7.5530000000    -4.7360000000
  542      H      -6.8140000000     7.0440000000    -4.5300000000
  543      C      -8.7100000000     7.4880000000    -3.5390000000
  544      H      -8.2070000000     7.8900000000    -2.6480000000
  545      H      -9.5730000000     8.1410000000    -3.7270000000
  546      C      -9.2280000000     6.0770000000    -3.2220000000
  547      H      -9.7440000000     5.7080000000    -4.1210000000
  548      C      -8.0840000000     5.1130000000    -2.9030000000
  549      H      -7.4990000000     5.4690000000    -2.0460000000
  550      H      -8.4600000000     4.1140000000    -2.6560000000
  551      H      -7.4010000000     4.9940000000    -3.7490000000
  552      C     -10.2440000000     6.1170000000    -2.0770000000
  553      H     -11.0490000000     6.8340000000    -2.2840000000
  554      H     -10.7070000000     5.1360000000    -1.9190000000
  555      H      -9.7620000000     6.4130000000    -1.1360000000
  556      H      -8.2100000000     7.0840000000    -5.6190000000
  557      O       1.2280000000     0.9510000000     3.5510000000
  558      H       0.8210000000     1.5460000000     4.1920000000
  559      H       1.9970000000     1.4840000000     3.2120000000
  560      O       0.3330000000    -1.5690000000     4.4700000000
  561      H      -0.3920000000    -1.7690000000     3.8640000000
  562      H       0.7250000000    -0.7330000000     4.1350000000
  563      O      -0.3270000000     0.5610000000     8.4980000000
  564      H       0.0780000000    -0.3250000000     8.4770000000
  565      H       0.3310000000     1.1390000000     8.0850000000
  566      O      -5.4290000000    -4.0840000000     5.9720000000
  567      H      -5.1220000000    -3.6250000000     6.7690000000
  568      H      -5.6720000000    -3.3700000000     5.3610000000
  569      O      -5.4230000000    -1.9260000000     4.0340000000
  570      H      -5.3260000000    -1.0450000000     4.4230000000
  571      H      -4.5040000000    -2.2490000000     3.9310000000
  572      O      -9.9610000000    -1.4060000000     2.8450000000
  573      H      -9.1110000000    -1.0750000000     3.1580000000
  574      H     -10.5740000000    -0.6450000000     2.8850000000
 ----------------------------------------------------------------
 Nuclear Repulsion Energy =      103490.78602422 hartrees
 There are      969 alpha and      969 beta electrons
 Requested basis set is 6-31G(d)
 There are 1645 shells and 4366 basis functions

 Total QAlloc Memory Limit  10000 MB
 Mega-Array Size      1956 MB
 MEM_STATIC part      2000 MB

 A cutoff of  1.0D-14 yielded 210066 shell pairs
 There are   1397517 function pairs
 Smallest overlap matrix eigenvalue = 3.49E-04

 Scale SEOQF with 1.000000e-02/1.000000e-02/1.000000e-02

 Standard Electronic Orientation quadrupole field applied
 Nucleus-field energy     =     0.0000001945 hartrees
 Guess from superposition of atomic densities
 Warning:  Energy on first SCF cycle will be non-variational
 SAD guess density has 1937.000005 electrons

 -----------------------------------------------------------------------
  General SCF calculation program by
  Eric Jon Sundstrom, Paul Horn, Yuezhi Mao, Dmitri Zuev, Alec White,
  David Stuck, Shaama M.S., Shane Yost, Joonho Lee, David Small,
  Daniel Levine, Susi Lehtola, Hugh Burton, Evgeny Epifanovsky,
  Bang C. Huynh
 -----------------------------------------------------------------------
=================================================
        Doing projection-based embedding         
      F. Manby et al. JCTC, 8, 2564 (2012)       
=================================================
 Exchange:     0.1670 Hartree-Fock + 1.0000 wB97X-V + LR-HF
 Correlation:  1.0000 wB97X-V
 Using Euler-Maclaurin-Lebedev (75,302) quadrature formula
 Nonlocal Correlation:  VV10 with C = 0.0100 and b = 6.00 and scale = 1.00000
 Grid used for NLC:  SG-1 standard quadrature

****************************************************
   Low-level SCF calculation for the whole system   
****************************************************
 Summary of the low-level theory: 
----------------------------------------------
 using 3 threads for integral computing
 -------------------------------------------------------
 OpenMP Integral computing Module                
 Release: version 1.0, May 2013, Q-Chem Inc. Pittsburgh 
 -------------------------------------------------------
 A restricted SCF calculation will be
 performed using DIIS
 SCF converges when DIIS error is below 1.0e-08
 User-specified cutoff of 10e-14
 used for neglect of 2-electron integrals.
 A cutoff of 10e-14
 used for neglect of overlap integrals.
 Incremental Fock algorithm is on at the start.
 ---------------------------------------
  Cycle       Energy         DIIS error
 ---------------------------------------
    1  -12943.5385844708      1.19e-02  
    2  -12870.5952805443      1.19e-03  
    3  -12870.7810638057      1.30e-03  
    4  -12873.5896323527      1.83e-04  
    5  -12873.6468393966      8.48e-05  
    6  -12873.6603800165      1.93e-05  
    7  -12873.6611846542      5.95e-06  
    8  -12873.6612852366      2.37e-06  
    9  -12873.6613028180      1.05e-06  
   10  -12873.6613069473      4.02e-07  
   11  -12873.6613075519      1.67e-07  
   12  -12873.6613076861      5.70e-08  
   13  -12873.6613077040      2.59e-08  
   14  -12873.6613077085      1.37e-08  
   15  -12873.6613077097      5.21e-09  Convergence criterion met
 ---------------------------------------
 SCF time:   CPU 108806.13s  wall 36369.00s 
 SCF   energy = -12873.66130771
 Total energy = -12873.66130771
 Integrated density by DFT XC:
   Number of electrons = 1938
   Numerical integral  =  1938.025409525873
   Relative error      =     0.0013111210 %

****************************************************
             Start embedding calculation            
****************************************************
----------------------------------------------
 Summary of the high-level theory: 
 Exchange:     0.1670 Hartree-Fock + 1.0000 wB97X-V + LR-HF
 Correlation:  1.0000 wB97X-V
 Using Euler-Maclaurin-Lebedev (75,302) quadrature formula
 Nonlocal Correlation:  VV10 with C = 0.0100 and b = 6.00 and scale = 1.00000
 Grid used for NLC:  SG-1 standard quadrature
----------------------------------------------
ExtEmbed::DEFAULT_EMEDDING == NULL
Doing R-in-R Embedding Calculation
Number of fragments: 2
Embedded fragment(s): 1 
NOcc for each fragment
           75
          894
NBasis for each fragment
          352
         4014
Variational space of the embedded problem: 
NOcc (active)  = 75
NOcc (fixed)   = 894
NVir (total)   = 3397
Read converged orbitals from disk
=========================================================
       Doing SPADE partition for the orbital space       
     D. Claudino and N. Mayhall JCTC 15, 1053 (2019)     
=========================================================
SPADE singular values:
[...]
    1  -0.0039418  -0.0195360   0.0006890  -0.0403069  -0.0206851   0.0305000
    2  -0.0025520   0.0278439   0.0013207   0.0076889  -0.0211600  -0.0179346
    3   0.0034722  -0.0248962  -0.0012894  -0.0034098   0.0170526   0.0010177
          199         200         201         202         203         204
    1   0.0001136  -0.0231946  -0.0002580   0.0085204  -0.0281012  -0.0001550
    2  -0.0000770  -0.0171026   0.0055923   0.0233320   0.0134956  -0.0016642
    3   0.0020675   0.0180676  -0.0016296  -0.0252464   0.0112213   0.0015176
          205         206         207         208         209         210
    1  -0.0077516   0.0283394  -0.0056714  -0.0111293   0.0174090   0.0037151
    2  -0.0177096  -0.0134083  -0.0083872   0.0153909  -0.0097373   0.0397321
    3   0.0275716  -0.0156758   0.0065326   0.1094362  -0.0049591   0.0180276
          211         212         213         214         215         216
    1  -0.0045665  -0.0052370  -0.1072403   0.0025825   0.0427578  -0.0023172
    2  -0.0008650   0.0001948  -0.0054056  -0.0131672   0.0063826   0.0099202
    3  -0.0455208   0.0104196  -0.0113829   0.0004519   0.0121026  -0.0153962
          217         218         219         220         221         222
    1  -0.0292811   0.0267516  -0.0021650  -0.0180658   0.0084783   0.0064700
    2   0.0181457   0.0221113   0.0084346   0.0252029  -0.0000535  -0.0024249
    3   0.0030765  -0.0149752   0.0008175  -0.1030231  -0.0074013   0.0444981
          223         224         225         226         227         228
    1  -0.0066427  -0.0248629   0.0013576   0.0199090  -0.0091397  -0.0006037
    2  -0.0130339   0.0126256   0.0040617  -0.0118094  -0.0262320   0.0032053
    3  -0.0146895  -0.0236544  -0.0027153   0.0231340  -0.0173391  -0.0003886
          229         230         231         232         233         234
    1   0.0056637  -0.0039520  -0.0036241   0.0191101   0.0166274  -0.0016238
    2   0.0309974   0.0028689  -0.0263462   0.0208266  -0.0067210   0.0029273
    3   0.0160559  -0.0000998  -0.0178177  -0.0177294   0.0261341   0.0025996
          235         236         237         238         239         240
    1  -0.0273196   0.0178112  -0.0079871  -0.0211417  -0.0164892  -0.0011725
    2   0.0209779   0.0225670  -0.0247900  -0.0198037  -0.0203827   0.0063638
    3   0.0078966  -0.0200475  -0.0196113   0.0173401   0.0220086   0.0048634
          241         242         243         244         245         246
    1  -0.0222495   0.0038305   0.0236560  -0.0009294  -0.0201704   0.0238784
    2   0.0274347   0.0038673  -0.0227888   0.0023788   0.0259577   0.0187071
    3  -0.0104740   0.0030870   0.0098288   0.0004407  -0.0119759   0.0179997
          247         248         249         250         251         252
    1   0.0148296   0.0016551  -0.0144865   0.0228426  -0.0203615  -0.0023061
    2  -0.0074365   0.0035197  -0.0189866   0.0181672   0.0279154   0.0050141
    3  -0.0287459  -0.0000965   0.0219089   0.0190409  -0.0026043   0.0122149
          253         254         255         256         257         258
    1   0.0254187  -0.0104948  -0.0139917   0.0035543   0.0169987  -0.0055446
    2  -0.0911933   0.0044900   0.0443500  -0.0057288  -0.0285801   0.0090951
    3   0.0322939   0.0008526  -0.0002750  -0.0134776   0.0142618  -0.0076663
          259         260         261         262         263         264
    1  -0.0120690   0.0124250  -0.0026945  -0.0150392  -0.0156546  -0.0102448
    2   0.0240394  -0.0188151   0.0061762   0.0282668   0.0118991   0.0244241
    3  -0.0264928  -0.0250876  -0.0061632   0.0134794  -0.0318001   0.0095390
          265         266         267         268         269         270
    1   0.0078822  -0.0342255  -0.0153727  -0.0141542  -0.0015284   0.0010104
    2   0.0090334  -0.0053564   0.0029295  -0.0035595   0.0068767   0.0220224
    3   0.0354690   0.0044152   0.0082717  -0.0440835   0.0022651   0.0139229
          271         272         273         274         275         276
    1  -0.0056703   0.0289592  -0.0087338  -0.0208541   0.0432632  -0.0098836
    2   0.0337863  -0.0276491  -0.0230939  -0.0165838  -0.0126361   0.0010524
    3   0.0261985   0.0231848   0.0151208  -0.0375271   0.0012956   0.0069176
          277         278         279         280         281         282
    1  -0.0111189  -0.0042426   0.0043653   0.0119912  -0.0156360  -0.0016779
    2   0.1042160   0.0084291  -0.0429346   0.0167752   0.0324423   0.0014629
    3   0.0312777  -0.0027996  -0.0093351  -0.0054217  -0.0001886   0.0027830
          283         284         285         286         287         288
    1   0.0181201   0.0213484  -0.0077471   0.0079453   0.0274369  -0.0001930
    2  -0.0278478   0.0242660   0.0074579  -0.0044681   0.0168981   0.0001800
    3   0.0021567  -0.0062948   0.0332612  -0.0331384   0.0081333  -0.0001616
          289         290         291         292         293         294
    1   0.0020716   0.0004409  -0.0269348   0.0261918   0.0013528   0.0281220
    2  -0.0031491  -0.0010431  -0.0170641  -0.0213280   0.0114102   0.0158372
    3  -0.0326570  -0.0032909  -0.0124377  -0.0076992  -0.0078531   0.0115291
          295         296         297         298         299         300
    1  -0.0276661   0.0012362   0.0013310  -0.0266424   0.0065617   0.0311803
    2   0.0179925  -0.0397406   0.0049041   0.0140957  -0.0281096   0.0183815
    3   0.0063169  -0.0209789   0.0089849  -0.0011773   0.0185070   0.0071813
          301         302         303         304         305         306
    1  -0.0252304   0.0210645  -0.0012708  -0.0111119  -0.0011684  -0.0243350
    2   0.0214134   0.0244204   0.0011516  -0.0098378  -0.0001639  -0.0241652
    3   0.0038207  -0.0048949   0.0004232  -0.0299042  -0.0006058   0.0028022
          307         308         309         310         311         312
    1   0.0245939  -0.0011205   0.0047379  -0.0356874  -0.0000803  -0.0289062
    2  -0.0165464   0.0038716   0.0041367  -0.0166568   0.0019897  -0.0019132
    3  -0.0157759   0.0032578   0.0000954  -0.0025737  -0.0068092   0.0315008
          313         314         315         316         317         318
    1  -0.0085782   0.0024230  -0.0105098   0.0293886  -0.0074990   0.0226770
    2   0.0031576   0.0274168  -0.0013280   0.0242477   0.0003444   0.0015518
    3  -0.0077543   0.0297782  -0.0040990  -0.0008047   0.0045364  -0.0309525
          319         320         321         322         323         324
    1  -0.0264436   0.0128952   0.0018774   0.0079203  -0.0014886  -0.0219096
    2   0.0163394   0.0250392   0.0007649  -0.0308114   0.0004386  -0.0184644
    3   0.0138818  -0.0184788   0.0020648  -0.0112094   0.0055214   0.0222740
          325         326         327         328         329         330
    1  -0.0045523   0.0219672   0.0104632  -0.0025443  -0.0014959  -0.0291863
    2   0.0009424   0.0182427   0.0025441  -0.0310835  -0.0010219   0.0140601
    3   0.0016435  -0.0153643   0.0348558  -0.0071821   0.0022024  -0.0020205
          331         332         333         334         335         336
    1   0.0062637   0.0215196   0.0084676  -0.0409019   0.0044893   0.0239746
    2   0.0038203   0.0215115   0.0083318   0.0976547  -0.0012474  -0.0351979
    3   0.0375769  -0.0132861   0.0020076  -0.0241875  -0.0079044   0.0131196
          337         338         339         340         341         342
    1  -0.0158153  -0.0082121   0.0027231   0.0103844  -0.0332376  -0.0028996
    2  -0.0018939   0.0342846  -0.0044662  -0.0327738  -0.0052752  -0.0061523
    3  -0.0047895  -0.0111450  -0.0057405   0.0027470   0.0012083  -0.0081351
          343         344         345         346         347         348
    1  -0.0189766   0.0320299  -0.0037411   0.0387689  -0.0584451   0.0080476
    2   0.0209473   0.0076790  -0.0017442  -0.0761697   0.0031593  -0.0013842
    3  -0.0194625  -0.0057696  -0.0041706   0.0332492  -0.0844217  -0.0114919
          349         350         351         352         353         354
    1   0.0515759   0.0079733  -0.0301670   0.0000869  -0.0023087   0.0065851
    2  -0.0728283   0.0053070   0.0246264  -0.0031002  -0.0348504  -0.0016150
    3   0.0523962  -0.0007162  -0.0241587   0.0175854   0.0017433   0.0014027
          355         356         357         358         359         360
    1  -0.0066644   0.0289894  -0.0060096  -0.0250444   0.0154720   0.0470699
    2  -0.0106336  -0.0186987  -0.0017321   0.0219687   0.0055201  -0.0141869
    3   0.0323195  -0.0066585   0.0069388  -0.0074635   0.0247772   0.0036027
          361         362         363         364         365         366
    1  -0.0033963  -0.0020023   0.0194583  -0.0288179   0.0048267  -0.0584642
    2   0.0073379   0.0307940  -0.0000838  -0.0146148  -0.0012182   0.0230322
    3  -0.0116427   0.0130127  -0.0297306  -0.0071527  -0.0085715  -0.0898318
          367         368         369         370         371         372
    1   0.0081074   0.0251963  -0.0187849  -0.0134124   0.0006373   0.0174713
    2   0.0014359  -0.0091235  -0.0005685  -0.0003912  -0.0023240  -0.0038710
    3   0.0032584   0.0370798   0.0006003  -0.0339759   0.0021382   0.0297753
          373         374         375         376         377         378
    1   0.0016442  -0.0186646  -0.0165194  -0.0016162   0.0009188   0.0310650
    2  -0.0001581   0.0052814  -0.0225933   0.0274736   0.0011234  -0.0108785
    3  -0.0000486  -0.0270856   0.0171641   0.0187866   0.0000834  -0.0054408
          379         380         381         382         383         384
    1  -0.0143649  -0.0142817   0.0038153   0.0375056  -0.0113213  -0.0046790
    2  -0.0236743   0.0002441  -0.0107653   0.0171890  -0.0044748  -0.0043165
    3   0.0169362  -0.0303822   0.0000699   0.0963331   0.0073061  -0.0458902
          385         386         387         388         389         390
    1  -0.0006868  -0.0089122   0.0020152   0.0264972   0.0064992  -0.0006103
    2   0.0179376  -0.0029882  -0.0020026  -0.0197260   0.0079384   0.0053551
    3   0.0108585   0.0338520  -0.0028105   0.0095360  -0.0327557   0.0001704
          391         392         393         394         395         396
    1   0.0020930   0.0005441  -0.0031209  -0.0005825   0.0016250   0.0008253
    2  -0.0219948   0.0137803  -0.0048400   0.0463554  -0.0166792  -0.0095990
    3  -0.0058820  -0.0365700   0.0001961  -0.0004035   0.0152659   0.0035856
          397         398         399         400         401         402
    1  -0.0021113   0.0002836  -0.0000534  -0.0002131   0.0023808  -0.0004014
    2   0.0348415  -0.0015867   0.0076785   0.0041080  -0.0260058   0.0041566
    3   0.0127372  -0.0082243   0.0358683  -0.0069104   0.0245066   0.0056601
          403         404         405         406         407         408
    1   0.0029726   0.0006717  -0.0263795  -0.0302416  -0.0022030   0.0020798
    2  -0.0359441  -0.0011117   0.0186716   0.0113597  -0.0034990   0.0008222
    3  -0.0108461   0.0015552  -0.0131650   0.0079316  -0.0012385  -0.0327285
          409         410         411         412         413         414
    1   0.0025899   0.0318169  -0.0009301  -0.0213245   0.0335974  -0.0008051
    2   0.0024490  -0.0105632   0.0334294  -0.0305468   0.0385628  -0.0340742
    3  -0.0164639  -0.0107869  -0.0062455   0.0199453   0.0188051   0.0078334
          415         416         417         418         419         420
    1  -0.0170766   0.0005791  -0.0157306   0.0036628  -0.0253427   0.0119567
    2  -0.0274552  -0.0019674   0.0280014  -0.0007770  -0.0012662  -0.0318556
    3  -0.0099914   0.0019422  -0.0050661   0.0029026   0.0220450   0.0044919
          421         422         423         424         425         426
    1  -0.0002414   0.0283151   0.0024044  -0.0266311   0.0225701  -0.0056460
    2  -0.0028112  -0.0032901  -0.0045231   0.0030632   0.0182283   0.0093650
    3   0.0009550  -0.0186140   0.0018183   0.0189140   0.0142238  -0.0295404
          427         428         429         430         431         432
    1   0.0019099   0.0120285   0.0259887  -0.0227239   0.0260820  -0.0257138
    2   0.0002348  -0.0330735   0.0176980   0.0011325  -0.0008693  -0.0171992
    3   0.0004106   0.0056213   0.0163111   0.0254584  -0.0203591  -0.0119815
          433         434         435         436         437         438
    1   0.0003808  -0.0129309  -0.0014300   0.0112010  -0.0055212  -0.0139385
    2  -0.0003943   0.0285011  -0.0013274  -0.0274851  -0.0017999   0.0283711
    3   0.0040633   0.0112502  -0.0003893  -0.0134653   0.0024211   0.0133891
          439         440         441         442         443         444
    1   0.0156179   0.0181617   0.0000122  -0.0277937   0.0124112  -0.0150240
    2  -0.0174008   0.0090110   0.0030305  -0.0178449  -0.0149860   0.0256704
    3   0.0244212  -0.0256279   0.0010763  -0.0088601   0.0270669   0.0214740
          445         446         447         448         449         450
    1   0.0187049  -0.0056190  -0.0020453  -0.0292956   0.0047513   0.0291796
    2   0.0097735  -0.0200029   0.0039593   0.0208633   0.0045054  -0.0197505
    3  -0.0244022  -0.0257810  -0.0031191   0.0003645  -0.0006623  -0.0005610
          451         452         453         454         455         456
    1   0.0073907   0.0026727  -0.1011740   0.1024634   0.0046155   0.0255116
    2   0.0269972   0.0292804   0.0565542  -0.0368424   0.0099675   0.0192608
    3   0.0251112  -0.0104717  -0.0081480   0.0175285   0.0081419  -0.0127055
          457         458         459         460         461         462
    1  -0.0189431   0.0004043   0.0085538   0.0030655  -0.0051334   0.0220344
    2   0.0263433  -0.0003213   0.0026849  -0.0004709  -0.0019576  -0.0252625
    3  -0.0062483   0.0004550   0.0316414  -0.0016499  -0.0332455   0.0050637
          463         464         465         466         467         468
    1   0.0067674   0.0065828  -0.0221549   0.0170921  -0.0092770  -0.0203559
    2   0.0115996   0.0001147   0.0232356  -0.0272942   0.0003030   0.0224203
    3   0.0033648   0.0335775  -0.0064157  -0.0310944   0.0071929  -0.0062623
          469         470         471         472         473         474
    1  -0.0133186   0.0158650   0.0281317   0.0263296  -0.0019701   0.0123786
    2  -0.0321628   0.0059755   0.0064143  -0.0005566   0.0006509   0.0054867
    3  -0.0029240   0.0321444  -0.0164081   0.0205337   0.0014795  -0.0301987
          475         476         477         478         479         480
    1  -0.0002799   0.0185515  -0.0102512   0.0096502   0.0083896  -0.0132553
    2   0.0006155  -0.0271423  -0.0034886  -0.0068694   0.0095331  -0.0286905
    3   0.0030032  -0.0041797   0.0336578  -0.0005481  -0.0302440  -0.0003914
          481         482         483         484         485         486
    1  -0.0020673  -0.0138423   0.0073249  -0.0343008  -0.0119296  -0.0174495
    2   0.0457712  -0.0077268  -0.0182127   0.0138703  -0.0178184   0.0274681
    3  -0.0001673   0.0102700   0.0299676   0.0161772  -0.0163866   0.0095999
          487         488         489         490         491         492
    1   0.0270600  -0.0001976   0.0106068  -0.0061235  -0.0170075  -0.0308507
    2   0.0051131  -0.0021005  -0.0171053  -0.0030739   0.0101217  -0.0138147
    3   0.0210572   0.0020733  -0.0261271   0.0057742   0.0311824  -0.0168140
          493         494         495         496         497         498
    1   0.0094122   0.0048963  -0.0089149  -0.0191397   0.0047595  -0.0005279
    2  -0.0279989  -0.0054589   0.0739182  -0.0050896  -0.0326145   0.0176485
    3   0.0094797   0.0120428   0.0823185   0.0099166  -0.0283534  -0.0039976
          499         500         501         502         503         504
    1   0.0054212  -0.0012967  -0.0117236  -0.0036277   0.0031440   0.0006462
    2   0.0203472  -0.0007253  -0.0139181   0.0319513  -0.0020920   0.0075637
    3   0.0300758  -0.0021151  -0.0290974  -0.0110771   0.0042443   0.0062372
          505         506         507         508         509         510
    1  -0.0164002  -0.0055766   0.0134407  -0.0275392   0.0608737   0.0179620
    2  -0.0215573   0.0080036  -0.0311279   0.0086631   0.0730214  -0.0479808
    3  -0.0248278   0.0009911  -0.0105639  -0.0116345   0.0715141  -0.0112203
          511         512         513         514         515         516
    1  -0.0050424   0.0169343   0.0017319  -0.0163645   0.0072269  -0.0216389
    2  -0.0018161   0.0216681  -0.0077310   0.0314764  -0.0055393  -0.0194431
    3  -0.0029368   0.0250847  -0.0016102   0.0111105  -0.0050637  -0.1078287
          517         518         519         520         521         522
    1   0.0019499   0.0100966  -0.0180917  -0.0038772   0.0009882  -0.0325063
    2   0.0244996  -0.0057419  -0.0042501   0.0086782  -0.0010617  -0.0043829
    3  -0.0052303   0.0447033  -0.0041881  -0.0332268  -0.0024421  -0.0077315
          523         524         525         526         527         528
    1   0.0130925   0.0036372  -0.0099760   0.0309208   0.0072042   0.0250137
    2  -0.0195040  -0.0052073   0.0050745  -0.0078572  -0.0080235  -0.0311169
    3  -0.0222094   0.0049602  -0.0140617  -0.0188611   0.0078324   0.0293346
          529         530         531         532         533         534
    1  -0.0180545  -0.0054772   0.0207544   0.0059817  -0.0156165   0.0089853
    2   0.0010344  -0.0017909  -0.0232840  -0.0026216  -0.0082673  -0.0047560
    3   0.0033773  -0.0014828   0.0242969  -0.0079961   0.0309841  -0.0035612
          535         536         537         538         539         540
    1  -0.0338586   0.0010883  -0.0186574  -0.0007073  -0.0183152   0.0081094
    2   0.0103990  -0.0068879   0.0164504  -0.0038257   0.0210971   0.0300042
    3   0.0055165   0.0091778  -0.0255422   0.0015589   0.0202966  -0.0082928
          541         542         543         544         545         546
    1   0.0010145   0.0291465  -0.0002726   0.0156157  -0.0251999   0.0020498
    2  -0.0011304  -0.0148857  -0.0027962   0.0127182   0.0202656   0.0017084
    3   0.0012160   0.0057349   0.0010598   0.0269703  -0.0048851  -0.0008877
          547         548         549         550         551         552
    1  -0.0149086   0.0003761   0.0202064  -0.0069286   0.0219437   0.0033607
    2  -0.0111386   0.0012680   0.0091515  -0.0302518  -0.0051053  -0.0003261
    3  -0.0284683  -0.0014677   0.0259967   0.0061947  -0.0238149  -0.0025292
          553         554         555         556         557         558
    1  -0.0232525  -0.0149780   0.0148712  -0.0118012  -0.0211265  -0.0237790
    2   0.0209105  -0.0284938   0.0082090  -0.0142438  -0.0862247   0.0309341
    3  -0.0063291   0.0052477   0.0284419  -0.0276089  -0.0435943   0.0280317
          559         560         561         562         563         564
    1   0.0330720   0.0348813  -0.0363700   0.0204141  -0.0989758   0.0174291
    2   0.0265565  -0.0485485  -0.0087273   0.0456378   0.0231552  -0.0456975
    3  -0.0238646   0.0844028  -0.0346113  -0.0203810   0.0318357   0.0003529
          565         566         567         568         569         570
    1   0.0324816  -0.0076936   0.0161648  -0.0121377  -0.0868228   0.0028999
    2   0.0325406  -0.1117439   0.0195295   0.0334614  -0.0530221   0.0348867
    3  -0.0213899  -0.0185500   0.0422425  -0.0361639  -0.0428990   0.0092629
          571         572         573         574
    1   0.0442427  -0.0315608   0.0465686  -0.0348235
    2  -0.0154530  -0.1020328   0.0114095   0.0369679
    3  -0.0138199  -0.0252871   0.0167049   0.0004894
  --- DONE ESP SUMMARY ---
 Total job time:  35.88s(wall), 73.44s(cpu) 
 Sat May  2 20:08:20 2026

        *************************************************************
        *                                                           *
        *  Thank you very much for using Q-Chem.  Have a nice day.  *
        *                                                           *
        *************************************************************


