
Running Job 1 of 2 19nt_xstal_distance_cutoff5_optimized_spade_wb97x-v_631gd.in
qchem 19nt_xstal_distance_cutoff5_optimized_spade_wb97x-v_631gd.in_3894856.0 ./qchem3894856/ 1
srun -n 1 /cm/shared/apps/spack/0.17.3/cpu/b/opt/spack/linux-rocky8-zen2/gcc-10.2.0/qchem-6.0-rytxnwjazd34ekd2gqyi5ufsaimxsd3r/exe/qcprog.exe 19nt_xstal_distance_cutoff5_optimized_spade_wb97x-v_631gd.in_3894856.0 ./qchem3894856/

                  Welcome to Q-Chem
     A Quantum Leap Into The Future Of Chemistry


 Q-Chem 6.0, Q-Chem, Inc., Pleasanton, CA (2022)

 License issued to: University of California, San Diego (site)

 E. Epifanovsky,  A. T. B. Gilbert,  Xintian Feng,  Joonho Lee,  Yuezhi Mao,  
 N. Mardirossian,  P. Pokhilko,  A. White,  M. Wormit,  M. P. Coons,  
 A. L. Dempwolff,  Zhengting Gan,  D. Hait,  P. R. Horn,  L. D. Jacobson,  
 I. Kaliman,  J. Kussmann,  A. W. Lange,  Ka Un Lao,  D. S. Levine,  Jie Liu,  
 S. C. McKenzie,  A. F. Morrison,  K. Nanda,  F. Plasser,  D. R. Rehn,  
 M. L. Vidal,  Zhi-Qiang You,  Ying Zhu,  B. Alam,  B. Albrecht,  
 A. Aldossary,  E. Alguire,  J. H. Andersen,  V. Athavale,  D. Barton,  
 K. Begam,  A. Behn,  N. Bellonzi,  Y. A. Bernard,  E. J. Berquist,  
 H. Burton,  A. Carreras,  K. Carter-Fenk,  Romit Chakraborty,  
 Chandrima Chakravarty,  Junhan Chen,  A. D. Chien,  K. D. Closser,  
 V. Cofer-Shabica,  L. Cunha,  S. Dasgupta,  Jia Deng,  M. de Wergifosse,  
 M. Diedenhofen,  Hainam Do,  S. Ehlert,  Po-Tung Fang,  S. Fatehi,  
 Qingguo Feng,  T. Friedhoff,  B. Ganoe,  J. Gayvert,  Qinghui Ge,  
 G. Gidofalvi,  M. Goldey,  J. Gomes,  C. Gonzalez-Espinoza,  S. Gulania,  
 A. Gunina,  J. A. Gyamfi,  M. W. D. Hanson-Heine,  P. H. P. Harbach,  
 A. W. Hauser,  M. F. Herbst,  M. Hernandez Vera,  M. Hodecker,  
 Z. C. Holden,  S. Houck,  Xunkun Huang,  Kerwin Hui,  B. C. Huynh,  
 K. Ikeda,  M. Ivanov,  Hyunjun Ji,  Zuxin Jin,  Hanjie Jiang,  B. Kaduk,  
 S. Kaehler,  R. Kang,  K. Khistyaev,  Jaehoon Kim,  Yongbin Kim,  
 P. Klunzinger,  Z. Koczor-Benda,  Joong Hoon Koh,  D. Kosenkov,  
 Saikiran Kotaru,  L. Koulias,  T. Kowalczyk,  C. M. Krauter,  K. Kue,  
 A. Kunitsa,  T. Kus,  A. Landau,  K. V. Lawler,  D. Lefrancois,  S. Lehtola,  
 Rain Li,  Shaozhi Li,  Yi-Pei Li,  Jiashu Liang,  M. Liebenthal,  
 Hung-Hsuan Lin,  You-Sheng Lin,  Fenglai Liu,  Kuan-Yu Liu,  
 M. Loipersberger,  A. Luenser,  C. Malbon,  A. Manjanath,  P. Manohar,  
 E. Mansoor,  S. F. Manzer,  Shan-Ping Mao,  A. V. Marenich,  T. Markovich,  
 S. Mason,  F. Matz,  S. A. Maurer,  P. F. McLaughlin,  M. F. S. J. Menger,  
 J.-M. Mewes,  S. A. Mewes,  P. Morgante,  Mohammad Mostafanejad,  
 J. W. Mullinax,  K. J. Oosterbaan,  G. Paran,  V. Parravicini,  
 Alexander C. Paul,  Suranjan K. Paul,  F. Pavosevic,  Zheng Pei,  S. Prager,  
 E. I. Proynov,  E. Ramos,  B. Rana,  A. E. Rask,  A. Rettig,  R. M. Richard,  
 F. Rob,  E. Rossomme,  T. Scheele,  M. Scheurer,  M. Schneider,  
 P. E. Schneider,  N. Sergueev,  S. M. Sharada,  Hengyuan Shen,  
 W. Skomorowski,  D. W. Small,  C. J. Stein,  Yingli Su,  Yu-Chuan Su,  
 E. J. Sundstrom,  Zhen Tao,  J. Thirman,  Hung-Yi Tsai,  T. Tsuchimochi,  
 N. M. Tubman,  C. Utku,  S. P. Veccham,  O. Vydrov,  J. Wenzel,  
 Jonathan Wong,  J. Witte,  A. Yamada,  Chou-Hsun Yang,  Kun Yao,  
 S. Yeganeh,  S. R. Yost,  A. Zech,  F. Zeller,  Igor Ying Zhang,  
 Xing Zhang,  Yu Zhang,  D. Zuev,  A. Aspuru-Guzik,  A. T. Bell,  
 N. A. Besley,  K. B. Bravaya,  B. R. Brooks,  D. Casanova,  Jeng-Da Chai,  
 Hsing-Ta Chen,  S. Coriani,  C. J. Cramer,  A. E. DePrince, III,  
 R. A. DiStasio Jr.,  A. Dreuw,  B. D. Dunietz,  T. R. Furlani,  
 W. A. Goddard III,  S. Grimme,  S. Hammes-Schiffer,  T. Head-Gordon,  
 W. J. Hehre,  Chao-Ping Hsu,  T.-C. Jagau,  Yousung Jung,  A. Klamt,  
 Jing Kong,  D. S. Lambrecht,  Xiangyuan Li,  WanZhen Liang,  N. J. Mayhall,  
 C. W. McCurdy,  J. B. Neaton,  T. Neudecker,  C. Ochsenfeld,  
 J. A. Parkhill,  R. Peverati,  V. A. Rassolov,  Haisheng Ren,  Yihan Shao,  
 L. V. Slipchenko,  R. P. Steele,  J. E. Subotnik,  A. J. W. Thom,  
 A. Tkatchenko,  D. G. Truhlar,  T. Van Voorhis,  Fan Wang,  
 T. A. Wesolowski,  K. B. Whaley,  H. L. Woodcock III,  P. M. Zimmerman,  
 S. Faraji,  P. M. W. Gill,  M. Head-Gordon,  J. M. Herbert,  A. I. Krylov

 Contributors to earlier versions of Q-Chem not listed above: 
 R. D. Adamson,  B. Austin,  R. Baer,  J. Baker,  G. J. O. Beran,  
 K. Brandhorst,  S. T. Brown,  E. F. C. Byrd,  Arup K. Chakraborty,  
 G. K. L. Chan,  Chun-Min Chang,  Yunqing Chen,  C.-L. Cheng,  
 Siu Hung Chien,  D. M. Chipman,  D. L. Crittenden,  H. Dachsel,  
 R. J. Doerksen,  A. D. Dutoi,  R. G. Edgar,  J. Fosso-Tande,  
 L. Fusti-Molnar,  D. Ghosh,  A. Ghysels,  A. Golubeva-Zadorozhnaya,  
 J. Gonthier,  M. S. Gordon,  S. R. Gwaltney,  G. Hawkins,  J. E. Herr,  
 A. Heyden,  S. Hirata,  E. G. Hohenstein,  G. Kedziora,  F. J. Keil,  
 C. Kelley,  Jihan Kim,  R. A. King,  R. Z. Khaliullin,  P. P. Korambath,  
 W. Kurlancheek,  A. Laurent,  A. M. Lee,  M. S. Lee,  S. V. Levchenko,  
 Ching Yeh Lin,  D. Liotard,  E. Livshits,  R. C. Lochan,  I. Lotan,  
 L. A. Martinez-Martinez,  P. E. Maslen,  N. Nair,  D. P. O'Neill,  
 D. Neuhauser,  E. Neuscamman,  C. M. Oana,  R. Olivares-Amaya,  R. Olson,  
 T. M. Perrine,  B. Peters,  P. A. Pieniazek,  A. Prociuk,  Y. M. Rhee,  
 J. Ritchie,  M. A. Rohrdanz,  E. Rosta,  N. J. Russ,  H. F. Schaefer III,  
 M. W. Schmidt,  N. E. Schultz,  S. Sharma,  N. Shenvi,  C. D. Sherrill,  
 A. C. Simmonett,  A. Sodt,  T. Stein,  D. Stuck,  K. S. Thanthiriwatte,  
 V. Vanovschi,  L. Vogt,  Tao Wang,  A. Warshel,  M. A. Watson,  
 C. F. Williams,  Q. Wu,  X. Xu,  Jun Yang,  W. Zhang,  Yan Zhao

   Please cite Q-Chem as follows:
  "Software for the frontiers of quantum chemistry:
   An overview of developments in the Q-Chem 5 package"
   J. Chem. Phys. 155, 084801 (2021)
   https://doi.org/10.1063/5.0055522 (open access)

 Q-Chem 6.0.2 for Intel X86 EM64T Linux

 Parts of Q-Chem use Armadillo 9.900.5 (Nocturnal Misbehaviour).
 http://arma.sourceforge.net/

 Q-Chem begins on Tue Aug  6 12:59:09 2024  

 Host: 
0

     Scratch files written to ./qchem3894856//
 Dec722 |scratch|qcdevops|jenkins|workspace|build_RNUM    
 Processing $rem in /cm/shared/apps/spack/0.17.3/cpu/b/opt/spack/linux-rocky8-zen2/gcc-10.2.0/qchem-6.0-rytxnwjazd34ekd2gqyi5ufsaimxsd3r/config/preferences:
 Processing $rem in /home/hklem/.qchemrc:
 No nuclear gradient supported for projection-based embedding or EMFT. Set max ideriv = 0.

 Checking the input file for inconsistencies... 	...done.

--------------------------------------------------------------
User input:
--------------------------------------------------------------
$molecule
-1 1
--
0 1
C    -2.02300   0.14100    0.06400
O    -3.12100   -0.26600   -0.33000
C    -0.95400   -0.76800   0.41500
C    0.27900    -0.33900   0.76300
C    0.62500    1.13400    0.83000
C    -0.33800   1.99600    0.00900
C    -1.79500   1.61700    0.20900
C    1.31400    -1.33000   1.20500
C    2.73800    -0.95900   0.79500
C    3.05200    0.48100    1.19500
C    2.08900    1.42100    0.43900
C    4.49000    0.89800    0.91900
C    4.76100    2.35800    1.32700
C    3.88500    3.27600    0.47500
C    2.40200    2.91900    0.61200
C    5.64400    0.11500    1.56200
C    6.83900    1.10900    1.52800
C    6.26200    2.44700    1.01600
C    4.52800    2.61500    2.82500
O    6.94400    3.55500    1.58600
H    -1.19900   -1.82800   0.40600
H    0.51900    1.40200    1.89500
H    -0.08000   1.89700    -1.05600
H    -0.20900   3.05000    0.26500
H    -2.14100   1.88200    1.21800
H    -2.45400   2.14300    -0.48500
H    1.05000    -2.33000   0.84600
H    1.25300    -1.38300   2.30200
H    2.85800    -1.06600   -0.29100
H    3.44100    -1.65700   1.26000
H    2.85800    0.57000    2.27400
H    2.20600    1.18600    -0.63200
H    4.63200    0.85100    -0.17500
H    4.18700    3.17500    -0.57700
H    4.03200    4.33000    0.74600
H    2.01700    3.24000    1.58800
H    1.84200    3.49700    -0.13000
H    5.85600    -0.82100   1.03800
H    5.38900    -0.15900   2.59300
H    7.65000    0.75500    0.88400
H    7.26700    1.26700    2.52300
H    6.36600    2.48600    -0.08000
H    5.20700    2.03200    3.45400
H    4.69400    3.67200    3.04900
H    3.51100    2.36400    3.13600
H    6.32300    4.29500    1.64100
--
-1 1
H    -9.25900   4.57700    -3.04700
C    -8.49100   4.41200    -2.27900
H    -8.61200   5.18900    -1.52100
C    -8.70700   3.02800    -1.63800
H    -9.69600   3.03300    -1.16400
H    -8.75600   2.26000    -2.42200
C    -7.65100   2.63000    -0.63400
C    -7.77400   2.84200    0.73900
H    -8.66300   3.33300    1.12900
C    -6.78800   2.42000    1.63500
H    -6.91200   2.58800    2.70200
C    -5.65000   1.76500    1.15900
O    -4.66200   1.27600    1.94200
H    -4.76200   1.48800    2.89000
C    -5.50600   1.57000    -0.21700
H    -4.62900   1.04600    -0.57200
C    -6.49000   1.99800    -1.08500
H    -6.36000   1.82700    -2.14800
C    -7.12400   4.67200    -2.90000
O    -6.43600   5.62400    -2.56100
N    -6.72800   3.81100    -3.87900
H    -7.36100   3.09100    -4.19400
C    -5.50500   4.04400    -4.62200
H    -4.77200   4.44200    -3.91700
C    -4.95500   2.79100    -5.31400
H    -5.72900   2.41800    -6.00300
C    -3.74300   3.19000    -6.16100
H    -2.96300   3.65100    -5.54400
H    -3.30700   2.31000    -6.64700
H    -4.01800   3.91000    -6.94000
C    -4.61800   1.63700    -4.35200
H    -5.54500   1.26700    -3.89900
H    -4.23400   0.79500    -4.94200
C    -3.61700   1.97100    -3.24700
H    -3.99400   2.75500    -2.58100
H    -3.41800   1.08200    -2.64100
H    -2.65700   2.30400    -3.65900
H    -5.66900   4.83000    -5.37400
H    -3.84300   7.47500    -1.69600
C    -2.83300   7.05400    -1.65900
H    -2.35200   7.39800    -0.73400
C    -2.88700   5.52500    -1.69800
H    -3.39800   5.23800    -2.62600
C    -1.47900   4.92700    -1.73000
H    -0.93400   5.16500    -0.80700
H    -1.51600   3.83600    -1.82600
H    -0.89500   5.31900    -2.57100
C    -3.70800   4.97900    -0.52900
H    -4.72800   5.37600    -0.55400
H    -3.78600   3.88800    -0.56200
H    -3.24800   5.24900    0.43100
H    -2.26200   7.45600    -2.50400
H    -0.12500   -4.99800   7.00100
C    0.40000    -4.56200   6.14000
H    0.21900    -5.21600   5.28700
C    -0.16300   -3.17100   5.85000
H    -1.24400   -3.22600   5.66500
H    -0.01300   -2.52600   6.72200
C    0.50900    -2.49200   4.64900
O    1.44400    -3.09100   4.08800
O    0.06100    -1.34900   4.31200
C    1.87500    -4.47100   6.50300
O    2.30200    -3.56300   7.20800
N    2.69000    -5.46200   6.05800
C    4.13100    -5.36800   6.27400
H    4.34900    -5.20500   7.33300
H    4.53500    -4.51400   5.71500
C    4.66000    -6.69700   5.73300
H    4.62400    -7.46500   6.51500
H    5.69200    -6.61800   5.37900
C    3.67100    -7.03200   4.61200
H    3.66000    -8.09200   4.34300
H    3.91600    -6.45600   3.71300
C    2.32300    -6.55600   5.16800
H    1.67500    -6.21200   4.35800
H    1.80200    -7.35400   5.71600
H    -0.88800   5.63900    7.63600
C    -0.38900   6.08500    6.76800
H    0.32500    5.35500    6.37200
C    -1.41200   6.46000    5.68700
H    -2.08900   7.23600    6.06500
H    -0.88200   6.88700    4.82800
C    -2.20000   5.24700    5.25700
C    -3.44500   4.95700    5.81500
H    -3.91000   5.67500    6.48800
C    -4.08400   3.74400    5.56800
H    -5.03100   3.49900    6.03800
C    -3.47100   2.80500    4.74700
O    -4.06500   1.57600    4.58200
H    -3.33500   0.91300    4.62400
C    -2.26500   3.11000    4.11700
H    -1.80300   2.38000    3.46100
C    -1.63200   4.31600    4.38200
H    -0.65600   4.51100    3.94200
H    0.16900    6.96500    7.10900
H    4.17200    6.16300    6.01400
C    4.20700    5.57400    5.09100
H    5.13500    4.99900    5.06500
H    3.36100    4.87700    5.08700
C    4.12400    6.43400    3.85200
O    4.60500    6.08200    2.77600
N    3.45900    7.60900    4.01400
H    3.00200    7.76000    4.90100
C    3.11600    8.50500    2.92600
H    3.67600    8.15900    2.05400
C    1.61000    8.54400    2.63500
H    1.09500    9.00800    3.48900
H    1.45400    9.22000    1.78200
C    0.94400    7.19100    2.33800
H    1.04600    6.55200    3.22700
C    -0.55000   7.39200    2.06400
H    -0.69900   7.93400    1.12100
H    -1.06700   6.43000    1.98400
H    -1.03900   7.96700    2.85900
C    1.59600    6.46000    1.16300
H    2.63600    6.19100    1.37200
H    1.05100    5.53600    0.94100
H    1.57700    7.08300    0.25900
H    3.47100    9.51500    3.16500
H    5.80500    8.81300    -2.59000
C    5.16500    7.97900    -2.90100
H    5.80700    7.20400    -3.34000
C    4.37600    7.41000    -1.71500
H    3.73900    8.21300    -1.31500
C    3.46700    6.26000    -2.16000
H    4.06200    5.45000    -2.60000
H    2.91400    5.84100    -1.31100
H    2.73800    6.59100    -2.90900
C    5.31200    6.95200    -0.59400
H    6.02400    7.73900    -0.31700
H    4.76200    6.66800    0.31000
H    5.89000    6.07600    -0.91400
H    4.49400    8.34000    -3.68900
H    1.47300    4.82000    -5.88700
C    0.61800    4.48000    -6.48200
H    0.94900    4.39200    -7.52200
C    0.08000    3.14900    -5.95700
H    -0.25200   3.23600    -4.91700
H    -0.77400   2.80300    -6.54800
H    0.84900    2.36900    -5.99300
H    -0.15000   5.26000    -6.43900
H    -7.34800   -5.92200   -5.67300
C    -6.63200   -5.38600   -6.30600
H    -6.86400   -5.62000   -7.35000
C    -6.69600   -3.87800   -6.05400
H    -5.99700   -3.35900   -6.72300
H    -7.69900   -3.50700   -6.30000
C    -6.36700   -3.50800   -4.60800
H    -7.03900   -4.03200   -3.91700
H    -5.33900   -3.80600   -4.36700
S    -6.53700   -1.71200   -4.35100
C    -6.01200   -1.60500   -2.61800
H    -4.94600   -1.82400   -2.51500
H    -6.18600   -0.58300   -2.27500
H    -6.60600   -2.27600   -1.99100
H    -5.63300   -5.78000   -6.08600
H    -1.51700   -3.20800   -7.51600
C    -1.14600   -2.20100   -7.73500
H    -1.13600   -2.06900   -8.82200
C    -2.01900   -1.14000   -7.05100
H    -1.64600   -0.14000   -7.30300
H    -3.04400   -1.20300   -7.43900
C    -2.02800   -1.32000   -5.55200
C    -1.26300   -0.50300   -4.71800
H    -0.69800   0.32200    -5.14800
C    -1.21000   -0.73700   -3.34500
H    -0.60600   -0.09900   -2.70500
C    -1.91900   -1.79700   -2.79200
H    -1.88400   -2.00200   -1.73100
C    -2.68800   -2.61500   -3.61500
H    -3.22200   -3.45400   -3.17600
C    -2.74800   -2.37400   -4.98100
H    -3.35200   -3.01400   -5.62200
H    -0.11600   -2.14200   -7.37000
H    4.67400    1.24300    -5.77700
C    3.83000    1.84300    -5.40900
H    3.22700    2.13200    -6.27800
C    3.00700    1.04000    -4.39500
H    2.15800    1.66400    -4.07800
C    2.44500    -0.23500   -5.02900
H    3.26000    -0.90800   -5.32800
H    1.79900    -0.77900   -4.33100
H    1.85200    -0.01100   -5.92400
C    3.83800    0.71200    -3.15300
H    4.16000    1.62000    -2.63000
H    3.27200    0.09300    -2.44700
H    4.73800    0.14800    -3.43000
H    4.23300    2.75800    -4.95900
H    8.42800    5.09900    -4.36300
C    9.18900    5.35000    -3.61700
H    9.67400    6.28100    -3.93000
C    8.56200    5.49500    -2.23400
H    9.33000    5.78400    -1.50400
H    7.82700    6.30900    -2.24700
C    7.89100    4.22200    -1.71700
H    8.61300    3.40000    -1.66300
H    7.52000    4.36900    -0.69800
S    6.48800    3.64600    -2.74700
C    7.24000    2.20500    -3.55400
H    7.50300    1.44100    -2.81700
H    6.49400    1.78900    -4.23400
H    8.12600    2.48700    -4.12900
H    9.94800    4.55700    -3.62500
H    7.87600    -2.06900   -5.30200
C    6.90300    -2.44200   -4.96500
H    6.83900    -3.49800   -5.24600
C    6.72600    -2.24000   -3.46100
H    7.52200    -2.77400   -2.92100
H    6.86600    -1.17400   -3.22700
C    5.36700    -2.68500   -2.90300
H    4.58200    -2.17200   -3.48000
C    5.13700    -4.19000   -3.04400
H    5.85800    -4.74300   -2.43000
H    4.13400    -4.45200   -2.69100
H    5.22700    -4.53600   -4.08000
C    5.23200    -2.27100   -1.43800
H    5.25500    -1.18100   -1.32700
H    4.29500    -2.63700   -1.00800
H    6.04500    -2.69400   -0.83500
H    6.12600    -1.90500   -5.52300
H    1.89700    -4.67900   -4.58200
C    1.25600    -5.21100   -3.86900
H    1.89900    -5.87200   -3.27500
C    0.49500    -4.23300   -2.97200
H    -0.12700   -3.60500   -3.62000
C    -0.43100   -4.98500   -2.01300
H    0.15400    -5.62600   -1.33800
H    -1.02700   -4.30500   -1.39800
H    -1.12800   -5.63000   -2.56300
C    1.44100    -3.31000   -2.19800
H    2.13100    -2.78500   -2.87200
H    0.87400    -2.55200   -1.64400
H    2.04200    -3.87400   -1.47200
H    0.56400    -5.84100   -4.44100
H    -4.87400   -4.95500   -2.11700
C    -4.67800   -5.46500   -1.16700
H    -3.61900   -5.73600   -1.14100
C    -5.02100   -4.56400   0.01100
H    -6.05700   -4.21400   -0.03300
H    -4.88300   -5.09700   0.95900
C    -4.09000   -3.37800   0.03300
O    -2.89800   -3.47400   -0.19200
O    -4.69800   -2.22800   0.28000
H    -4.03100   -1.49800   0.13800
H    -5.27700   -6.38100   -1.14900
H    -9.52500   -6.05200   1.53200
C    -10.44600  -5.45900   1.57700
H    -10.56700  -5.11300   2.61000
C    -10.38800  -4.28100   0.60800
H    -10.29200  -4.64800   -0.42100
H    -11.32600  -3.71500   0.65400
C    -9.22400   -3.34600   0.92100
H    -9.30800   -2.97100   1.94900
H    -8.27300   -3.88900   0.84700
S    -9.21100   -1.93200   -0.22100
C    -7.89400   -0.94400   0.53600
H    -6.92300   -1.43900   0.46000
H    -7.84700   0.00200    -0.00600
H    -8.12500   -0.72800   1.58400
H    -11.28400  -6.12400   1.34400
H    -8.09500   -4.36500   5.66500
C    -7.41300   -4.39900   4.80900
H    -7.89600   -4.98300   4.01600
C    -7.07200   -2.99400   4.31300
H    -7.99500   -2.48100   4.00600
H    -6.63900   -2.40100   5.12700
C    -6.11500   -3.00000   3.12200
H    -6.49400   -3.67600   2.34700
H    -6.04100   -2.01100   2.66100
S    -4.41300   -3.54400   3.50600
C    -3.59600   -1.93100   3.66100
H    -3.93000   -1.40100   4.55500
H    -2.51900   -2.10100   3.73900
H    -3.78600   -1.31800   2.77400
H    -6.50700   -4.93100   5.11800
H    -2.10900   -6.25800   2.98000
C    -1.66100   -5.97000   2.02300
H    -2.45400   -5.95500   1.26900
C    -0.99600   -4.59900   2.11400
H    -0.18100   -4.58000   2.84500
H    -0.59500   -4.29300   1.14200
H    -1.72400   -3.83500   2.40000
H    -0.94200   -6.74800   1.74000
H    3.24000    -8.52600   0.43800
C    3.81900    -8.11700   -0.39700
H    3.75100    -8.81400   -1.24000
C    3.30100    -6.72800   -0.78300
H    3.86700    -6.36700   -1.65100
H    2.25700    -6.80900   -1.11000
C    3.38900    -5.73300   0.33400
C    2.34700    -5.24100   1.07600
H    1.29100    -5.44900   0.98200
N    2.79800    -4.37500   2.03900
H    2.22600    -3.85800   2.71500
C    4.16000    -4.28400   1.93500
C    5.06200    -3.51300   2.67600
H    4.70900    -2.86300   3.47100
C    6.40400    -3.60600   2.34400
H    7.13000    -3.01400   2.89400
C    6.84300    -4.45100   1.30500
H    7.90400    -4.49800   1.07200
C    5.94600    -5.21100   0.57300
H    6.29700    -5.85400   -0.23200
C    4.57700    -5.13100   0.87700
H    4.86600    -8.06800   -0.07900
H    10.70800   -4.52000   -5.45200
C    10.66700   -4.94400   -4.44300
H    10.86200   -4.13000   -3.73600
C    9.31200    -5.60800   -4.18500
H    8.51100    -4.86300   -4.28400
H    9.13300    -6.35600   -4.96800
C    9.18000    -6.29300   -2.81500
H    10.05800   -6.94300   -2.68000
C    9.15300    -5.28800   -1.66000
H    8.26600    -4.64400   -1.72400
H    9.11100    -5.80600   -0.69500
H    10.03800   -4.64200   -1.65100
C    7.92900    -7.17600   -2.77500
H    7.97100    -7.96200   -3.53800
H    7.81500    -7.66000   -1.79800
H    7.02800    -6.58100   -2.95800
H    11.48300   -5.67100   -4.34900
O    0.62800    1.40600    4.21400
H    -0.24200   1.38500    4.64800
H    0.82600    0.45400    4.12600
O    1.57200    4.05100    4.02800
H    2.20500    4.08600    3.30100
H    1.34100    3.10200    4.11500
O    -1.80100   0.21500    5.22600
H    -1.78400   0.16600    6.18800
H    -1.18400   -0.51400   4.90900
$end

$rem
JOBTYPE  SP
METHOD  WB97X-V
BASIS  6-31G(D)
SYMMETRY  FALSE
SYM_IGNORE  TRUE
MEM_TOTAL  12000
MEM_STATIC  4000
BASIS_LIN_DEP_THRESH  6
THRESH  14
SCF_CONVERGENCE  8
FD_MAT_VEC_PROD  FALSE
XC_GRID  000075000302
NL_GRID  1
MAX_SCF_CYCLES  200
ENV_METHOD  WB97X-V
GEN_SCFMAN_EMBED  TRUE
SPADE_PARTITION  TRUE
EMBEDDING_EARLY_STOP  TRUE
$end

--------------------------------------------------------------
 ----------------------------------------------------------------
             Standard Nuclear Orientation (Angstroms)
    I     Atom           X                Y                Z
 ----------------------------------------------------------------
    1      C      -2.0230000000     0.1410000000     0.0640000000
    2      O      -3.1210000000    -0.2660000000    -0.3300000000
    3      C      -0.9540000000    -0.7680000000     0.4150000000
    4      C       0.2790000000    -0.3390000000     0.7630000000
    5      C       0.6250000000     1.1340000000     0.8300000000
    6      C      -0.3380000000     1.9960000000     0.0090000000
    7      C      -1.7950000000     1.6170000000     0.2090000000
    8      C       1.3140000000    -1.3300000000     1.2050000000
    9      C       2.7380000000    -0.9590000000     0.7950000000
   10      C       3.0520000000     0.4810000000     1.1950000000
   11      C       2.0890000000     1.4210000000     0.4390000000
   12      C       4.4900000000     0.8980000000     0.9190000000
   13      C       4.7610000000     2.3580000000     1.3270000000
   14      C       3.8850000000     3.2760000000     0.4750000000
   15      C       2.4020000000     2.9190000000     0.6120000000
   16      C       5.6440000000     0.1150000000     1.5620000000
   17      C       6.8390000000     1.1090000000     1.5280000000
   18      C       6.2620000000     2.4470000000     1.0160000000
   19      C       4.5280000000     2.6150000000     2.8250000000
   20      O       6.9440000000     3.5550000000     1.5860000000
   21      H      -1.1990000000    -1.8280000000     0.4060000000
   22      H       0.5190000000     1.4020000000     1.8950000000
   23      H      -0.0800000000     1.8970000000    -1.0560000000
   24      H      -0.2090000000     3.0500000000     0.2650000000
   25      H      -2.1410000000     1.8820000000     1.2180000000
   26      H      -2.4540000000     2.1430000000    -0.4850000000
   27      H       1.0500000000    -2.3300000000     0.8460000000
   28      H       1.2530000000    -1.3830000000     2.3020000000
   29      H       2.8580000000    -1.0660000000    -0.2910000000
   30      H       3.4410000000    -1.6570000000     1.2600000000
   31      H       2.8580000000     0.5700000000     2.2740000000
   32      H       2.2060000000     1.1860000000    -0.6320000000
   33      H       4.6320000000     0.8510000000    -0.1750000000
   34      H       4.1870000000     3.1750000000    -0.5770000000
   35      H       4.0320000000     4.3300000000     0.7460000000
   36      H       2.0170000000     3.2400000000     1.5880000000
   37      H       1.8420000000     3.4970000000    -0.1300000000
   38      H       5.8560000000    -0.8210000000     1.0380000000
   39      H       5.3890000000    -0.1590000000     2.5930000000
   40      H       7.6500000000     0.7550000000     0.8840000000
   41      H       7.2670000000     1.2670000000     2.5230000000
   42      H       6.3660000000     2.4860000000    -0.0800000000
   43      H       5.2070000000     2.0320000000     3.4540000000
   44      H       4.6940000000     3.6720000000     3.0490000000
   45      H       3.5110000000     2.3640000000     3.1360000000
   46      H       6.3230000000     4.2950000000     1.6410000000
   47      H      -9.2590000000     4.5770000000    -3.0470000000
   48      C      -8.4910000000     4.4120000000    -2.2790000000
   49      H      -8.6120000000     5.1890000000    -1.5210000000
   50      C      -8.7070000000     3.0280000000    -1.6380000000
   51      H      -9.6960000000     3.0330000000    -1.1640000000
   52      H      -8.7560000000     2.2600000000    -2.4220000000
   53      C      -7.6510000000     2.6300000000    -0.6340000000
   54      C      -7.7740000000     2.8420000000     0.7390000000
   55      H      -8.6630000000     3.3330000000     1.1290000000
   56      C      -6.7880000000     2.4200000000     1.6350000000
   57      H      -6.9120000000     2.5880000000     2.7020000000
   58      C      -5.6500000000     1.7650000000     1.1590000000
   59      O      -4.6620000000     1.2760000000     1.9420000000
   60      H      -4.7620000000     1.4880000000     2.8900000000
   61      C      -5.5060000000     1.5700000000    -0.2170000000
   62      H      -4.6290000000     1.0460000000    -0.5720000000
   63      C      -6.4900000000     1.9980000000    -1.0850000000
   64      H      -6.3600000000     1.8270000000    -2.1480000000
   65      C      -7.1240000000     4.6720000000    -2.9000000000
   66      O      -6.4360000000     5.6240000000    -2.5610000000
   67      N      -6.7280000000     3.8110000000    -3.8790000000
   68      H      -7.3610000000     3.0910000000    -4.1940000000
   69      C      -5.5050000000     4.0440000000    -4.6220000000
   70      H      -4.7720000000     4.4420000000    -3.9170000000
   71      C      -4.9550000000     2.7910000000    -5.3140000000
   72      H      -5.7290000000     2.4180000000    -6.0030000000
   73      C      -3.7430000000     3.1900000000    -6.1610000000
   74      H      -2.9630000000     3.6510000000    -5.5440000000
   75      H      -3.3070000000     2.3100000000    -6.6470000000
   76      H      -4.0180000000     3.9100000000    -6.9400000000
   77      C      -4.6180000000     1.6370000000    -4.3520000000
   78      H      -5.5450000000     1.2670000000    -3.8990000000
   79      H      -4.2340000000     0.7950000000    -4.9420000000
   80      C      -3.6170000000     1.9710000000    -3.2470000000
   81      H      -3.9940000000     2.7550000000    -2.5810000000
   82      H      -3.4180000000     1.0820000000    -2.6410000000
   83      H      -2.6570000000     2.3040000000    -3.6590000000
   84      H      -5.6690000000     4.8300000000    -5.3740000000
   85      H      -3.8430000000     7.4750000000    -1.6960000000
   86      C      -2.8330000000     7.0540000000    -1.6590000000
   87      H      -2.3520000000     7.3980000000    -0.7340000000
   88      C      -2.8870000000     5.5250000000    -1.6980000000
   89      H      -3.3980000000     5.2380000000    -2.6260000000
   90      C      -1.4790000000     4.9270000000    -1.7300000000
   91      H      -0.9340000000     5.1650000000    -0.8070000000
   92      H      -1.5160000000     3.8360000000    -1.8260000000
   93      H      -0.8950000000     5.3190000000    -2.5710000000
   94      C      -3.7080000000     4.9790000000    -0.5290000000
   95      H      -4.7280000000     5.3760000000    -0.5540000000
   96      H      -3.7860000000     3.8880000000    -0.5620000000
   97      H      -3.2480000000     5.2490000000     0.4310000000
   98      H      -2.2620000000     7.4560000000    -2.5040000000
   99      H      -0.1250000000    -4.9980000000     7.0010000000
  100      C       0.4000000000    -4.5620000000     6.1400000000
  101      H       0.2190000000    -5.2160000000     5.2870000000
  102      C      -0.1630000000    -3.1710000000     5.8500000000
  103      H      -1.2440000000    -3.2260000000     5.6650000000
  104      H      -0.0130000000    -2.5260000000     6.7220000000
  105      C       0.5090000000    -2.4920000000     4.6490000000
  106      O       1.4440000000    -3.0910000000     4.0880000000
  107      O       0.0610000000    -1.3490000000     4.3120000000
  108      C       1.8750000000    -4.4710000000     6.5030000000
  109      O       2.3020000000    -3.5630000000     7.2080000000
  110      N       2.6900000000    -5.4620000000     6.0580000000
  111      C       4.1310000000    -5.3680000000     6.2740000000
  112      H       4.3490000000    -5.2050000000     7.3330000000
  113      H       4.5350000000    -4.5140000000     5.7150000000
  114      C       4.6600000000    -6.6970000000     5.7330000000
  115      H       4.6240000000    -7.4650000000     6.5150000000
  116      H       5.6920000000    -6.6180000000     5.3790000000
  117      C       3.6710000000    -7.0320000000     4.6120000000
  118      H       3.6600000000    -8.0920000000     4.3430000000
  119      H       3.9160000000    -6.4560000000     3.7130000000
  120      C       2.3230000000    -6.5560000000     5.1680000000
  121      H       1.6750000000    -6.2120000000     4.3580000000
  122      H       1.8020000000    -7.3540000000     5.7160000000
  123      H      -0.8880000000     5.6390000000     7.6360000000
  124      C      -0.3890000000     6.0850000000     6.7680000000
  125      H       0.3250000000     5.3550000000     6.3720000000
  126      C      -1.4120000000     6.4600000000     5.6870000000
  127      H      -2.0890000000     7.2360000000     6.0650000000
  128      H      -0.8820000000     6.8870000000     4.8280000000
  129      C      -2.2000000000     5.2470000000     5.2570000000
  130      C      -3.4450000000     4.9570000000     5.8150000000
  131      H      -3.9100000000     5.6750000000     6.4880000000
  132      C      -4.0840000000     3.7440000000     5.5680000000
  133      H      -5.0310000000     3.4990000000     6.0380000000
  134      C      -3.4710000000     2.8050000000     4.7470000000
  135      O      -4.0650000000     1.5760000000     4.5820000000
  136      H      -3.3350000000     0.9130000000     4.6240000000
  137      C      -2.2650000000     3.1100000000     4.1170000000
  138      H      -1.8030000000     2.3800000000     3.4610000000
  139      C      -1.6320000000     4.3160000000     4.3820000000
  140      H      -0.6560000000     4.5110000000     3.9420000000
  141      H       0.1690000000     6.9650000000     7.1090000000
  142      H       4.1720000000     6.1630000000     6.0140000000
  143      C       4.2070000000     5.5740000000     5.0910000000
  144      H       5.1350000000     4.9990000000     5.0650000000
  145      H       3.3610000000     4.8770000000     5.0870000000
  146      C       4.1240000000     6.4340000000     3.8520000000
  147      O       4.6050000000     6.0820000000     2.7760000000
  148      N       3.4590000000     7.6090000000     4.0140000000
  149      H       3.0020000000     7.7600000000     4.9010000000
  150      C       3.1160000000     8.5050000000     2.9260000000
  151      H       3.6760000000     8.1590000000     2.0540000000
  152      C       1.6100000000     8.5440000000     2.6350000000
  153      H       1.0950000000     9.0080000000     3.4890000000
  154      H       1.4540000000     9.2200000000     1.7820000000
  155      C       0.9440000000     7.1910000000     2.3380000000
  156      H       1.0460000000     6.5520000000     3.2270000000
  157      C      -0.5500000000     7.3920000000     2.0640000000
  158      H      -0.6990000000     7.9340000000     1.1210000000
  159      H      -1.0670000000     6.4300000000     1.9840000000
  160      H      -1.0390000000     7.9670000000     2.8590000000
  161      C       1.5960000000     6.4600000000     1.1630000000
  162      H       2.6360000000     6.1910000000     1.3720000000
  163      H       1.0510000000     5.5360000000     0.9410000000
  164      H       1.5770000000     7.0830000000     0.2590000000
  165      H       3.4710000000     9.5150000000     3.1650000000
  166      H       5.8050000000     8.8130000000    -2.5900000000
  167      C       5.1650000000     7.9790000000    -2.9010000000
  168      H       5.8070000000     7.2040000000    -3.3400000000
  169      C       4.3760000000     7.4100000000    -1.7150000000
  170      H       3.7390000000     8.2130000000    -1.3150000000
  171      C       3.4670000000     6.2600000000    -2.1600000000
  172      H       4.0620000000     5.4500000000    -2.6000000000
  173      H       2.9140000000     5.8410000000    -1.3110000000
  174      H       2.7380000000     6.5910000000    -2.9090000000
  175      C       5.3120000000     6.9520000000    -0.5940000000
  176      H       6.0240000000     7.7390000000    -0.3170000000
  177      H       4.7620000000     6.6680000000     0.3100000000
  178      H       5.8900000000     6.0760000000    -0.9140000000
  179      H       4.4940000000     8.3400000000    -3.6890000000
  180      H       1.4730000000     4.8200000000    -5.8870000000
  181      C       0.6180000000     4.4800000000    -6.4820000000
  182      H       0.9490000000     4.3920000000    -7.5220000000
  183      C       0.0800000000     3.1490000000    -5.9570000000
  184      H      -0.2520000000     3.2360000000    -4.9170000000
  185      H      -0.7740000000     2.8030000000    -6.5480000000
  186      H       0.8490000000     2.3690000000    -5.9930000000
  187      H      -0.1500000000     5.2600000000    -6.4390000000
  188      H      -7.3480000000    -5.9220000000    -5.6730000000
  189      C      -6.6320000000    -5.3860000000    -6.3060000000
  190      H      -6.8640000000    -5.6200000000    -7.3500000000
  191      C      -6.6960000000    -3.8780000000    -6.0540000000
  192      H      -5.9970000000    -3.3590000000    -6.7230000000
  193      H      -7.6990000000    -3.5070000000    -6.3000000000
  194      C      -6.3670000000    -3.5080000000    -4.6080000000
  195      H      -7.0390000000    -4.0320000000    -3.9170000000
  196      H      -5.3390000000    -3.8060000000    -4.3670000000
  197      S      -6.5370000000    -1.7120000000    -4.3510000000
  198      C      -6.0120000000    -1.6050000000    -2.6180000000
  199      H      -4.9460000000    -1.8240000000    -2.5150000000
  200      H      -6.1860000000    -0.5830000000    -2.2750000000
  201      H      -6.6060000000    -2.2760000000    -1.9910000000
  202      H      -5.6330000000    -5.7800000000    -6.0860000000
  203      H      -1.5170000000    -3.2080000000    -7.5160000000
  204      C      -1.1460000000    -2.2010000000    -7.7350000000
  205      H      -1.1360000000    -2.0690000000    -8.8220000000
  206      C      -2.0190000000    -1.1400000000    -7.0510000000
  207      H      -1.6460000000    -0.1400000000    -7.3030000000
  208      H      -3.0440000000    -1.2030000000    -7.4390000000
  209      C      -2.0280000000    -1.3200000000    -5.5520000000
  210      C      -1.2630000000    -0.5030000000    -4.7180000000
  211      H      -0.6980000000     0.3220000000    -5.1480000000
  212      C      -1.2100000000    -0.7370000000    -3.3450000000
  213      H      -0.6060000000    -0.0990000000    -2.7050000000
  214      C      -1.9190000000    -1.7970000000    -2.7920000000
  215      H      -1.8840000000    -2.0020000000    -1.7310000000
  216      C      -2.6880000000    -2.6150000000    -3.6150000000
  217      H      -3.2220000000    -3.4540000000    -3.1760000000
  218      C      -2.7480000000    -2.3740000000    -4.9810000000
  219      H      -3.3520000000    -3.0140000000    -5.6220000000
  220      H      -0.1160000000    -2.1420000000    -7.3700000000
  221      H       4.6740000000     1.2430000000    -5.7770000000
  222      C       3.8300000000     1.8430000000    -5.4090000000
  223      H       3.2270000000     2.1320000000    -6.2780000000
  224      C       3.0070000000     1.0400000000    -4.3950000000
  225      H       2.1580000000     1.6640000000    -4.0780000000
  226      C       2.4450000000    -0.2350000000    -5.0290000000
  227      H       3.2600000000    -0.9080000000    -5.3280000000
  228      H       1.7990000000    -0.7790000000    -4.3310000000
  229      H       1.8520000000    -0.0110000000    -5.9240000000
  230      C       3.8380000000     0.7120000000    -3.1530000000
  231      H       4.1600000000     1.6200000000    -2.6300000000
  232      H       3.2720000000     0.0930000000    -2.4470000000
  233      H       4.7380000000     0.1480000000    -3.4300000000
  234      H       4.2330000000     2.7580000000    -4.9590000000
  235      H       8.4280000000     5.0990000000    -4.3630000000
  236      C       9.1890000000     5.3500000000    -3.6170000000
  237      H       9.6740000000     6.2810000000    -3.9300000000
  238      C       8.5620000000     5.4950000000    -2.2340000000
  239      H       9.3300000000     5.7840000000    -1.5040000000
  240      H       7.8270000000     6.3090000000    -2.2470000000
  241      C       7.8910000000     4.2220000000    -1.7170000000
  242      H       8.6130000000     3.4000000000    -1.6630000000
  243      H       7.5200000000     4.3690000000    -0.6980000000
  244      S       6.4880000000     3.6460000000    -2.7470000000
  245      C       7.2400000000     2.2050000000    -3.5540000000
  246      H       7.5030000000     1.4410000000    -2.8170000000
  247      H       6.4940000000     1.7890000000    -4.2340000000
  248      H       8.1260000000     2.4870000000    -4.1290000000
  249      H       9.9480000000     4.5570000000    -3.6250000000
  250      H       7.8760000000    -2.0690000000    -5.3020000000
  251      C       6.9030000000    -2.4420000000    -4.9650000000
  252      H       6.8390000000    -3.4980000000    -5.2460000000
  253      C       6.7260000000    -2.2400000000    -3.4610000000
  254      H       7.5220000000    -2.7740000000    -2.9210000000
  255      H       6.8660000000    -1.1740000000    -3.2270000000
  256      C       5.3670000000    -2.6850000000    -2.9030000000
  257      H       4.5820000000    -2.1720000000    -3.4800000000
  258      C       5.1370000000    -4.1900000000    -3.0440000000
  259      H       5.8580000000    -4.7430000000    -2.4300000000
  260      H       4.1340000000    -4.4520000000    -2.6910000000
  261      H       5.2270000000    -4.5360000000    -4.0800000000
  262      C       5.2320000000    -2.2710000000    -1.4380000000
  263      H       5.2550000000    -1.1810000000    -1.3270000000
  264      H       4.2950000000    -2.6370000000    -1.0080000000
  265      H       6.0450000000    -2.6940000000    -0.8350000000
  266      H       6.1260000000    -1.9050000000    -5.5230000000
  267      H       1.8970000000    -4.6790000000    -4.5820000000
  268      C       1.2560000000    -5.2110000000    -3.8690000000
  269      H       1.8990000000    -5.8720000000    -3.2750000000
  270      C       0.4950000000    -4.2330000000    -2.9720000000
  271      H      -0.1270000000    -3.6050000000    -3.6200000000
  272      C      -0.4310000000    -4.9850000000    -2.0130000000
  273      H       0.1540000000    -5.6260000000    -1.3380000000
  274      H      -1.0270000000    -4.3050000000    -1.3980000000
  275      H      -1.1280000000    -5.6300000000    -2.5630000000
  276      C       1.4410000000    -3.3100000000    -2.1980000000
  277      H       2.1310000000    -2.7850000000    -2.8720000000
  278      H       0.8740000000    -2.5520000000    -1.6440000000
  279      H       2.0420000000    -3.8740000000    -1.4720000000
  280      H       0.5640000000    -5.8410000000    -4.4410000000
  281      H      -4.8740000000    -4.9550000000    -2.1170000000
  282      C      -4.6780000000    -5.4650000000    -1.1670000000
  283      H      -3.6190000000    -5.7360000000    -1.1410000000
  284      C      -5.0210000000    -4.5640000000     0.0110000000
  285      H      -6.0570000000    -4.2140000000    -0.0330000000
  286      H      -4.8830000000    -5.0970000000     0.9590000000
  287      C      -4.0900000000    -3.3780000000     0.0330000000
  288      O      -2.8980000000    -3.4740000000    -0.1920000000
  289      O      -4.6980000000    -2.2280000000     0.2800000000
  290      H      -4.0310000000    -1.4980000000     0.1380000000
  291      H      -5.2770000000    -6.3810000000    -1.1490000000
  292      H      -9.5250000000    -6.0520000000     1.5320000000
  293      C     -10.4460000000    -5.4590000000     1.5770000000
  294      H     -10.5670000000    -5.1130000000     2.6100000000
  295      C     -10.3880000000    -4.2810000000     0.6080000000
  296      H     -10.2920000000    -4.6480000000    -0.4210000000
  297      H     -11.3260000000    -3.7150000000     0.6540000000
  298      C      -9.2240000000    -3.3460000000     0.9210000000
  299      H      -9.3080000000    -2.9710000000     1.9490000000
  300      H      -8.2730000000    -3.8890000000     0.8470000000
  301      S      -9.2110000000    -1.9320000000    -0.2210000000
  302      C      -7.8940000000    -0.9440000000     0.5360000000
  303      H      -6.9230000000    -1.4390000000     0.4600000000
  304      H      -7.8470000000     0.0020000000    -0.0060000000
  305      H      -8.1250000000    -0.7280000000     1.5840000000
  306      H     -11.2840000000    -6.1240000000     1.3440000000
  307      H      -8.0950000000    -4.3650000000     5.6650000000
  308      C      -7.4130000000    -4.3990000000     4.8090000000
  309      H      -7.8960000000    -4.9830000000     4.0160000000
  310      C      -7.0720000000    -2.9940000000     4.3130000000
  311      H      -7.9950000000    -2.4810000000     4.0060000000
  312      H      -6.6390000000    -2.4010000000     5.1270000000
  313      C      -6.1150000000    -3.0000000000     3.1220000000
  314      H      -6.4940000000    -3.6760000000     2.3470000000
  315      H      -6.0410000000    -2.0110000000     2.6610000000
  316      S      -4.4130000000    -3.5440000000     3.5060000000
  317      C      -3.5960000000    -1.9310000000     3.6610000000
  318      H      -3.9300000000    -1.4010000000     4.5550000000
  319      H      -2.5190000000    -2.1010000000     3.7390000000
  320      H      -3.7860000000    -1.3180000000     2.7740000000
  321      H      -6.5070000000    -4.9310000000     5.1180000000
  322      H      -2.1090000000    -6.2580000000     2.9800000000
  323      C      -1.6610000000    -5.9700000000     2.0230000000
  324      H      -2.4540000000    -5.9550000000     1.2690000000
  325      C      -0.9960000000    -4.5990000000     2.1140000000
  326      H      -0.1810000000    -4.5800000000     2.8450000000
  327      H      -0.5950000000    -4.2930000000     1.1420000000
  328      H      -1.7240000000    -3.8350000000     2.4000000000
  329      H      -0.9420000000    -6.7480000000     1.7400000000
  330      H       3.2400000000    -8.5260000000     0.4380000000
  331      C       3.8190000000    -8.1170000000    -0.3970000000
  332      H       3.7510000000    -8.8140000000    -1.2400000000
  333      C       3.3010000000    -6.7280000000    -0.7830000000
  334      H       3.8670000000    -6.3670000000    -1.6510000000
  335      H       2.2570000000    -6.8090000000    -1.1100000000
  336      C       3.3890000000    -5.7330000000     0.3340000000
  337      C       2.3470000000    -5.2410000000     1.0760000000
  338      H       1.2910000000    -5.4490000000     0.9820000000
  339      N       2.7980000000    -4.3750000000     2.0390000000
  340      H       2.2260000000    -3.8580000000     2.7150000000
  341      C       4.1600000000    -4.2840000000     1.9350000000
  342      C       5.0620000000    -3.5130000000     2.6760000000
  343      H       4.7090000000    -2.8630000000     3.4710000000
  344      C       6.4040000000    -3.6060000000     2.3440000000
  345      H       7.1300000000    -3.0140000000     2.8940000000
  346      C       6.8430000000    -4.4510000000     1.3050000000
  347      H       7.9040000000    -4.4980000000     1.0720000000
  348      C       5.9460000000    -5.2110000000     0.5730000000
  349      H       6.2970000000    -5.8540000000    -0.2320000000
  350      C       4.5770000000    -5.1310000000     0.8770000000
  351      H       4.8660000000    -8.0680000000    -0.0790000000
  352      H      10.7080000000    -4.5200000000    -5.4520000000
  353      C      10.6670000000    -4.9440000000    -4.4430000000
  354      H      10.8620000000    -4.1300000000    -3.7360000000
  355      C       9.3120000000    -5.6080000000    -4.1850000000
  356      H       8.5110000000    -4.8630000000    -4.2840000000
  357      H       9.1330000000    -6.3560000000    -4.9680000000
  358      C       9.1800000000    -6.2930000000    -2.8150000000
  359      H      10.0580000000    -6.9430000000    -2.6800000000
  360      C       9.1530000000    -5.2880000000    -1.6600000000
  361      H       8.2660000000    -4.6440000000    -1.7240000000
  362      H       9.1110000000    -5.8060000000    -0.6950000000
  363      H      10.0380000000    -4.6420000000    -1.6510000000
  364      C       7.9290000000    -7.1760000000    -2.7750000000
  365      H       7.9710000000    -7.9620000000    -3.5380000000
  366      H       7.8150000000    -7.6600000000    -1.7980000000
  367      H       7.0280000000    -6.5810000000    -2.9580000000
  368      H      11.4830000000    -5.6710000000    -4.3490000000
  369      O       0.6280000000     1.4060000000     4.2140000000
  370      H      -0.2420000000     1.3850000000     4.6480000000
  371      H       0.8260000000     0.4540000000     4.1260000000
  372      O       1.5720000000     4.0510000000     4.0280000000
  373      H       2.2050000000     4.0860000000     3.3010000000
  374      H       1.3410000000     3.1020000000     4.1150000000
  375      O      -1.8010000000     0.2150000000     5.2260000000
  376      H      -1.7840000000     0.1660000000     6.1880000000
  377      H      -1.1840000000    -0.5140000000     4.9090000000
 ----------------------------------------------------------------
 Nuclear Repulsion Energy =       45571.08018904 hartrees
 There are      585 alpha and      585 beta electrons
 Requested basis set is 6-31G(d)
 There are 1046 shells and 2642 basis functions

 Total QAlloc Memory Limit  12000 MB
 Mega-Array Size      3911 MB
 MEM_STATIC part      4000 MB

 A cutoff of  1.0D-14 yielded 131476 shell pairs
 There are    812852 function pairs
 Smallest overlap matrix eigenvalue = 3.45E-04

 Scale SEOQF with 1.000000e-02/1.000000e-02/1.000000e-02

 Standard Electronic Orientation quadrupole field applied
 Nucleus-field energy     =     0.0000000968 hartrees
 Guess from superposition of atomic densities
 Warning:  Energy on first SCF cycle will be non-variational
 SAD guess density has 1169.000003 electrons

 -----------------------------------------------------------------------
  General SCF calculation program by
  Eric Jon Sundstrom, Paul Horn, Yuezhi Mao, Dmitri Zuev, Alec White,
  David Stuck, Shaama M.S., Shane Yost, Joonho Lee, David Small,
  Daniel Levine, Susi Lehtola, Hugh Burton, Evgeny Epifanovsky,
  Bang C. Huynh
 -----------------------------------------------------------------------
=================================================
        Doing projection-based embedding         
      F. Manby et al. JCTC, 8, 2564 (2012)       
=================================================

****************************************************
   Low-level SCF calculation for the whole system   
****************************************************
----------------------------------------------
 Summary of the low-level theory: 
 Exchange:     0.1670 Hartree-Fock + 1.0000 wB97X-V + LR-HF
 Correlation:  1.0000 wB97X-V
 Using Euler-Maclaurin-Lebedev (75,302) quadrature formula
 Nonlocal Correlation:  VV10 with C = 0.0100 and b = 6.00 and scale = 1.00000
 Grid used for NLC:  SG-1 standard quadrature
----------------------------------------------
 using 8 threads for integral computing
 -------------------------------------------------------
 OpenMP Integral computing Module                
 Release: version 1.0, May 2013, Q-Chem Inc. Pittsburgh 
 -------------------------------------------------------
 A restricted SCF calculation will be
 performed using DIIS
 SCF converges when DIIS error is below 1.0e-08
 ---------------------------------------
  Cycle       Energy         DIIS error
 ---------------------------------------
    1   -7691.3483954671      1.49e-02  
    2   -7651.3020498786      1.32e-03  
    3   -7651.6470945957      1.31e-03  
    4   -7652.7084337327      2.30e-04  
    5   -7652.7412295198      9.87e-05  
    6   -7652.7479518446      2.42e-05  
    7   -7652.7483901607      6.44e-06  
    8   -7652.7484360318      2.27e-06  
    9   -7652.7484429410      1.13e-06  
   10   -7652.7484446998      4.19e-07  
   11   -7652.7484449803      1.95e-07  
   12   -7652.7484450476      6.59e-08  
   13   -7652.7484450570      2.49e-08  
   14   -7652.7484450591      1.23e-08  
   15   -7652.7484450594      6.04e-09  Convergence criterion met
 ---------------------------------------
 SCF time:   CPU 98199.61s  wall 12482.00s 
 SCF   energy in the final basis set =    -7652.7484450594
 Total energy in the final basis set =    -7652.7484450594

****************************************************
             Start embedding calculation            
****************************************************
----------------------------------------------
 Summary of the high-level theory: 
 Exchange:     0.1670 Hartree-Fock + 1.0000 wB97X-V + LR-HF
 Correlation:  1.0000 wB97X-V
 Using Euler-Maclaurin-Lebedev (75,302) quadrature formula
 Nonlocal Correlation:  VV10 with C = 0.0100 and b = 6.00 and scale = 1.00000
 Grid used for NLC:  SG-1 standard quadrature
----------------------------------------------
Doing R-in-R Embedding Calculation
Number of fragments: 2
Embedded fragment(s): 1 
NOcc for each fragment
           75
          510
NBasis for each fragment
          352
         2290
Variational space of the embedded problem: 
NOcc (active)  = 75
NOcc (fixed)   = 510
NVir (total)   = 2057
Read converged orbitals from disk
=========================================================
       Doing SPADE partition for the orbital space       
     D. Claudino and N. Mayhall JCTC 15, 1053 (2019)     
=========================================================
SPADE singular values:
 1.0000 1.0000 1.0000 1.0000 1.0000 1.0000 1.0000 1.0000 1.0000 1.0000
 1.0000 1.0000 1.0000 1.0000 1.0000 1.0000 1.0000 1.0000 1.0000 1.0000
 1.0000 1.0000 1.0000 1.0000 1.0000 1.0000 1.0000 1.0000 1.0000 1.0000
 1.0000 1.0000 1.0000 1.0000 1.0000 1.0000 1.0000 1.0000 1.0000 1.0000
 1.0000 1.0000 0.9999 0.9999 0.9999 0.9999 0.9999 0.9998 0.9998 0.9998
 0.9997 0.9995 0.9995 0.9994 0.9993 0.9993 0.9991 0.9991 0.9990 0.9989
 0.9988 0.9986 0.9986 0.9983 0.9981 0.9979 0.9978 0.9975 0.9971 0.9960
 0.9957 0.9955 0.9938 0.9881 0.9708 0.1393 0.1226 0.1209 0.1039 0.0898
 0.0896 0.0860 0.0814 0.0805 0.0714 0.0689 0.0680 0.0674 0.0589 0.0586
 0.0573 0.0513 0.0500 0.0491 0.0472 0.0419 0.0404 0.0389 0.0360 0.0336
 0.0316 0.0282 0.0269 0.0262 0.0249 0.0232 0.0211 0.0204 0.0198 0.0175
 0.0159 0.0152 0.0142 0.0138 0.0131 0.0124 0.0116 0.0114 0.0104 0.0099
 0.0093 0.0084 0.0079 0.0077 0.0076 0.0074 0.0066 0.0059 0.0056 0.0054
 0.0052 0.0051 0.0050 0.0046 0.0045 0.0043 0.0042 0.0040 0.0038 0.0034
 0.0032 0.0031 0.0030 0.0028 0.0027 0.0025 0.0025 0.0024 0.0023 0.0022
 0.0020 0.0019 0.0018 0.0018 0.0017 0.0016 0.0016 0.0015 0.0015 0.0014
 0.0014 0.0014 0.0013 0.0013 0.0012 0.0012 0.0011 0.0011 0.0010 0.0010
 0.0009 0.0009 0.0009 0.0008 0.0008 0.0008 0.0008 0.0007 0.0007 0.0007
 0.0007 0.0007 0.0007 0.0006 0.0006 0.0006 0.0006 0.0006 0.0006 0.0005
 0.0005 0.0005 0.0005 0.0005 0.0005 0.0004 0.0004 0.0004 0.0004 0.0004
 0.0004 0.0004 0.0004 0.0003 0.0003 0.0003 0.0003 0.0003 0.0003 0.0003
 0.0003 0.0003 0.0003 0.0003 0.0003 0.0002 0.0002 0.0002 0.0002 0.0002
 0.0002 0.0002 0.0002 0.0002 0.0002 0.0002 0.0002 0.0002 0.0002 0.0002
 0.0002 0.0002 0.0002 0.0002 0.0002 0.0001 0.0001 0.0001 0.0001 0.0001
 0.0001 0.0001 0.0001 0.0001 0.0001 0.0001 0.0001 0.0001 0.0001 0.0001
 0.0001 0.0001 0.0001 0.0001 0.0001 0.0001 0.0001 0.0001 0.0001 0.0001
 0.0001 0.0001 0.0001 0.0001 0.0001 0.0001 0.0001 0.0001 0.0001 0.0001
 0.0001 0.0001 0.0000 0.0000 0.0000 0.0000 0.0000 0.0000 0.0000 0.0000
 0.0000 0.0000 0.0000 0.0000 0.0000 0.0000 0.0000 0.0000 0.0000 0.0000
 0.0000 0.0000 0.0000 0.0000 0.0000 0.0000 0.0000 0.0000 0.0000 0.0000
 0.0000 0.0000 0.0000 0.0000 0.0000 0.0000 0.0000 0.0000 0.0000 0.0000
 0.0000 0.0000 0.0000 0.0000 0.0000 0.0000 0.0000 0.0000 0.0000 0.0000
 0.0000 0.0000 0.0000 0.0000 0.0000 0.0000 0.0000 0.0000 0.0000 0.0000
 0.0000 0.0000 0.0000 0.0000 0.0000 0.0000 0.0000 0.0000 0.0000 0.0000
 0.0000 0.0000 0.0000 0.0000 0.0000 0.0000 0.0000 0.0000 0.0000 0.0000
 0.0000 0.0000
Early stop requested; no embedded SCF will be performed

 510 environment occs will be part of frozen-core in future post-HF calculations
 
 --------------------------------------------------------------
 
                    Orbital Energies (a.u.)
 --------------------------------------------------------------
 
 Alpha MOs
 -- Occupied --
-88.8109 -88.8000 -88.7981 -88.7958 -19.1906 -19.1838 -19.1752 -19.1659
-19.1510 -19.1478 -19.1456 -19.1452 -19.1311 -19.1063 -19.1014 -19.0992
-14.4008 -14.3878 -14.3730 -14.3653 -10.3397 -10.3349 -10.3182 -10.2939
-10.2909 -10.2706 -10.2701 -10.2631 -10.2507 -10.2498 -10.2489 -10.2487
-10.2478 -10.2430 -10.2402 -10.2341 -10.2339 -10.2339 -10.2336 -10.2324
-10.2313 -10.2307 -10.2296 -10.2295 -10.2280 -10.2277 -10.2276 -10.2272
-10.2267 -10.2261 -10.2257 -10.2255 -10.2255 -10.2250 -10.2249 -10.2241
-10.2236 -10.2229 -10.2228 -10.2221 -10.2213 -10.2209 -10.2195 -10.2194
-10.2192 -10.2180 -10.2178 -10.2178 -10.2173 -10.2173 -10.2171 -10.2164
-10.2164 -10.2158 -10.2153 -10.2153 -10.2152 -10.2151 -10.2148 -10.2143
-10.2142 -10.2142 -10.2137 -10.2137 -10.2136 -10.2129 -10.2122 -10.2122
-10.2110 -10.2104 -10.2103 -10.2100 -10.2093 -10.2091 -10.2085 -10.2082
-10.2076 -10.2068 -10.2066 -10.2063 -10.2059 -10.2051 -10.2048 -10.2046
-10.2033 -10.2018 -10.2017 -10.2008 -10.2005 -10.2004 -10.1995 -10.1985
-10.1965 -10.1951 -10.1945 -10.1945 -10.1945 -10.1930 -10.1919 -10.1878
-10.1867 -10.1851 -10.1819 -10.1814  -7.9760  -7.9666  -7.9644  -7.9616
 -5.9341  -5.9299  -5.9246  -5.9227  -5.9224  -5.9204  -5.9196  -5.9183
 -5.9154  -5.9131  -5.9108  -5.9083  -1.1562  -1.1134  -1.1114  -1.1011
 -1.0990  -1.0833  -1.0728  -1.0631  -1.0604  -1.0530  -1.0406  -1.0281
 -1.0031  -0.9917  -0.9894  -0.9872  -0.9264  -0.9224  -0.9215  -0.8977
 -0.8944  -0.8926  -0.8919  -0.8892  -0.8870  -0.8850  -0.8823  -0.8801
 -0.8764  -0.8730  -0.8617  -0.8616  -0.8600  -0.8587  -0.8557  -0.8532
 -0.8531  -0.8501  -0.8370  -0.8363  -0.8336  -0.8317  -0.8315  -0.8277
 -0.8257  -0.8151  -0.8085  -0.8080  -0.8076  -0.8071  -0.8029  -0.8020
 -0.8007  -0.7948  -0.7923  -0.7882  -0.7867  -0.7849  -0.7770  -0.7677
 -0.7646  -0.7616  -0.7593  -0.7584  -0.7539  -0.7534  -0.7520  -0.7503
 -0.7483  -0.7469  -0.7435  -0.7391  -0.7371  -0.7343  -0.7294  -0.7291
 -0.7251  -0.7175  -0.7110  -0.7073  -0.7006  -0.6987  -0.6961  -0.6918
 -0.6895  -0.6873  -0.6870  -0.6851  -0.6828  -0.6777  -0.6760  -0.6717
 -0.6715  -0.6686  -0.6650  -0.6588  -0.6566  -0.6509  -0.6456  -0.6441
 -0.6422  -0.6413  -0.6346  -0.6330  -0.6326  -0.6311  -0.6298  -0.6279
 -0.6271  -0.6237  -0.6222  -0.6216  -0.6174  -0.6120  -0.6099  -0.6037
 -0.6025  -0.5960  -0.5916  -0.5898  -0.5874  -0.5816  -0.5712  -0.5632
 -0.5608  -0.5549  -0.5500  -0.5485  -0.5463  -0.5428  -0.5406  -0.5369
 -0.5361  -0.5357  -0.5346  -0.5334  -0.5324  -0.5299  -0.5261  -0.5260
 -0.5249  -0.5220  -0.5201  -0.5199  -0.5195  -0.5188  -0.5184  -0.5157
 -0.5148  -0.5147  -0.5135  -0.5128  -0.5110  -0.5092  -0.5091  -0.5069
 -0.5058  -0.5046  -0.5041  -0.4996  -0.4960  -0.4955  -0.4943  -0.4931
 -0.4926  -0.4924  -0.4920  -0.4916  -0.4907  -0.4906  -0.4889  -0.4883
 -0.4869  -0.4823  -0.4811  -0.4803  -0.4792  -0.4790  -0.4785  -0.4776
 -0.4762  -0.4752  -0.4745  -0.4733  -0.4728  -0.4723  -0.4720  -0.4716
 -0.4708  -0.4705  -0.4698  -0.4686  -0.4680  -0.4674  -0.4670  -0.4656
 -0.4653  -0.4649  -0.4640  -0.4629  -0.4614  -0.4609  -0.4603  -0.4597
 -0.4589  -0.4582  -0.4576  -0.4571  -0.4566  -0.4563  -0.4556  -0.4547
 -0.4540  -0.4532  -0.4519  -0.4516  -0.4502  -0.4497  -0.4471  -0.4465
 -0.4459  -0.4445  -0.4438  -0.4410  -0.4402  -0.4396  -0.4393  -0.4373
 -0.4360  -0.4354  -0.4341  -0.4339  -0.4315  -0.4309  -0.4302  -0.4297
 -0.4290  -0.4275  -0.4274  -0.4270  -0.4256  -0.4248  -0.4232  -0.4211
 -0.4190  -0.4165  -0.4160  -0.4156  -0.4151  -0.4150  -0.4145  -0.4139
 -0.4136  -0.4121  -0.4119  -0.4116  -0.4099  -0.4092  -0.4082  -0.4073
 -0.4072  -0.4060  -0.4051  -0.4045  -0.4043  -0.4038  -0.4016  -0.4016
 -0.4013  -0.4006  -0.3994  -0.3990  -0.3978  -0.3972  -0.3967  -0.3958
 -0.3932  -0.3924  -0.3922  -0.3910  -0.3902  -0.3900  -0.3898  -0.3896
 -0.3890  -0.3881  -0.3877  -0.3871  -0.3866  -0.3859  -0.3849  -0.3846
 -0.3832  -0.3801  -0.3787  -0.3768  -0.3748  -0.3745  -0.3720  -0.3712
 -0.3709  -0.3698  -0.3692  -0.3688  -0.3683  -0.3675  -0.3673  -0.3671
 -0.3664  -0.3658  -0.3653  -0.3648  -0.3646  -0.3632  -0.3628  -0.3627
 -0.3623  -0.3616  -0.3608  -0.3603  -0.3601  -0.3598  -0.3586  -0.3573
 -0.3572  -0.3563  -0.3553  -0.3516  -0.3501  -0.3499  -0.3487  -0.3483
 -0.3477  -0.3471  -0.3466  -0.3454  -0.3446  -0.3419  -0.3415  -0.3400
 -0.3396  -0.3368  -0.3346  -0.3344  -0.3332  -0.3262  -0.3249  -0.3044
 -0.3013  -0.2979  -0.2936  -0.2888  -0.2825  -0.2761  -0.2736  -0.2724
 -0.2707  -0.2707  -0.2616  -0.2613  -0.2608  -0.2606  -0.2517  -0.2468
 -0.2467  -0.2461  -0.2414  -0.2303  -0.2302  -0.2062 -10.1834 -13.0572
-10.6105 -10.3059 -10.1423 -10.3800 -10.3468 -11.6068 -10.7253 -10.5767
-10.2095 -10.3130  -9.8748  -9.6205  -9.6677  -9.3048  -7.3608  -3.0334
 -9.6657  -9.2086  -2.5180  -2.1240  -1.4743  -4.3384  -2.5081  -1.7096
 -8.2207  -1.0493  -0.8972  -2.0908  -1.0174  -1.0948  -0.9068  -0.8202
 -0.7916  -2.0259  -0.9608  -0.9214  -0.9737  -0.7370  -0.6219  -0.5285
 -1.3012  -0.4853  -0.6203  -0.6032  -0.5470  -0.5061  -1.4687  -0.5548
 -0.4429  -0.5217  -0.4752  -0.4628  -0.4678  -0.4796  -0.4872  -0.4685
 -0.4922  -0.4392  -0.4255  -0.4685  -0.3862  -0.3961  -0.4050  -0.4439
 -0.4447  -0.3832  -0.3509  -0.4339  -0.4132  -0.3809  -0.4307  -0.4049
 -0.5256
 -- Virtual --
  0.1021   0.1426   0.1465   0.1494   0.1499   0.1508   0.1594   0.1613
  0.1704   0.1733   0.1782   0.1788   0.1825   0.1839   0.1841   0.1849
  0.1879   0.1923   0.1925   0.1969   0.2013   0.2023   0.2064   0.2066
  0.2087   0.2095   0.2107   0.2135   0.2149   0.2161   0.2187   0.2213
  0.2242   0.2252   0.2276   0.2279   0.2287   0.2309   0.2318   0.2323
  0.2337   0.2353   0.2361   0.2372   0.2384   0.2392   0.2402   0.2411
  0.2445   0.2456   0.2463   0.2475   0.2490   0.2509   0.2511   0.2526
  0.2529   0.2565   0.2570   0.2574   0.2582   0.2596   0.2598   0.2606
  0.2618   0.2639   0.2651   0.2660   0.2665   0.2677   0.2684   0.2693
  0.2703   0.2713   0.2720   0.2723   0.2737   0.2744   0.2763   0.2765
  0.2784   0.2794   0.2814   0.2820   0.2830   0.2836   0.2841   0.2842
  0.2865   0.2869   0.2878   0.2892   0.2898   0.2907   0.2915   0.2925
  0.2934   0.2937   0.2940   0.2952   0.2964   0.2965   0.2988   0.2992
  0.3002   0.3005   0.3011   0.3015   0.3020   0.3031   0.3032   0.3038
  0.3047   0.3056   0.3063   0.3072   0.3083   0.3085   0.3093   0.3100
  0.3105   0.3111   0.3116   0.3120   0.3129   0.3141   0.3144   0.3149
  0.3154   0.3162   0.3166   0.3170   0.3173   0.3175   0.3180   0.3188
  0.3204   0.3208   0.3212   0.3221   0.3229   0.3231   0.3239   0.3251
  0.3257   0.3263   0.3267   0.3272   0.3279   0.3280   0.3296   0.3299
  0.3306   0.3323   0.3329   0.3331   0.3338   0.3342   0.3353   0.3357
  0.3372   0.3379   0.3381   0.3390   0.3400   0.3404   0.3405   0.3411
  0.3417   0.3423   0.3426   0.3429   0.3436   0.3442   0.3454   0.3461
  0.3470   0.3475   0.3487   0.3488   0.3493   0.3497   0.3507   0.3513
  0.3522   0.3524   0.3532   0.3538   0.3541   0.3554   0.3568   0.3575
  0.3587   0.3594   0.3601   0.3605   0.3614   0.3618   0.3627   0.3631
  0.3635   0.3654   0.3664   0.3668   0.3671   0.3678   0.3685   0.3691
  0.3700   0.3715   0.3716   0.3723   0.3739   0.3743   0.3751   0.3754
  0.3767   0.3772   0.3777   0.3801   0.3805   0.3814   0.3821   0.3822
  0.3828   0.3835   0.3838   0.3847   0.3858   0.3871   0.3883   0.3891
  0.3893   0.3905   0.3913   0.3930   0.3932   0.3934   0.3947   0.3957
  0.3966   0.3971   0.3976   0.3990   0.3998   0.4007   0.4011   0.4024
  0.4027   0.4033   0.4036   0.4040   0.4053   0.4057   0.4064   0.4071
  0.4079   0.4081   0.4091   0.4099   0.4105   0.4113   0.4121   0.4131
  0.4138   0.4145   0.4155   0.4157   0.4174   0.4180   0.4185   0.4192
  0.4202   0.4212   0.4217   0.4229   0.4233   0.4247   0.4251   0.4267
  0.4273   0.4284   0.4296   0.4306   0.4314   0.4323   0.4330   0.4337
  0.4341   0.4354   0.4365   0.4375   0.4382   0.4396   0.4410   0.4416
  0.4433   0.4443   0.4453   0.4464   0.4476   0.4486   0.4490   0.4507
  0.4519   0.4528   0.4530   0.4548   0.4553   0.4576   0.4581   0.4593
  0.4609   0.4622   0.4628   0.4652   0.4656   0.4676   0.4688   0.4697
  0.4710   0.4719   0.4733   0.4740   0.4753   0.4767   0.4782   0.4793
  0.4815   0.4833   0.4842   0.4853   0.4873   0.4886   0.4898   0.4918
  0.4927   0.4942   0.4951   0.4981   0.4983   0.5004   0.5014   0.5052
  0.5085   0.5129   0.5141   0.5153   0.5162   0.5184   0.5209   0.5234
  0.5262   0.5291   0.5294   0.5311   0.5322   0.5345   0.5353   0.5372
  0.5392   0.5404   0.5443   0.5490   0.5531   0.5596   0.5604   0.5622
  0.5648   0.5672   0.5697   0.5702   0.5752   0.5757   0.5823   0.5837
  0.5845   0.5922   0.5951   0.5965   0.5989   0.6021   0.6051   0.6071
  0.6108   0.6114   0.6193   0.6224   0.6306   0.6318   0.6334   0.6346
  0.6378   0.6393   0.6422   0.6451   0.6486   0.6495   0.6512   0.6519
  0.6524   0.6573   0.6589   0.6619   0.6624   0.6626   0.6648   0.6654
  0.6674   0.6682   0.6693   0.6700   0.6713   0.6729   0.6737   0.6757
  0.6760   0.6773   0.6782   0.6797   0.6802   0.6815   0.6820   0.6828
  0.6839   0.6852   0.6856   0.6869   0.6872   0.6881   0.6891   0.6900
  0.6907   0.6919   0.6925   0.6932   0.6954   0.6962   0.6968   0.6990
  0.6993   0.7008   0.7016   0.7023   0.7036   0.7041   0.7053   0.7054
  0.7066   0.7076   0.7085   0.7093   0.7106   0.7116   0.7125   0.7133
  0.7148   0.7161   0.7174   0.7185   0.7199   0.7204   0.7220   0.7226
  0.7238   0.7245   0.7260   0.7265   0.7288   0.7300   0.7307   0.7313
  0.7322   0.7339   0.7350   0.7363   0.7374   0.7384   0.7394   0.7422
  0.7431   0.7437   0.7449   0.7476   0.7481   0.7491   0.7501   0.7515
  0.7530   0.7542   0.7552   0.7555   0.7575   0.7579   0.7590   0.7596
  0.7601   0.7621   0.7626   0.7629   0.7650   0.7665   0.7670   0.7682
  0.7688   0.7703   0.7708   0.7731   0.7732   0.7749   0.7763   0.7765
  0.7772   0.7779   0.7796   0.7806   0.7811   0.7829   0.7838   0.7853
  0.7861   0.7868   0.7890   0.7893   0.7914   0.7924   0.7937   0.7954
  0.7962   0.7972   0.7989   0.8007   0.8011   0.8015   0.8026   0.8034
  0.8047   0.8055   0.8082   0.8088   0.8094   0.8102   0.8117   0.8126
  0.8138   0.8148   0.8156   0.8166   0.8186   0.8204   0.8208   0.8218
  0.8220   0.8234   0.8250   0.8264   0.8267   0.8279   0.8291   0.8297
  0.8314   0.8323   0.8333   0.8340   0.8350   0.8354   0.8362   0.8381
  0.8390   0.8395   0.8416   0.8418   0.8427   0.8430   0.8444   0.8454
  0.8460   0.8469   0.8483   0.8487   0.8504   0.8521   0.8528   0.8546
  0.8550   0.8554   0.8562   0.8565   0.8594   0.8606   0.8619   0.8631
  0.8637   0.8645   0.8657   0.8669   0.8678   0.8685   0.8695   0.8707
  0.8712   0.8723   0.8727   0.8732   0.8751   0.8754   0.8760   0.8782
  0.8788   0.8808   0.8820   0.8827   0.8835   0.8856   0.8864   0.8874
  0.8902   0.8917   0.8924   0.8937   0.8938   0.8958   0.8970   0.8978
  0.8996   0.8999   0.9012   0.9019   0.9021   0.9038   0.9049   0.9057
  0.9077   0.9085   0.9102   0.9123   0.9124   0.9140   0.9150   0.9168
  0.9172   0.9189   0.9196   0.9207   0.9213   0.9218   0.9237   0.9259
  0.9268   0.9283   0.9292   0.9304   0.9310   0.9328   0.9338   0.9358
  0.9369   0.9392   0.9399   0.9403   0.9413   0.9431   0.9450   0.9461
  0.9464   0.9492   0.9508   0.9520   0.9543   0.9552   0.9557   0.9574
  0.9588   0.9592   0.9617   0.9629   0.9636   0.9649   0.9677   0.9703
  0.9710   0.9725   0.9736   0.9754   0.9769   0.9777   0.9781   0.9793
  0.9824   0.9844   0.9852   0.9873   0.9882   0.9897   0.9903   0.9924
  0.9938   0.9940   0.9956   0.9971   0.9986   1.0001   1.0007   1.0019
  1.0035   1.0042   1.0064   1.0068   1.0079   1.0096   1.0104   1.0120
  1.0136   1.0140   1.0152   1.0163   1.0179   1.0193   1.0207   1.0220
  1.0228   1.0230   1.0243   1.0263   1.0274   1.0282   1.0284   1.0293
  1.0308   1.0316   1.0322   1.0332   1.0336   1.0361   1.0371   1.0381
  1.0390   1.0404   1.0406   1.0413   1.0420   1.0425   1.0429   1.0435
  1.0439   1.0453   1.0460   1.0472   1.0478   1.0488   1.0493   1.0501
  1.0506   1.0513   1.0518   1.0524   1.0533   1.0538   1.0548   1.0550
  1.0552   1.0565   1.0570   1.0576   1.0585   1.0595   1.0599   1.0604
  1.0614   1.0616   1.0626   1.0635   1.0640   1.0644   1.0649   1.0663
  1.0665   1.0671   1.0679   1.0692   1.0701   1.0704   1.0712   1.0715
  1.0723   1.0732   1.0740   1.0751   1.0764   1.0771   1.0784   1.0791
  1.0798   1.0801   1.0816   1.0820   1.0829   1.0843   1.0847   1.0851
  1.0858   1.0863   1.0870   1.0873   1.0886   1.0891   1.0903   1.0907
  1.0916   1.0929   1.0929   1.0938   1.0946   1.0952   1.0966   1.0972
  1.0977   1.0986   1.0996   1.1004   1.1006   1.1012   1.1021   1.1027
  1.1032   1.1033   1.1044   1.1051   1.1055   1.1063   1.1077   1.1085
  1.1093   1.1105   1.1110   1.1121   1.1135   1.1149   1.1157   1.1165
  1.1177   1.1181   1.1190   1.1193   1.1200   1.1215   1.1219   1.1226
  1.1234   1.1247   1.1251   1.1257   1.1268   1.1278   1.1290   1.1297
  1.1301   1.1311   1.1328   1.1339   1.1352   1.1357   1.1365   1.1368
  1.1374   1.1391   1.1405   1.1407   1.1422   1.1427   1.1434   1.1444
  1.1455   1.1462   1.1470   1.1481   1.1491   1.1494   1.1499   1.1501
  1.1512   1.1523   1.1533   1.1543   1.1546   1.1557   1.1566   1.1584
  1.1590   1.1597   1.1609   1.1611   1.1630   1.1645   1.1660   1.1666
  1.1679   1.1687   1.1691   1.1697   1.1713   1.1724   1.1736   1.1750
  1.1754   1.1758   1.1777   1.1799   1.1802   1.1808   1.1818   1.1827
  1.1831   1.1849   1.1866   1.1869   1.1892   1.1900   1.1907   1.1921
  1.1929   1.1942   1.1951   1.1964   1.1971   1.1987   1.1997   1.2014
  1.2027   1.2031   1.2040   1.2059   1.2064   1.2074   1.2087   1.2095
  1.2111   1.2115   1.2129   1.2144   1.2159   1.2181   1.2201   1.2207
  1.2231   1.2240   1.2244   1.2271   1.2292   1.2297   1.2304   1.2312
  1.2336   1.2349   1.2357   1.2376   1.2392   1.2407   1.2419   1.2438
  1.2444   1.2468   1.2482   1.2493   1.2519   1.2527   1.2539   1.2565
  1.2582   1.2612   1.2634   1.2639   1.2646   1.2662   1.2697   1.2704
  1.2723   1.2739   1.2750   1.2764   1.2786   1.2812   1.2827   1.2844
  1.2867   1.2876   1.2884   1.2921   1.2943   1.2948   1.2957   1.2980
  1.2988   1.3006   1.3024   1.3039   1.3060   1.3079   1.3085   1.3105
  1.3115   1.3127   1.3153   1.3178   1.3196   1.3222   1.3230   1.3257
  1.3260   1.3277   1.3289   1.3314   1.3321   1.3346   1.3360   1.3372
  1.3385   1.3402   1.3432   1.3445   1.3474   1.3497   1.3511   1.3521
  1.3546   1.3547   1.3566   1.3589   1.3602   1.3614   1.3632   1.3660
  1.3670   1.3682   1.3693   1.3715   1.3742   1.3761   1.3775   1.3797
  1.3810   1.3827   1.3846   1.3867   1.3887   1.3917   1.3947   1.3963
  1.3984   1.3992   1.4019   1.4025   1.4059   1.4067   1.4078   1.4110
  1.4118   1.4126   1.4169   1.4178   1.4206   1.4241   1.4244   1.4262
  1.4284   1.4300   1.4329   1.4338   1.4360   1.4396   1.4404   1.4434
  1.4444   1.4465   1.4486   1.4513   1.4528   1.4535   1.4573   1.4598
  1.4616   1.4627   1.4647   1.4677   1.4696   1.4726   1.4762   1.4768
  1.4792   1.4864   1.4869   1.4898   1.4925   1.4944   1.4956   1.4982
  1.5016   1.5035   1.5074   1.5088   1.5100   1.5165   1.5194   1.5204
  1.5218   1.5246   1.5254   1.5294   1.5315   1.5325   1.5352   1.5369
  1.5402   1.5433   1.5448   1.5477   1.5511   1.5524   1.5545   1.5569
  1.5580   1.5590   1.5621   1.5649   1.5683   1.5723   1.5740   1.5744
  1.5766   1.5786   1.5822   1.5856   1.5877   1.5889   1.5919   1.5933
  1.5940   1.5954   1.5981   1.6006   1.6017   1.6023   1.6034   1.6050
  1.6060   1.6084   1.6110   1.6120   1.6124   1.6135   1.6151   1.6175
  1.6183   1.6214   1.6220   1.6230   1.6241   1.6257   1.6274   1.6289
  1.6304   1.6322   1.6343   1.6349   1.6355   1.6367   1.6379   1.6382
  1.6394   1.6414   1.6429   1.6442   1.6459   1.6464   1.6497   1.6509
  1.6543   1.6551   1.6560   1.6577   1.6594   1.6606   1.6610   1.6636
  1.6650   1.6668   1.6675   1.6687   1.6705   1.6718   1.6732   1.6743
  1.6753   1.6775   1.6783   1.6800   1.6805   1.6820   1.6838   1.6845
  1.6867   1.6871   1.6890   1.6903   1.6922   1.6940   1.6951   1.6968
  1.6987   1.6993   1.7011   1.7027   1.7039   1.7067   1.7105   1.7139
  1.7163   1.7180   1.7186   1.7194   1.7211   1.7254   1.7286   1.7299
  1.7354   1.7377   1.7420   1.7481   1.7521   1.7540   1.7550   1.7568
  1.7630   1.7697   1.7715   1.7735   1.7758   1.7809   1.7871   1.7918
  1.7983   1.8003   1.8047   1.8057   1.8069   1.8085   1.8102   1.8146
  1.8162   1.8193   1.8218   1.8235   1.8283   1.8311   1.8330   1.8351
  1.8386   1.8429   1.8448   1.8502   1.8555   1.8571   1.8581   1.8601
  1.8644   1.8660   1.8674   1.8694   1.8730   1.8758   1.8773   1.8815
  1.8851   1.8861   1.8866   1.8874   1.8897   1.8906   1.8917   1.8929
  1.8932   1.8941   1.8967   1.8977   1.8999   1.9012   1.9029   1.9057
  1.9068   1.9091   1.9117   1.9130   1.9157   1.9177   1.9190   1.9196
  1.9212   1.9228   1.9249   1.9269   1.9285   1.9315   1.9318   1.9353
  1.9363   1.9374   1.9378   1.9407   1.9411   1.9427   1.9432   1.9452
  1.9471   1.9493   1.9511   1.9522   1.9539   1.9577   1.9608   1.9627
  1.9646   1.9652   1.9676   1.9690   1.9715   1.9721   1.9729   1.9743
  1.9759   1.9760   1.9780   1.9796   1.9843   1.9883   1.9910   1.9919
  1.9926   1.9950   1.9962   1.9985   1.9991   2.0004   2.0013   2.0048
  2.0056   2.0071   2.0093   2.0095   2.0117   2.0138   2.0165   2.0174
  2.0203   2.0214   2.0219   2.0255   2.0270   2.0281   2.0289   2.0317
  2.0340   2.0355   2.0363   2.0383   2.0410   2.0412   2.0427   2.0449
  2.0456   2.0475   2.0486   2.0490   2.0516   2.0571   2.0592   2.0598
  2.0620   2.0625   2.0647   2.0662   2.0667   2.0674   2.0706   2.0721
  2.0735   2.0739   2.0749   2.0755   2.0779   2.0781   2.0801   2.0827
  2.0835   2.0862   2.0877   2.0925   2.0928   2.0943   2.0957   2.0997
  2.1014   2.1026   2.1029   2.1036   2.1072   2.1079   2.1095   2.1140
  2.1144   2.1162   2.1165   2.1187   2.1201   2.1206   2.1235   2.1242
  2.1259   2.1267   2.1271   2.1281   2.1290   2.1292   2.1306   2.1336
  2.1348   2.1356   2.1367   2.1382   2.1399   2.1408   2.1423   2.1431
  2.1443   2.1452   2.1462   2.1470   2.1493   2.1500   2.1511   2.1533
  2.1548   2.1556   2.1560   2.1570   2.1578   2.1580   2.1623   2.1626
  2.1631   2.1651   2.1658   2.1678   2.1686   2.1706   2.1708   2.1727
  2.1729   2.1744   2.1749   2.1775   2.1784   2.1812   2.1840   2.1855
  2.1860   2.1863   2.1888   2.1901   2.1911   2.1925   2.1936   2.1945
  2.1967   2.1971   2.1992   2.2005   2.2016   2.2025   2.2035   2.2037
  2.2058   2.2064   2.2070   2.2078   2.2087   2.2096   2.2109   2.2115
  2.2125   2.2151   2.2157   2.2198   2.2222   2.2246   2.2254   2.2271
  2.2281   2.2306   2.2322   2.2343   2.2367   2.2396   2.2413   2.2431
  2.2454   2.2478   2.2482   2.2501   2.2521   2.2530   2.2536   2.2553
  2.2562   2.2571   2.2654   2.2694   2.2698   2.2713   2.2737   2.2751
  2.2776   2.2790   2.2801   2.2804   2.2824   2.2827   2.2868   2.2891
  2.2911   2.2934   2.2949   2.2970   2.2987   2.2998   2.3011   2.3020
  2.3037   2.3052   2.3065   2.3112   2.3116   2.3148   2.3167   2.3202
  2.3212   2.3229   2.3236   2.3245   2.3308   2.3327   2.3331   2.3343
  2.3359   2.3391   2.3394   2.3407   2.3427   2.3444   2.3465   2.3472
  2.3489   2.3509   2.3515   2.3531   2.3569   2.3575   2.3586   2.3627
  2.3633   2.3668   2.3687   2.3723   2.3731   2.3759   2.3779   2.3799
  2.3827   2.3862   2.3890   2.3892   2.3905   2.3946   2.3968   2.4011
  2.4018   2.4123   2.4133   2.4144   2.4151   2.4157   2.4167   2.4182
  2.4189   2.4217   2.4219   2.4238   2.4240   2.4245   2.4269   2.4293
  2.4303   2.4311   2.4323   2.4335   2.4344   2.4366   2.4374   2.4380
  2.4388   2.4393   2.4408   2.4417   2.4429   2.4434   2.4463   2.4468
  2.4474   2.4478   2.4489   2.4492   2.4500   2.4514   2.4521   2.4555
  2.4566   2.4580   2.4587   2.4608   2.4617   2.4625   2.4632   2.4638
  2.4647   2.4653   2.4676   2.4685   2.4723   2.4727   2.4730   2.4736
  2.4758   2.4773   2.4785   2.4787   2.4813   2.4816   2.4858   2.4862
  2.4865   2.4871   2.4903   2.4917   2.4932   2.4946   2.4946   2.4954
  2.4961   2.4963   2.4999   2.5028   2.5034   2.5046   2.5055   2.5069
  2.5076   2.5090   2.5096   2.5135   2.5145   2.5156   2.5162   2.5171
  2.5182   2.5194   2.5197   2.5221   2.5244   2.5259   2.5272   2.5282
  2.5296   2.5307   2.5355   2.5364   2.5392   2.5398   2.5422   2.5429
  2.5453   2.5487   2.5499   2.5505   2.5515   2.5524   2.5533   2.5575
  2.5580   2.5589   2.5611   2.5634   2.5646   2.5676   2.5697   2.5734
  2.5742   2.5763   2.5808   2.5819   2.5829   2.5872   2.5913   2.5923
  2.5970   2.5988   2.6002   2.6013   2.6034   2.6048   2.6101   2.6137
  2.6138   2.6208   2.6250   2.6275   2.6317   2.6341   2.6358   2.6404
  2.6451   2.6455   2.6472   2.6628   2.6643   2.6675   2.6678   2.6708
  2.6742   2.6762   2.6774   2.6794   2.6829   2.6865   2.6921   2.6926
  2.6937   2.6947   2.6949   2.6961   2.6979   2.6996   2.7020   2.7041
  2.7075   2.7083   2.7116   2.7127   2.7138   2.7180   2.7189   2.7221
  2.7245   2.7251   2.7301   2.7306   2.7358   2.7370   2.7390   2.7410
  2.7433   2.7443   2.7496   2.7544   2.7580   2.7597   2.7610   2.7629
  2.7633   2.7663   2.7682   2.7692   2.7744   2.7811   2.7850   2.7876
  2.7959   2.7974   2.8007   2.8046   2.8087   2.8100   2.8138   2.8184
  2.8192   2.8204   2.8248   2.8261   2.8273   2.8298   2.8306   2.8323
  2.8354   2.8390   2.8399   2.8445   2.8503   2.8515   2.8552   2.8598
  2.8610   2.8636   2.8654   2.8664   2.8684   2.8704   2.8722   2.8730
  2.8759   2.8801   2.8804   2.8820   2.8833   2.8845   2.8861   2.8903
  2.8910   2.8919   2.8930   2.8960   2.8975   2.9009   2.9026   2.9042
  2.9061   2.9109   2.9113   2.9125   2.9185   2.9221   2.9231   2.9254
  2.9287   2.9305   2.9319   2.9372   2.9424   2.9434   2.9450   2.9482
  2.9490   2.9500   2.9531   2.9556   2.9592   2.9641   2.9660   2.9708
  2.9763   2.9844   2.9890   2.9931   2.9942   2.9999   3.0028   3.0152
  3.0284   3.0333   3.0371   3.0487   3.0684   3.0763   3.0771   3.0801
  3.0863   3.0943   3.0983   3.1026   3.1073   3.1097   3.1167   3.1219
  3.1283   3.1330   3.1366   3.1568   3.1826   3.1855   3.1978   3.1992
  3.2010   3.2059   3.2118   3.2158   3.2281   3.2408   3.2576   3.2737
  3.2862   3.2895   3.3098   3.3151   3.3223   3.3254   3.3421   3.3490
  3.3559   3.3807   3.3940   3.4195   3.4575   3.6114   3.6182   3.6255
  3.6498   4.0160   4.0727   4.1185   4.1374   4.1459   4.1516   4.1570
  4.1711   4.2092   4.2101   4.2340   4.2514   4.2589   4.2629   4.2872
  4.3066   4.3171   4.3243   4.3288   4.3320   4.3330   4.3355   4.3373
  4.3392   4.3418   4.3424   4.3499   4.3521   4.3588   4.3633   4.3637
  4.3662   4.3704   4.3758   4.3773   4.3807   4.3860   4.3904   4.3918
  4.3946   4.3958   4.3990   4.4024   4.4076   4.4106   4.4123   4.4185
  4.4246   4.4259   4.4342   4.4404   4.4430   4.4463   4.4531   4.4579
  4.4591   4.4693   4.4718   4.4732   4.4776   4.4823   4.4880   4.4895
  4.4941   4.4951   4.4975   4.4985   4.5038   4.5043   4.5051   4.5117
  4.5171   4.5181   4.5230   4.5256   4.5292   4.5325   4.5451   4.5474
  4.5503   4.5527   4.5569   4.5632   4.5684   4.5729   4.5764   4.5798
  4.5847   4.5883   4.5916   4.5960   4.6005   4.6144   4.6185   4.6212
  4.6255   4.6287   4.6310   4.6416   4.6445   4.6502   4.6505   4.6516
  4.6573   4.6679   4.6731   4.6802   4.6833   4.6839   4.6887   4.6940
  4.7024   4.7122   4.7158   4.7320   4.7354   4.7435   4.7517   4.7623
  4.7734   4.7741   4.7752   4.7772   4.7871   4.7886   4.7947   4.8100
  4.8120   4.8233   4.8330   4.8374   4.8456   4.8514   4.8627   4.8718
  4.9261   4.9289   4.9354   4.9670   4.9777   4.9895   5.0194   5.0256
  5.0506
 --------------------------------------------------------------
 
          Ground-State Mulliken Net Atomic Charges

     Atom                 Charge (a.u.)
  ----------------------------------------
      1 C                     0.473488
      2 O                    -0.549126
      3 C                    -0.298421
      4 C                     0.161190
      5 C                    -0.208961
      6 C                    -0.315508
      7 C                    -0.399202
      8 C                    -0.388365
      9 C                    -0.307552
     10 C                    -0.135308
     11 C                    -0.124224
     12 C                    -0.129523
     13 C                    -0.028871
     14 C                    -0.313714
     15 C                    -0.309513
     16 C                    -0.313817
     17 C                    -0.320173
     18 C                     0.146501
     19 C                    -0.513730
     20 O                    -0.666507
     21 H                     0.200570
     22 H                     0.207632
     23 H                     0.147398
     24 H                     0.168486
     25 H                     0.207948
     26 H                     0.190657
     27 H                     0.165160
     28 H                     0.235098
     29 H                     0.146035
     30 H                     0.174923
     31 H                     0.143797
     32 H                     0.132746
     33 H                     0.136137
     34 H                     0.163929
     35 H                     0.155095
     36 H                     0.114923
     37 H                     0.157413
     38 H                     0.172896
     39 H                     0.148043
     40 H                     0.142007
     41 H                     0.158746
     42 H                     0.138619
     43 H                     0.160157
     44 H                     0.173592
     45 H                     0.147525
     46 H                     0.416224
     47 H                     0.158838
     48 C                    -0.377727
     49 H                     0.185249
     50 C                    -0.368700
     51 H                     0.162577
     52 H                     0.153005
     53 C                     0.107865
     54 C                    -0.201820
     55 H                     0.139298
     56 C                    -0.216987
     57 H                     0.148982
     58 C                     0.322650
     59 O                    -0.688315
     60 H                     0.453276
     61 C                    -0.217621
     62 H                     0.223459
     63 C                    -0.201644
     64 H                     0.148546
     65 C                     0.593881
     66 O                    -0.507576
     67 N                    -0.632927
     68 H                     0.334022
     69 C                    -0.126376
     70 H                     0.208083
     71 C                    -0.154412
     72 H                     0.133597
     73 C                    -0.472042
     74 H                     0.161914
     75 H                     0.156244
     76 H                     0.146958
     77 C                    -0.281677
     78 H                     0.147167
[...]
    2   0.2651170  -1.4051357   0.2600013   0.0138006  -1.0116400
    3  -1.0495266   1.3447734   2.0717531   5.0783431   1.4029070
 EField
            1           2           3           4           5           6
    1   0.0149307   0.0358387   0.0106875   0.0050375   0.0017225   0.0029334
    2   0.0082265   0.0299057  -0.0023891  -0.0018485  -0.0013071   0.0004992
    3   0.0081356  -0.0044333   0.0099521   0.0102333   0.0096110   0.0059935
            7           8           9          10          11          12
    1   0.0039451   0.0002878  -0.0015044  -0.0025977  -0.0004858  -0.0024983
    2   0.0047845  -0.0023918  -0.0034409  -0.0029999  -0.0020025  -0.0013889
    3   0.0073368   0.0122452   0.0053759   0.0029377   0.0041879   0.0008196
           13          14          15          16          17          18
    1  -0.0017600   0.0018635   0.0002908  -0.0044084  -0.0052541  -0.0060277
    2   0.0008779   0.0010624  -0.0025613  -0.0032004  -0.0008908   0.0000659
    3  -0.0000695  -0.0001814   0.0004653  -0.0002599   0.0001535   0.0001117
           19          20          21          22          23          24
    1   0.0004334  -0.0086280   0.0066463   0.0013409   0.0030723   0.0007255
    2   0.0010981   0.0013968  -0.0097490  -0.0019447   0.0020959  -0.0018669
    3  -0.0016837   0.0037789   0.0087993   0.0168381   0.0061292   0.0033179
           25          26          27          28          29          30
    1  -0.0015655   0.0054755   0.0036165  -0.0057441   0.0000545  -0.0022519
    2   0.0016530   0.0057433   0.0023193  -0.0057542  -0.0020847  -0.0030370
    3   0.0039989   0.0066943   0.0093796   0.0182007   0.0068904   0.0029950
           31          32          33          34          35          36
    1  -0.0045961   0.0016130  -0.0023792   0.0032366   0.0045835  -0.0042745
    2  -0.0033689  -0.0001659   0.0005459   0.0005953   0.0021435  -0.0086987
    3   0.0013089   0.0046849   0.0021486  -0.0006228   0.0043455  -0.0080930
           37          38          39          40          41          42
    1   0.0018072  -0.0050252  -0.0046209  -0.0052280  -0.0047441  -0.0089968
    2  -0.0025920  -0.0053982  -0.0023001  -0.0013832  -0.0005266  -0.0006450
    3   0.0015953   0.0013206  -0.0023521   0.0011732  -0.0006276  -0.0027241
           43          44          45          46          47          48
    1  -0.0036345   0.0040608   0.0025071  -0.0127723  -0.0252474   0.0002979
    2  -0.0001233   0.0097924  -0.0080839   0.0065849   0.0079580   0.0028291
    3  -0.0025643  -0.0071559  -0.0002107   0.0066496  -0.0220878   0.0044700
           49          50          51          52          53          54
    1  -0.0013624  -0.0010829  -0.0306454  -0.0048014   0.0041368   0.0056862
    2   0.0267510  -0.0009206  -0.0013272  -0.0248686  -0.0004507  -0.0025466
    3   0.0230119   0.0018276   0.0142571  -0.0214252   0.0048287  -0.0038281
           55          56          57          58          59          60
    1  -0.0305669  -0.0009325  -0.0047397  -0.0217897   0.0888604   0.0041266
    2   0.0179450   0.0016038   0.0082337   0.0151131  -0.0507853   0.0120635
    3   0.0140710  -0.0055648   0.0377686  -0.0138595  -0.0229246   0.0558434
           61          62          63          64          65          66
    1  -0.0068738   0.0166828  -0.0044976   0.0034459  -0.0038400   0.0591070
    2   0.0107127   0.0042224   0.0046420   0.0003976   0.0081422   0.0896325
    3   0.0007324  -0.0117020   0.0064815  -0.0386640   0.0084192   0.0328110
           67          68          69          70          71          72
    1   0.0069865  -0.0276504   0.0202042   0.0217300   0.0015426  -0.0223590
    2   0.0014147  -0.0316197   0.0042584   0.0166745  -0.0014645  -0.0126039
    3   0.0094664  -0.0144780  -0.0082265   0.0228779   0.0015744  -0.0229433
           73          74          75          76          77          78
    1  -0.0004172   0.0254929   0.0143100  -0.0067698   0.0010610  -0.0276501
    2   0.0001345   0.0139184  -0.0258248   0.0219883   0.0009770  -0.0122322
    3   0.0014430   0.0177617  -0.0149678  -0.0242719  -0.0041688   0.0095392
           79          80          81          82          83          84
    1   0.0109149   0.0018900  -0.0087373   0.0115661   0.0329030  -0.0051737
    2  -0.0272861   0.0038324   0.0286118  -0.0186982   0.0122202   0.0270112
    3  -0.0183890  -0.0008351   0.0217397   0.0104462  -0.0118452  -0.0211836
           85          86          87          88          89          90
    1  -0.0306428  -0.0004955   0.0147004  -0.0001202  -0.0163362  -0.0028382
    2   0.0114096  -0.0042145   0.0100849  -0.0001868  -0.0068882   0.0010377
    3  -0.0011477   0.0013187   0.0285335   0.0004627  -0.0264136   0.0025974
           91          92          93          94          95          96
    1   0.0190253   0.0010481   0.0199102   0.0011988  -0.0305773  -0.0008973
    2   0.0051577  -0.0332428   0.0116276   0.0013407   0.0117046  -0.0324946
    3   0.0302999   0.0002976  -0.0240641  -0.0008556  -0.0021040   0.0020945
           97          98          99         100         101         102
    1   0.0145943   0.0175707  -0.0161620   0.0001453  -0.0057430   0.0042157
    2   0.0071181   0.0124362  -0.0123099   0.0028898  -0.0169631   0.0031093
    3   0.0314208  -0.0249481   0.0249484  -0.0042575  -0.0289418  -0.0022847
          103         104         105         106         107         108
    1  -0.0310570   0.0095930   0.0028129   0.0734846  -0.0193135  -0.0064239
    2  -0.0009862   0.0190529  -0.0024766  -0.0403024   0.0785223   0.0098376
    3  -0.0060024   0.0261431  -0.0021249  -0.0416168  -0.0380822   0.0004752
          109         110         111         112         113         114
    1   0.0370805  -0.0035098   0.0155717   0.0032039   0.0090283  -0.0005854
    2   0.0841269   0.0016764   0.0037623   0.0091160   0.0297824   0.0009513
    3   0.0620490   0.0081129   0.0017490   0.0328374  -0.0182297  -0.0012473
          115         116         117         118         119         120
    1  -0.0005876   0.0308690   0.0019771   0.0004969   0.0068850  -0.0030068
    2  -0.0227414   0.0032332   0.0028737  -0.0319063   0.0190833  -0.0099701
    3   0.0238771  -0.0121520  -0.0024184  -0.0093212  -0.0290802  -0.0127430
          121         122         123         124         125         126
    1  -0.0189461  -0.0161378  -0.0135032   0.0004423   0.0218233   0.0013365
    2   0.0147791  -0.0229954  -0.0150511  -0.0031266  -0.0239670  -0.0003434
    3  -0.0270692   0.0183312   0.0248517  -0.0019889  -0.0137408  -0.0019065
          127         128         129         130         131         132
    1  -0.0198990   0.0155147  -0.0001670   0.0069457  -0.0148797   0.0090342
    2   0.0241532   0.0118602  -0.0069454  -0.0055398   0.0240034   0.0010716
    3   0.0097917  -0.0275259  -0.0003640  -0.0056914   0.0220516  -0.0016205
          133         134         135         136         137         138
    1  -0.0313446   0.0163699  -0.0951386   0.0398862   0.0020535   0.0203214
    2  -0.0093435   0.0273288  -0.0273645  -0.0335595   0.0043772  -0.0266340
    3   0.0161263   0.0050501  -0.0013817   0.0051827   0.0019756  -0.0277453
          139         140         141         142         143         144
    1  -0.0006866   0.0377973   0.0174171   0.0009945  -0.0008448   0.0267919
    2  -0.0015845   0.0034835   0.0255009   0.0133546  -0.0062956  -0.0187725
    3   0.0014683  -0.0140218   0.0107351   0.0293668  -0.0016069  -0.0045323
          145         146         147         148         149         150
    1  -0.0282327   0.0042579   0.0474562   0.0144242  -0.0199873  -0.0039379
    2  -0.0231534  -0.0138367  -0.0389976   0.0017793   0.0051115   0.0072944
    3  -0.0010418  -0.0018297  -0.0965852  -0.0032339   0.0387092  -0.0177302
          151         152         153         154         155         156
    1   0.0189899  -0.0013473  -0.0178865  -0.0061254   0.0006371   0.0034426
    2  -0.0141781  -0.0059293   0.0137546   0.0194579  -0.0037330  -0.0239203
    3  -0.0277914  -0.0018027   0.0239859  -0.0258221   0.0009498   0.0259107
          157         158         159         160         161         162
    1   0.0033180  -0.0057012  -0.0160502  -0.0160929   0.0018933   0.0353291
    2  -0.0023678   0.0141833  -0.0306033   0.0156021  -0.0012462  -0.0110112
    3   0.0000147  -0.0283588  -0.0022974   0.0227386   0.0025369   0.0064896
          163         164         165         166         167         168
    1  -0.0156944   0.0004901   0.0127281   0.0189015  -0.0023188   0.0179903
    2  -0.0303971   0.0160042   0.0297266   0.0244916  -0.0033239  -0.0239017
    3  -0.0070983  -0.0284616   0.0059282   0.0093124   0.0036584  -0.0130339
          169         170         171         172         173         174
    1  -0.0004520  -0.0199862   0.0024503   0.0173067  -0.0162847  -0.0225109
    2  -0.0018527   0.0233240  -0.0007118  -0.0266330  -0.0147362   0.0080076
    3   0.0015778   0.0132416   0.0024350  -0.0113315   0.0263046  -0.0214299
          175         176         177         178         179         180
    1  -0.0042587   0.0206113  -0.0139272   0.0144426  -0.0199435   0.0259279
    2  -0.0027718   0.0211751  -0.0134956  -0.0274145   0.0102240   0.0107073
    3   0.0018026   0.0111999   0.0322004  -0.0055016  -0.0232350   0.0182345
          181         182         183         184         185         186
    1   0.0008714   0.0106885   0.0007196  -0.0092998  -0.0259559   0.0232896
    2   0.0007429  -0.0016073  -0.0004839   0.0024537  -0.0103905  -0.0229122
    3   0.0009956  -0.0309993   0.0006062   0.0330967  -0.0167815   0.0005312
          187         188         189         190         191         192
    1  -0.0217815  -0.0215428   0.0001074  -0.0067882  -0.0009902   0.0199644
    2   0.0240485  -0.0174746   0.0002948  -0.0082177   0.0003428   0.0166843
    3   0.0016898   0.0181262   0.0002129  -0.0315022  -0.0028111  -0.0209877
          193         194         195         196         197         198
    1  -0.0302776   0.0005220  -0.0220225   0.0312501  -0.0136240   0.0012613
    2   0.0122540  -0.0128665  -0.0153152  -0.0086419   0.0294787  -0.0024799
    3  -0.0083033  -0.0030127   0.0215126   0.0065557  -0.0306680   0.0100751
          199         200         201         202         203         204
    1   0.0293193  -0.0105358  -0.0244176   0.0297146  -0.0088919   0.0011360
    2  -0.0086288   0.0311230  -0.0209966  -0.0135880  -0.0308813  -0.0001154
    3  -0.0050374   0.0101535   0.0190450   0.0055506   0.0065439   0.0007891
          205         206         207         208         209         210
    1   0.0015088   0.0003663   0.0109577  -0.0312408   0.0024479  -0.0014716
    2   0.0034370   0.0006306   0.0315008   0.0000310  -0.0014334  -0.0053412
    3  -0.0334817  -0.0006860  -0.0086332  -0.0122218   0.0042367   0.0016821
          211         212         213         214         215         216
    1   0.0212543  -0.0004446   0.0264301   0.0071900   0.0106770   0.0068835
    2   0.0291856  -0.0044545   0.0254285  -0.0026410  -0.0148169   0.0037027
    3  -0.0146000  -0.0065970   0.0230264  -0.0077889   0.0365057  -0.0056718
          217         218         219         220         221         222
    1  -0.0144210   0.0062980  -0.0209502   0.0326880   0.0249348  -0.0020148
    2  -0.0329595   0.0043768  -0.0219259   0.0007460  -0.0171566  -0.0015895
    3   0.0136058   0.0034770  -0.0230684   0.0113864  -0.0111182   0.0040772
          223         224         225         226         227         228
    1  -0.0171098   0.0000972  -0.0250496   0.0015501   0.0238657  -0.0187553
    2   0.0094062   0.0002121   0.0198271   0.0021718  -0.0214208  -0.0170820
    3  -0.0252786   0.0023177   0.0123133   0.0035387  -0.0080612   0.0211436
          229         230         231         232         233         234
    1  -0.0176519  -0.0012083   0.0104282  -0.0161637   0.0272430   0.0118056
    2   0.0053846   0.0012674   0.0281758  -0.0184419  -0.0178918   0.0283182
    3  -0.0264638   0.0007860   0.0209734   0.0264531  -0.0041623   0.0144356
          235         236         237         238         239         240
    1  -0.0250813  -0.0022751   0.0140373  -0.0015721   0.0224695  -0.0231657
    2  -0.0074867  -0.0001753   0.0273995   0.0022700   0.0113684   0.0255002
    3  -0.0218215  -0.0000615  -0.0102445  -0.0014369   0.0211873  -0.0001452
          241         242         243         244         245         246
    1   0.0082335   0.0216471  -0.0149250  -0.0439482   0.0039464   0.0052145
    2   0.0053117  -0.0268674   0.0040111   0.0166955  -0.0103448  -0.0243917
    3   0.0062225   0.0016941   0.0241375   0.0000383  -0.0045478   0.0241510
          247         248         249         250         251         252
    1  -0.0236288   0.0263377   0.0228695   0.0290705  -0.0012289  -0.0022648
    2  -0.0141795   0.0092657  -0.0229078   0.0112881   0.0001169  -0.0313979
    3  -0.0201492  -0.0180835  -0.0017486  -0.0103443   0.0026214  -0.0084689
          253         254         255         256         257         258
    1  -0.0036102   0.0232313   0.0038238  -0.0005091  -0.0250562  -0.0011234
    2  -0.0009805  -0.0144143   0.0312175   0.0014698   0.0161214   0.0035109
    3   0.0037291   0.0180478   0.0095319   0.0013083  -0.0152495   0.0032477
          259         260         261         262         263         264
    1   0.0199380  -0.0294082   0.0017946  -0.0006347  -0.0014629  -0.0292221
    2  -0.0161957  -0.0068834  -0.0106843  -0.0008538   0.0345829  -0.0097587
    3   0.0205287   0.0119964  -0.0303660   0.0017584   0.0078849   0.0182033
          265         266         267         268         269         270
    1   0.0213035  -0.0234771   0.0203446  -0.0005413   0.0204995   0.0002053
    2  -0.0124619   0.0161012   0.0162245   0.0028917  -0.0196371   0.0013001
    3   0.0241409  -0.0168735  -0.0209405   0.0042922   0.0185256  -0.0000140
          271         272         273         274         275         276
    1  -0.0186492   0.0029084   0.0177000  -0.0172164  -0.0201130   0.0004638
    2   0.0203918   0.0039929  -0.0180671   0.0184993  -0.0198494  -0.0027121
    3  -0.0194312   0.0012341   0.0219656   0.0220441  -0.0151111   0.0019431
          277         278         279         280         281         282
    1   0.0226089  -0.0133110   0.0193780  -0.0195889  -0.0053854   0.0034876
    2   0.0168260   0.0226341  -0.0147888  -0.0187187   0.0111022  -0.0046907
    3  -0.0176720   0.0208002   0.0266334  -0.0167301  -0.0305391  -0.0018009
          283         284         285         286         287         288
    1   0.0345371  -0.0028537  -0.0341331   0.0051616   0.0065057   0.1137239
    2  -0.0083555  -0.0059619   0.0079236  -0.0186003  -0.0304300  -0.0202982
    3   0.0007035   0.0010591  -0.0010867   0.0320982  -0.0020473  -0.0160711
          289         290         291         292         293         294
    1  -0.1064205   0.0011982  -0.0170796   0.0267179  -0.0000466  -0.0041497
    2   0.0047704  -0.0017437  -0.0302864  -0.0193430   0.0003613   0.0088773
    3   0.0323213   0.0118800  -0.0003969  -0.0001826  -0.0000004   0.0319178
          295         296         297         298         299         300
    1  -0.0025858   0.0014218  -0.0289731  -0.0015698  -0.0029907   0.0278668
    2  -0.0005960  -0.0107166   0.0179043  -0.0100979   0.0123125  -0.0155913
    3  -0.0007606  -0.0319563   0.0001889   0.0079043   0.0319661  -0.0023961
          301         302         303         304         305         306
    1  -0.0265441   0.0099507   0.0268671   0.0011685  -0.0087265  -0.0251423
    2   0.0063932   0.0080786  -0.0148830   0.0324382   0.0096176  -0.0207874
    3  -0.0341061   0.0056281  -0.0010989  -0.0134858   0.0335338  -0.0059971
          307         308         309         310         311         312
    1  -0.0201171   0.0021713  -0.0148611   0.0009136  -0.0279758   0.0136965
    2   0.0000156   0.0003096  -0.0193584   0.0001262   0.0162511   0.0182267
    3   0.0264925   0.0006164  -0.0225299   0.0022283  -0.0062818   0.0264084
          313         314         315         316         317         318
    1  -0.0120144  -0.0115364   0.0016391   0.0172322   0.0096761  -0.0067109
    2   0.0041405  -0.0204467   0.0281774  -0.0420243   0.0133502   0.0170931
    3   0.0000927  -0.0228411  -0.0131934   0.0038482   0.0038400   0.0309124
          319         320         321         322         323         324
    1   0.0387035  -0.0023315   0.0285637  -0.0136018   0.0009136  -0.0218164
    2  -0.0013611   0.0196400  -0.0153453  -0.0074832   0.0020414   0.0019279
    3   0.0039436  -0.0200893   0.0098761   0.0293005   0.0001088  -0.0223851
          325         326         327         328         329         330
    1   0.0036920   0.0277315   0.0124681  -0.0174722   0.0226350  -0.0168443
    2   0.0043707   0.0075211   0.0161967   0.0244426  -0.0235363  -0.0111313
    3   0.0006729   0.0226353  -0.0292932   0.0065605  -0.0083773   0.0259319
          331         332         333         334         335         336
    1  -0.0006252  -0.0018089  -0.0000469   0.0162951  -0.0306117  -0.0038784
    2   0.0023047  -0.0208625   0.0000323   0.0129282  -0.0005135   0.0043881
    3   0.0013170  -0.0247378  -0.0012736  -0.0264975  -0.0106753   0.0045281
          337         338         339         340         341         342
    1   0.0059257  -0.0375666  -0.0076189  -0.0256732   0.0165446   0.0041603
    2  -0.0083367  -0.0045786   0.0090528   0.0281328   0.0023409   0.0008381
    3  -0.0148821  -0.0033142   0.0081783   0.0307822  -0.0042666  -0.0054563
          343         344         345         346         347         348
    1  -0.0150240  -0.0086243   0.0226621  -0.0103050   0.0340778  -0.0002203
    2   0.0249817  -0.0022412   0.0209020   0.0010462  -0.0008760   0.0082977
    3   0.0264195  -0.0045132   0.0180806  -0.0002304  -0.0081146   0.0067923
          349         350         351         352         353         354
    1   0.0121110  -0.0005765   0.0314362   0.0015418  -0.0018045   0.0056134
    2  -0.0205673   0.0026457   0.0019926   0.0129661  -0.0004916   0.0244797
    3  -0.0267845   0.0001552   0.0111642  -0.0297105   0.0011349   0.0206398
          355         356         357         358         359         360
    1  -0.0020766  -0.0251673  -0.0071157  -0.0000832   0.0266372  -0.0018084
    2  -0.0005527   0.0225273  -0.0221147   0.0009281  -0.0198400  -0.0011528
    3   0.0032943  -0.0034579  -0.0239822  -0.0008933   0.0045762  -0.0017929
          361         362         363         364         365         366
    1  -0.0263412  -0.0021592   0.0253219   0.0016238   0.0000934  -0.0047210
    2   0.0199475  -0.0141669   0.0197937   0.0028506  -0.0234737  -0.0145837
    3   0.0002114   0.0295383   0.0014870  -0.0000544  -0.0221143   0.0291715
          367         368         369         370         371         372
    1  -0.0289239   0.0245543   0.0556048  -0.0429443   0.0099154  -0.0419907
    2   0.0176432  -0.0208385   0.0732077  -0.0017655  -0.0507853   0.0743038
    3  -0.0052178   0.0026808  -0.0349129   0.0157435  -0.0122874   0.0601399
          373         374         375         376         377
    1   0.0295791  -0.0145041  -0.0361527   0.0017465   0.0317984
    2  -0.0002011  -0.0527441   0.0529619  -0.0002241  -0.0303480
    3  -0.0406648   0.0025407  -0.0679439   0.0506580  -0.0194577
  --- DONE ESP SUMMARY ---
 Total job time:  19.47s(wall), 71.24s(cpu) 
 Tue Aug  6 16:31:42 2024

        *************************************************************
        *                                                           *
        *  Thank you very much for using Q-Chem.  Have a nice day.  *
        *                                                           *
        *************************************************************


