
Running Job 1 of 2 19nt_xstal_distance_cutoff5_xtb_optimized_spade_wb97x-v_631gd.in
qchem 19nt_xstal_distance_cutoff5_xtb_optimized_spade_wb97x-v_631gd.in_1240611.0 ./qchem1240611/ 1
srun -n 1 /cm/shared/apps/spack/0.17.3/cpu/b/opt/spack/linux-rocky8-zen2/gcc-10.2.0/qchem-6.0-rytxnwjazd34ekd2gqyi5ufsaimxsd3r/exe/qcprog.exe 19nt_xstal_distance_cutoff5_xtb_optimized_spade_wb97x-v_631gd.in_1240611.0 ./qchem1240611/

                  Welcome to Q-Chem
     A Quantum Leap Into The Future Of Chemistry


 Q-Chem 6.0, Q-Chem, Inc., Pleasanton, CA (2022)

 License issued to: University of California, San Diego (site)

 E. Epifanovsky,  A. T. B. Gilbert,  Xintian Feng,  Joonho Lee,  Yuezhi Mao,  
 N. Mardirossian,  P. Pokhilko,  A. White,  M. Wormit,  M. P. Coons,  
 A. L. Dempwolff,  Zhengting Gan,  D. Hait,  P. R. Horn,  L. D. Jacobson,  
 I. Kaliman,  J. Kussmann,  A. W. Lange,  Ka Un Lao,  D. S. Levine,  Jie Liu,  
 S. C. McKenzie,  A. F. Morrison,  K. Nanda,  F. Plasser,  D. R. Rehn,  
 M. L. Vidal,  Zhi-Qiang You,  Ying Zhu,  B. Alam,  B. Albrecht,  
 A. Aldossary,  E. Alguire,  J. H. Andersen,  V. Athavale,  D. Barton,  
 K. Begam,  A. Behn,  N. Bellonzi,  Y. A. Bernard,  E. J. Berquist,  
 H. Burton,  A. Carreras,  K. Carter-Fenk,  Romit Chakraborty,  
 Chandrima Chakravarty,  Junhan Chen,  A. D. Chien,  K. D. Closser,  
 V. Cofer-Shabica,  L. Cunha,  S. Dasgupta,  Jia Deng,  M. de Wergifosse,  
 M. Diedenhofen,  Hainam Do,  S. Ehlert,  Po-Tung Fang,  S. Fatehi,  
 Qingguo Feng,  T. Friedhoff,  B. Ganoe,  J. Gayvert,  Qinghui Ge,  
 G. Gidofalvi,  M. Goldey,  J. Gomes,  C. Gonzalez-Espinoza,  S. Gulania,  
 A. Gunina,  J. A. Gyamfi,  M. W. D. Hanson-Heine,  P. H. P. Harbach,  
 A. W. Hauser,  M. F. Herbst,  M. Hernandez Vera,  M. Hodecker,  
 Z. C. Holden,  S. Houck,  Xunkun Huang,  Kerwin Hui,  B. C. Huynh,  
 K. Ikeda,  M. Ivanov,  Hyunjun Ji,  Zuxin Jin,  Hanjie Jiang,  B. Kaduk,  
 S. Kaehler,  R. Kang,  K. Khistyaev,  Jaehoon Kim,  Yongbin Kim,  
 P. Klunzinger,  Z. Koczor-Benda,  Joong Hoon Koh,  D. Kosenkov,  
 Saikiran Kotaru,  L. Koulias,  T. Kowalczyk,  C. M. Krauter,  K. Kue,  
 A. Kunitsa,  T. Kus,  A. Landau,  K. V. Lawler,  D. Lefrancois,  S. Lehtola,  
 Rain Li,  Shaozhi Li,  Yi-Pei Li,  Jiashu Liang,  M. Liebenthal,  
 Hung-Hsuan Lin,  You-Sheng Lin,  Fenglai Liu,  Kuan-Yu Liu,  
 M. Loipersberger,  A. Luenser,  C. Malbon,  A. Manjanath,  P. Manohar,  
 E. Mansoor,  S. F. Manzer,  Shan-Ping Mao,  A. V. Marenich,  T. Markovich,  
 S. Mason,  F. Matz,  S. A. Maurer,  P. F. McLaughlin,  M. F. S. J. Menger,  
 J.-M. Mewes,  S. A. Mewes,  P. Morgante,  Mohammad Mostafanejad,  
 J. W. Mullinax,  K. J. Oosterbaan,  G. Paran,  V. Parravicini,  
 Alexander C. Paul,  Suranjan K. Paul,  F. Pavosevic,  Zheng Pei,  S. Prager,  
 E. I. Proynov,  E. Ramos,  B. Rana,  A. E. Rask,  A. Rettig,  R. M. Richard,  
 F. Rob,  E. Rossomme,  T. Scheele,  M. Scheurer,  M. Schneider,  
 P. E. Schneider,  N. Sergueev,  S. M. Sharada,  Hengyuan Shen,  
 W. Skomorowski,  D. W. Small,  C. J. Stein,  Yingli Su,  Yu-Chuan Su,  
 E. J. Sundstrom,  Zhen Tao,  J. Thirman,  Hung-Yi Tsai,  T. Tsuchimochi,  
 N. M. Tubman,  C. Utku,  S. P. Veccham,  O. Vydrov,  J. Wenzel,  
 Jonathan Wong,  J. Witte,  A. Yamada,  Chou-Hsun Yang,  Kun Yao,  
 S. Yeganeh,  S. R. Yost,  A. Zech,  F. Zeller,  Igor Ying Zhang,  
 Xing Zhang,  Yu Zhang,  D. Zuev,  A. Aspuru-Guzik,  A. T. Bell,  
 N. A. Besley,  K. B. Bravaya,  B. R. Brooks,  D. Casanova,  Jeng-Da Chai,  
 Hsing-Ta Chen,  S. Coriani,  C. J. Cramer,  A. E. DePrince, III,  
 R. A. DiStasio Jr.,  A. Dreuw,  B. D. Dunietz,  T. R. Furlani,  
 W. A. Goddard III,  S. Grimme,  S. Hammes-Schiffer,  T. Head-Gordon,  
 W. J. Hehre,  Chao-Ping Hsu,  T.-C. Jagau,  Yousung Jung,  A. Klamt,  
 Jing Kong,  D. S. Lambrecht,  Xiangyuan Li,  WanZhen Liang,  N. J. Mayhall,  
 C. W. McCurdy,  J. B. Neaton,  T. Neudecker,  C. Ochsenfeld,  
 J. A. Parkhill,  R. Peverati,  V. A. Rassolov,  Haisheng Ren,  Yihan Shao,  
 L. V. Slipchenko,  R. P. Steele,  J. E. Subotnik,  A. J. W. Thom,  
 A. Tkatchenko,  D. G. Truhlar,  T. Van Voorhis,  Fan Wang,  
 T. A. Wesolowski,  K. B. Whaley,  H. L. Woodcock III,  P. M. Zimmerman,  
 S. Faraji,  P. M. W. Gill,  M. Head-Gordon,  J. M. Herbert,  A. I. Krylov

 Contributors to earlier versions of Q-Chem not listed above: 
 R. D. Adamson,  B. Austin,  R. Baer,  J. Baker,  G. J. O. Beran,  
 K. Brandhorst,  S. T. Brown,  E. F. C. Byrd,  Arup K. Chakraborty,  
 G. K. L. Chan,  Chun-Min Chang,  Yunqing Chen,  C.-L. Cheng,  
 Siu Hung Chien,  D. M. Chipman,  D. L. Crittenden,  H. Dachsel,  
 R. J. Doerksen,  A. D. Dutoi,  R. G. Edgar,  J. Fosso-Tande,  
 L. Fusti-Molnar,  D. Ghosh,  A. Ghysels,  A. Golubeva-Zadorozhnaya,  
 J. Gonthier,  M. S. Gordon,  S. R. Gwaltney,  G. Hawkins,  J. E. Herr,  
 A. Heyden,  S. Hirata,  E. G. Hohenstein,  G. Kedziora,  F. J. Keil,  
 C. Kelley,  Jihan Kim,  R. A. King,  R. Z. Khaliullin,  P. P. Korambath,  
 W. Kurlancheek,  A. Laurent,  A. M. Lee,  M. S. Lee,  S. V. Levchenko,  
 Ching Yeh Lin,  D. Liotard,  E. Livshits,  R. C. Lochan,  I. Lotan,  
 L. A. Martinez-Martinez,  P. E. Maslen,  N. Nair,  D. P. O'Neill,  
 D. Neuhauser,  E. Neuscamman,  C. M. Oana,  R. Olivares-Amaya,  R. Olson,  
 T. M. Perrine,  B. Peters,  P. A. Pieniazek,  A. Prociuk,  Y. M. Rhee,  
 J. Ritchie,  M. A. Rohrdanz,  E. Rosta,  N. J. Russ,  H. F. Schaefer III,  
 M. W. Schmidt,  N. E. Schultz,  S. Sharma,  N. Shenvi,  C. D. Sherrill,  
 A. C. Simmonett,  A. Sodt,  T. Stein,  D. Stuck,  K. S. Thanthiriwatte,  
 V. Vanovschi,  L. Vogt,  Tao Wang,  A. Warshel,  M. A. Watson,  
 C. F. Williams,  Q. Wu,  X. Xu,  Jun Yang,  W. Zhang,  Yan Zhao

   Please cite Q-Chem as follows:
  "Software for the frontiers of quantum chemistry:
   An overview of developments in the Q-Chem 5 package"
   J. Chem. Phys. 155, 084801 (2021)
   https://doi.org/10.1063/5.0055522 (open access)

 Q-Chem 6.0.2 for Intel X86 EM64T Linux

 Parts of Q-Chem use Armadillo 9.900.5 (Nocturnal Misbehaviour).
 http://arma.sourceforge.net/

 Q-Chem begins on Fri Aug  9 13:58:31 2024  

 Host: 
0

     Scratch files written to ./qchem1240611//
 Dec722 |scratch|qcdevops|jenkins|workspace|build_RNUM    
 Processing $rem in /cm/shared/apps/spack/0.17.3/cpu/b/opt/spack/linux-rocky8-zen2/gcc-10.2.0/qchem-6.0-rytxnwjazd34ekd2gqyi5ufsaimxsd3r/config/preferences:
 Processing $rem in /home/hklem/.qchemrc:
 No nuclear gradient supported for projection-based embedding or EMFT. Set max ideriv = 0.

 Checking the input file for inconsistencies... 	...done.

--------------------------------------------------------------
User input:
--------------------------------------------------------------
$molecule
-1 1
--
0 1
C    3.69900    2.05200    -8.74000
O    3.76200    1.04400    -8.03400
C    3.37000    3.35200    -8.22800
C    3.39600    4.47800    -8.97200
C    3.87400    4.48700    -10.39600
C    4.63800    3.20400    -10.73500
C    3.91300    1.97000    -10.22300
C    2.87000    5.75000    -8.41500
C    3.67400    6.98200    -8.81600
C    3.92800    7.00000    -10.32000
C    4.72600    5.74100    -10.69300
C    4.72600    8.23100    -10.73000
C    5.08800    8.25500    -12.22300
C    5.95100    7.03700    -12.52900
C    5.19900    5.75900    -12.15200
C    4.11000    9.61200    -10.49700
C    4.95300    10.53900   -11.39200
C    5.81700    9.61300    -12.29000
C    3.87300    8.28000    -13.16000
O    6.04800    10.13000   -13.57600
H    3.06100    3.39300    -7.19200
H    2.97300    4.53600    -11.02200
H    5.63400    3.25200    -10.28400
H    4.76200    3.11300    -11.81400
H    2.92000    1.90700    -10.67800
H    4.45000    1.05500    -10.47300
H    2.80000    5.68400    -7.32900
H    1.84200    5.85800    -8.78700
H    4.63200    6.97300    -8.28800
H    3.13600    7.87900    -8.51300
H    2.96300    6.98800    -10.83200
H    5.61700    5.70700    -10.05400
H    5.67500    8.19600    -10.18000
H    6.88300    7.09500    -11.96200
H    6.21000    7.00800    -13.58900
H    4.33400    5.65000    -12.80600
H    5.86600    4.91500    -12.33000
H    4.14900    9.91400    -9.45100
H    3.06400    9.61200    -10.80100
H    5.58900    11.19600   -10.79800
H    4.32800    11.17600   -12.01900
H    6.81300    9.50300    -11.85200
H    3.37400    9.24600    -13.14500
H    4.19500    8.05700    -14.17700
H    3.14100    7.53200    -12.87600
H    5.24800    9.99500    -14.09700
--
-1 1
H    6.71200    -6.59400   -9.38700
C    6.10200    -5.75600   -9.73600
H    5.67000    -6.02200   -10.70200
C    4.97300    -5.49200   -8.72800
H    4.36100    -6.39600   -8.66300
H    5.39900    -5.30700   -7.73900
C    4.10900    -4.32300   -9.11700
C    3.02100    -4.45900   -9.96800
H    2.78700    -5.42900   -10.38500
C    2.21700    -3.37600   -10.28400
H    1.36800    -3.50200   -10.94300
C    2.49600    -2.12200   -9.75100
O    1.74000    -1.02300   -9.98000
H    0.98500    -1.20000   -10.56600
C    3.60100    -1.97300   -8.91700
H    3.81100    -0.99600   -8.51700
C    4.38600    -3.06100   -8.60600
H    5.22800    -2.93300   -7.94400
C    7.02200    -4.56400   -9.99000
O    7.16100    -4.09700   -11.10400
N    7.70200    -4.09800   -8.92000
H    7.61000    -4.55100   -8.02500
C    8.73100    -3.08100   -9.05100
H    8.44100    -2.45000   -9.89300
C    8.94400    -2.24700   -7.78800
H    9.22500    -2.92700   -6.97200
C    10.10900   -1.28600   -8.02100
H    9.90900    -0.63900   -8.87000
H    10.25800   -0.66500   -7.14200
H    11.02700   -1.83500   -8.22100
C    7.68500    -1.49800   -7.33600
H    6.96600    -2.23200   -6.96500
H    7.95100    -0.86500   -6.48700
C    7.02700    -0.64400   -8.41100
H    6.64300    -1.26000   -9.21900
H    6.19700    -0.08700   -7.98400
H    7.73100    0.07600    -8.81800
H    9.68100    -3.56800   -9.31600
H    7.98100    -2.21100   -13.49300
C    7.89900    -1.13000   -13.57600
H    7.28000    -0.89500   -14.44000
C    7.27400    -0.56100   -12.30700
H    7.92100    -0.82300   -11.46300
C    7.17900    0.96000    -12.38400
H    6.49500    1.25200    -13.17700
H    6.81500    1.36500    -11.44400
H    8.15300    1.40000    -12.59200
C    5.90200    -1.18800   -12.08000
H    6.00000    -2.26400   -11.95900
H    5.43000    -0.78900   -11.18500
H    5.24800    -0.99100   -12.92800
H    8.89200    -0.71600   -13.74000
H    -3.92200   6.09400    -7.48200
C    -2.86800   6.31700    -7.67600
H    -2.31600   6.24100    -6.74100
C    -2.30100   5.31400    -8.67800
H    -2.49600   4.28900    -8.35300
H    -2.76600   5.46700    -9.65500
C    -0.77700   5.50000    -8.85900
O    -0.21500   6.40600    -8.23500
O    -0.19900   4.69600    -9.63600
C    -2.79200   7.72100    -8.24900
O    -3.00600   7.95900    -9.42600
N    -2.53700   8.72100    -7.37900
C    -2.47100   10.09700   -7.84300
H    -3.25600   10.27200   -8.58200
H    -1.50200   10.28300   -8.31700
C    -2.62100   10.92500   -6.57300
H    -3.67700   11.05000   -6.32300
H    -2.16100   11.90600   -6.66300
C    -1.93200   10.04400   -5.53400
H    -2.22700   10.27700   -4.51200
H    -0.85000   10.15400   -5.62000
C    -2.34500   8.63100    -5.94700
H    -1.56900   7.90400    -5.69400
H    -3.28100   8.33300    -5.45600
H    -0.49700   2.35300    -16.94300
C    0.58600    2.42000    -17.01700
H    0.92800    3.20000    -16.34300
C    1.22700    1.08100    -16.64900
H    0.92200    0.31500    -17.36700
H    2.31300    1.18200    -16.70000
C    0.82100    0.67200    -15.26200
C    -0.01500   -0.41000   -15.03600
H    -0.34100   -1.01900   -15.86800
C    -0.46100   -0.71600   -13.76200
H    -1.12500   -1.55100   -13.59100
C    -0.07900   0.07800    -12.68900
O    -0.56300   -0.19500   -11.44000
H    -0.56400   0.64800    -10.94400
C    0.79800    1.13500    -12.90000
H    1.10900    1.72800    -12.05400
C    1.24200    1.42600    -14.17200
H    1.90300    2.26400    -14.33000
H    0.84500    2.70100    -18.03700
H    2.39100    6.70200    -17.80200
C    2.93900    6.73800    -16.86500
H    2.95200    7.75300    -16.48100
H    2.43800    6.10000    -16.13500
C    4.36000    6.24000    -17.02600
O    5.28800    6.67100    -16.36800
N    4.51800    5.27300    -17.96200
H    3.69500    4.88700    -18.39800
C    5.76800    4.57600    -18.20400
H    6.52800    5.09400    -17.61900
C    5.69500    3.09700    -17.81400
H    5.02100    2.58300    -18.50600
H    6.69100    2.66600    -17.94000
C    5.21000    2.84100    -16.38100
H    4.18800    3.22500    -16.28600
C    5.19100    1.33600    -16.11500
H    6.20600    0.94300    -16.10200
H    4.72700    1.12100    -15.15500
H    4.63400    0.80700    -16.88700
C    6.09000    3.53600    -15.34600
H    6.02300    4.61700    -15.43100
H    5.77400    3.25700    -14.34300
H    7.12900    3.23900    -15.46900
H    6.02400    4.66100    -19.26600
H    11.39400   6.36200    -16.64700
C    11.21800   6.02200    -15.62800
H    11.44900   6.83700    -14.94500
C    9.76400    5.58500    -15.44400
H    9.56800    4.74600    -16.12400
C    9.52800    5.12200    -14.00900
H    9.71700    5.94100    -13.31900
H    8.49800    4.79900    -13.87800
H    10.18600   4.29300    -13.75600
C    8.81300    6.72800    -15.78600
H    9.02100    7.12400    -16.77800
H    7.77700    6.40100    -15.76200
H    8.92400    7.52800    -15.06000
H    11.89700   5.19800    -15.41800
H    12.71900   2.92200    -10.55600
C    11.97300   2.37500    -9.98300
H    11.74800   2.94400    -9.08400
C    10.71000   2.16800    -10.80700
H    10.92700   1.58900    -11.70300
H    9.96100    1.63100    -10.22900
H    10.29000   3.12500    -11.10800
H    12.39800   1.41900    -9.68500
H    5.30600    -1.98800   0.31400
C    6.25300    -1.48400   0.13300
H    6.96800    -1.81300   0.88300
C    6.76400    -1.80000   -1.26800
H    7.72200    -1.30300   -1.43500
H    6.92600    -2.87500   -1.37100
C    5.77500    -1.34400   -2.32600
H    4.81400    -1.84900   -2.20400
H    5.62400    -0.26400   -2.27500
S    6.37600    -1.72800   -4.00800
C    4.97400    -1.01500   -4.90400
H    4.91600    0.04500    -4.67800
H    5.14700    -1.14900   -5.96500
H    4.06900    -1.53300   -4.60200
H    6.09900    -0.41400   0.25000
H    9.16800    3.04400    -2.78600
C    10.04700   2.58500    -3.23200
H    10.73200   2.29600    -2.43700
C    9.64300    1.36700    -4.06800
H    10.53800   0.91500    -4.50100
H    9.16800    0.62500    -3.42200
C    8.69000    1.76800    -5.15800
C    9.15100    2.08600    -6.42900
H    10.20700   2.00500    -6.65000
C    8.27300    2.50300    -7.41300
H    8.64800    2.74400    -8.39700
C    6.92200    2.61300    -7.13700
H    6.23400    2.94500    -7.90100
C    6.44700    2.28700    -5.87900
H    5.39100    2.35400    -5.66600
C    7.32900    1.87000    -4.89900
H    6.96000    1.61800    -3.91400
H    10.53500   3.32800    -3.86000
H    11.07100   7.24300    -8.40400
C    10.72200   6.33300    -8.89100
H    11.42100   5.53400    -8.65600
C    9.31600    5.97900    -8.41200
H    9.01600    5.04200    -8.89100
C    9.29700    5.77600    -6.89900
H    9.57400    6.69700    -6.38800
H    8.30600    5.47700    -6.56500
H    9.99700    4.99700    -6.60500
C    8.32100    7.06200    -8.81700
H    8.31900    7.19500    -9.89700
H    7.31700    6.79400    -8.49600
H    8.58300    8.01100    -8.35300
H    10.72900   6.49100    -9.96800
H    12.08000   9.79400    -13.22100
C    11.74900   10.54600   -13.93400
H    12.50300   10.63200   -14.71300
C    10.40600   10.14700   -14.53200
H    10.09100   10.89400   -15.26600
H    10.51400   9.19400    -15.05300
C    9.30900    10.02500   -13.48600
H    9.17500    10.95900   -12.94300
H    8.36000    9.75300    -13.94700
S    9.67000    8.74200    -12.23100
C    10.02800   9.79300    -10.79200
H    9.14100    10.36800   -10.53800
H    10.28500   9.12800    -9.97400
H    10.86200   10.45200   -11.01300
H    11.67400   11.50500   -13.42300
H    9.97700    11.28300   -6.61300
C    9.34900    10.58700   -6.06000
H    9.35100    10.89200   -5.01700
C    7.93900    10.57400   -6.63500
H    7.48900    11.56200   -6.52000
H    7.99800    10.36600   -7.70700
C    7.03100    9.52400    -5.98700
H    7.53600    8.55200    -6.04000
C    6.75600    9.83900    -4.52000
H    6.21700    10.78100   -4.43300
H    6.14900    9.05100    -4.08300
H    7.67600    9.91000    -3.94600
C    5.71600    9.42900    -6.75700
H    5.89900    9.15400    -7.79200
H    5.06100    8.68500    -6.31300
H    5.19400    10.38400   -6.74500
H    9.79600    9.59700    -6.12700
H    6.86600    6.65100    -3.31300
C    5.97800    6.20200    -2.87200
H    5.24000    6.98500    -2.70800
C    5.41200    5.12000    -3.78700
H    6.17700    4.34800    -3.92600
C    4.18200    4.47800    -3.15200
H    3.39000    5.21600    -3.03300
H    3.81500    3.66800    -3.77400
H    4.42400    4.07600    -2.16900
C    5.06700    5.70000    -5.15500
H    5.94400    6.15300    -5.61300
H    4.70700    4.91500    -5.81400
H    4.29400    6.46200    -5.06600
H    6.25200    5.78400    -1.90500
H    3.08300    0.53100    -2.33600
C    2.10200    0.96500    -2.51400
H    2.20400    2.04700    -2.51600
C    1.55000    0.49300    -3.84900
H    1.49700    -0.59600   -3.88600
H    0.54400    0.88800    -4.01500
C    2.40600    0.96300    -5.00200
O    3.21700    1.85500    -4.92300
O    2.18000    0.28600    -6.10900
H    2.79200    0.60600    -6.84400
H    1.44000    0.67400    -1.70100
H    -1.98200   -3.15800   -2.28900
C    -1.66900   -4.18900   -2.43700
H    -2.22000   -4.59700   -3.28300
C    -0.16800   -4.26000   -2.69100
H    0.37400    -3.85500   -1.83500
H    0.14000    -5.30000   -2.81800
C    0.20800    -3.47500   -3.93600
H    -0.29200   -3.88100   -4.81700
H    -0.06400   -2.42400   -3.82000
S    2.00700    -3.56700   -4.25100
C    2.02900    -3.08600   -6.00000
H    1.77000    -2.03700   -6.10800
H    3.03800    -3.25100   -6.36100
H    1.33800    -3.71600   -6.55400
H    -1.93200   -4.75900   -1.54900
H    -4.41700   -1.65100   -5.71700
C    -3.42600   -1.27700   -5.47100
H    -3.02600   -1.87000   -4.65100
C    -2.50300   -1.35200   -6.68200
H    -2.37100   -2.39500   -6.98400
H    -2.95400   -0.81800   -7.52100
C    -1.13700   -0.75300   -6.38000
H    -0.75200   -1.15000   -5.44300
H    -0.42000   -0.95600   -7.17300
S    -1.19100   1.06200    -6.17900
C    -0.61200   1.56000    -7.82000
H    -1.32700   1.23400    -8.57000
H    -0.53400   2.64200    -7.82600
H    0.36500    1.12000    -8.00200
H    -3.51300   -0.24500   -5.14000
H    -1.23200   3.98200    -4.43800
C    -0.23700   4.33100    -4.16700
H    0.12000    3.72700    -3.33500
C    0.70600    4.20900    -5.35500
H    0.38000    4.84000    -6.18000
H    1.71800    4.49300    -5.07400
H    0.73100    3.18100    -5.70200
H    -0.31400   5.36400    -3.83100
H    1.31900    9.56600    -2.26400
C    2.33700    9.89600    -2.46400
H    2.88700    9.91200    -1.52500
C    3.01300    8.96100    -3.46600
H    4.04100    9.30000    -3.61600
H    3.04200    7.95100    -3.04900
C    2.31600    8.91700    -4.78700
C    1.62300    7.86200    -5.31400
H    1.43900    6.89900    -4.87700
N    1.14700    8.16200    -6.55400
H    0.64400    7.52900    -7.17200
C    1.53400    9.42500    -6.86800
C    1.31900    10.16700   -8.02400
H    0.77700    9.73700    -8.85400
C    1.83300    11.44300   -8.07300
H    1.68900    12.04700   -8.95700
C    2.55100    11.97700   -6.99700
H    2.94100    12.98300   -7.07800
C    2.77700    11.24700   -5.85100
H    3.34200    11.66900   -5.03200
C    2.26900    9.95000    -5.77100
H    2.29300    10.90800   -2.85900
H    9.80600    14.67300   -4.81700
C    8.76900    14.96600   -4.96600
H    8.53800    14.86000   -6.02300
C    7.84900    14.09800   -4.11300
H    7.95100    13.05400   -4.41600
H    8.17000    14.17200   -3.07100
C    6.37200    14.50000   -4.19800
H    6.30000    15.58400   -4.04600
C    5.76600    14.15900   -5.55700
H    5.80500    13.08600   -5.73300
H    4.72400    14.47000   -5.59400
H    6.29700    14.66000   -6.36300
C    5.57600    13.80600   -3.09300
H    5.94900    14.08800   -2.11000
H    4.52400    14.07600   -3.15100
H    5.65800    12.72600   -3.19100
H    8.66500    16.01500   -4.69400
O    0.99100    4.55400    -12.04600
H    0.45000    3.78600    -12.25600
H    0.66800    4.82300    -11.16100
O    2.32000    4.63200    -14.51500
H    3.24700    4.68600    -14.27000
H    1.81900    4.71300    -13.68600
O    -1.04200   2.47700    -10.76700
H    -1.93700   2.70100    -11.02600
H    -0.70700   3.28000    -10.28100
$end

$rem
JOBTYPE  SP
METHOD  WB97X-V
BASIS  6-31G(D)
SYMMETRY  FALSE
SYM_IGNORE  TRUE
MEM_TOTAL  64000
MEM_STATIC  4000
BASIS_LIN_DEP_THRESH  6
THRESH  14
SCF_CONVERGENCE  8
FD_MAT_VEC_PROD  FALSE
XC_GRID  000075000302
NL_GRID  1
MAX_SCF_CYCLES  200
ENV_METHOD  WB97X-V
GEN_SCFMAN_EMBED  TRUE
SPADE_PARTITION  TRUE
EMBEDDING_EARLY_STOP  TRUE
$end

--------------------------------------------------------------
 ----------------------------------------------------------------
             Standard Nuclear Orientation (Angstroms)
    I     Atom           X                Y                Z
 ----------------------------------------------------------------
    1      C       3.6990000000     2.0520000000    -8.7400000000
    2      O       3.7620000000     1.0440000000    -8.0340000000
    3      C       3.3700000000     3.3520000000    -8.2280000000
    4      C       3.3960000000     4.4780000000    -8.9720000000
    5      C       3.8740000000     4.4870000000   -10.3960000000
    6      C       4.6380000000     3.2040000000   -10.7350000000
    7      C       3.9130000000     1.9700000000   -10.2230000000
    8      C       2.8700000000     5.7500000000    -8.4150000000
    9      C       3.6740000000     6.9820000000    -8.8160000000
   10      C       3.9280000000     7.0000000000   -10.3200000000
   11      C       4.7260000000     5.7410000000   -10.6930000000
   12      C       4.7260000000     8.2310000000   -10.7300000000
   13      C       5.0880000000     8.2550000000   -12.2230000000
   14      C       5.9510000000     7.0370000000   -12.5290000000
   15      C       5.1990000000     5.7590000000   -12.1520000000
   16      C       4.1100000000     9.6120000000   -10.4970000000
   17      C       4.9530000000    10.5390000000   -11.3920000000
   18      C       5.8170000000     9.6130000000   -12.2900000000
   19      C       3.8730000000     8.2800000000   -13.1600000000
   20      O       6.0480000000    10.1300000000   -13.5760000000
   21      H       3.0610000000     3.3930000000    -7.1920000000
   22      H       2.9730000000     4.5360000000   -11.0220000000
   23      H       5.6340000000     3.2520000000   -10.2840000000
   24      H       4.7620000000     3.1130000000   -11.8140000000
   25      H       2.9200000000     1.9070000000   -10.6780000000
   26      H       4.4500000000     1.0550000000   -10.4730000000
   27      H       2.8000000000     5.6840000000    -7.3290000000
   28      H       1.8420000000     5.8580000000    -8.7870000000
   29      H       4.6320000000     6.9730000000    -8.2880000000
   30      H       3.1360000000     7.8790000000    -8.5130000000
   31      H       2.9630000000     6.9880000000   -10.8320000000
   32      H       5.6170000000     5.7070000000   -10.0540000000
   33      H       5.6750000000     8.1960000000   -10.1800000000
   34      H       6.8830000000     7.0950000000   -11.9620000000
   35      H       6.2100000000     7.0080000000   -13.5890000000
   36      H       4.3340000000     5.6500000000   -12.8060000000
   37      H       5.8660000000     4.9150000000   -12.3300000000
   38      H       4.1490000000     9.9140000000    -9.4510000000
   39      H       3.0640000000     9.6120000000   -10.8010000000
   40      H       5.5890000000    11.1960000000   -10.7980000000
   41      H       4.3280000000    11.1760000000   -12.0190000000
   42      H       6.8130000000     9.5030000000   -11.8520000000
   43      H       3.3740000000     9.2460000000   -13.1450000000
   44      H       4.1950000000     8.0570000000   -14.1770000000
   45      H       3.1410000000     7.5320000000   -12.8760000000
   46      H       5.2480000000     9.9950000000   -14.0970000000
   47      H       6.7120000000    -6.5940000000    -9.3870000000
   48      C       6.1020000000    -5.7560000000    -9.7360000000
   49      H       5.6700000000    -6.0220000000   -10.7020000000
   50      C       4.9730000000    -5.4920000000    -8.7280000000
   51      H       4.3610000000    -6.3960000000    -8.6630000000
   52      H       5.3990000000    -5.3070000000    -7.7390000000
   53      C       4.1090000000    -4.3230000000    -9.1170000000
   54      C       3.0210000000    -4.4590000000    -9.9680000000
   55      H       2.7870000000    -5.4290000000   -10.3850000000
   56      C       2.2170000000    -3.3760000000   -10.2840000000
   57      H       1.3680000000    -3.5020000000   -10.9430000000
   58      C       2.4960000000    -2.1220000000    -9.7510000000
   59      O       1.7400000000    -1.0230000000    -9.9800000000
   60      H       0.9850000000    -1.2000000000   -10.5660000000
   61      C       3.6010000000    -1.9730000000    -8.9170000000
   62      H       3.8110000000    -0.9960000000    -8.5170000000
   63      C       4.3860000000    -3.0610000000    -8.6060000000
   64      H       5.2280000000    -2.9330000000    -7.9440000000
   65      C       7.0220000000    -4.5640000000    -9.9900000000
   66      O       7.1610000000    -4.0970000000   -11.1040000000
   67      N       7.7020000000    -4.0980000000    -8.9200000000
   68      H       7.6100000000    -4.5510000000    -8.0250000000
   69      C       8.7310000000    -3.0810000000    -9.0510000000
   70      H       8.4410000000    -2.4500000000    -9.8930000000
   71      C       8.9440000000    -2.2470000000    -7.7880000000
   72      H       9.2250000000    -2.9270000000    -6.9720000000
   73      C      10.1090000000    -1.2860000000    -8.0210000000
   74      H       9.9090000000    -0.6390000000    -8.8700000000
   75      H      10.2580000000    -0.6650000000    -7.1420000000
   76      H      11.0270000000    -1.8350000000    -8.2210000000
   77      C       7.6850000000    -1.4980000000    -7.3360000000
   78      H       6.9660000000    -2.2320000000    -6.9650000000
   79      H       7.9510000000    -0.8650000000    -6.4870000000
   80      C       7.0270000000    -0.6440000000    -8.4110000000
   81      H       6.6430000000    -1.2600000000    -9.2190000000
   82      H       6.1970000000    -0.0870000000    -7.9840000000
   83      H       7.7310000000     0.0760000000    -8.8180000000
   84      H       9.6810000000    -3.5680000000    -9.3160000000
   85      H       7.9810000000    -2.2110000000   -13.4930000000
   86      C       7.8990000000    -1.1300000000   -13.5760000000
   87      H       7.2800000000    -0.8950000000   -14.4400000000
   88      C       7.2740000000    -0.5610000000   -12.3070000000
   89      H       7.9210000000    -0.8230000000   -11.4630000000
   90      C       7.1790000000     0.9600000000   -12.3840000000
   91      H       6.4950000000     1.2520000000   -13.1770000000
   92      H       6.8150000000     1.3650000000   -11.4440000000
   93      H       8.1530000000     1.4000000000   -12.5920000000
   94      C       5.9020000000    -1.1880000000   -12.0800000000
   95      H       6.0000000000    -2.2640000000   -11.9590000000
   96      H       5.4300000000    -0.7890000000   -11.1850000000
   97      H       5.2480000000    -0.9910000000   -12.9280000000
   98      H       8.8920000000    -0.7160000000   -13.7400000000
   99      H      -3.9220000000     6.0940000000    -7.4820000000
  100      C      -2.8680000000     6.3170000000    -7.6760000000
  101      H      -2.3160000000     6.2410000000    -6.7410000000
  102      C      -2.3010000000     5.3140000000    -8.6780000000
  103      H      -2.4960000000     4.2890000000    -8.3530000000
  104      H      -2.7660000000     5.4670000000    -9.6550000000
  105      C      -0.7770000000     5.5000000000    -8.8590000000
  106      O      -0.2150000000     6.4060000000    -8.2350000000
  107      O      -0.1990000000     4.6960000000    -9.6360000000
  108      C      -2.7920000000     7.7210000000    -8.2490000000
  109      O      -3.0060000000     7.9590000000    -9.4260000000
  110      N      -2.5370000000     8.7210000000    -7.3790000000
  111      C      -2.4710000000    10.0970000000    -7.8430000000
  112      H      -3.2560000000    10.2720000000    -8.5820000000
  113      H      -1.5020000000    10.2830000000    -8.3170000000
  114      C      -2.6210000000    10.9250000000    -6.5730000000
  115      H      -3.6770000000    11.0500000000    -6.3230000000
  116      H      -2.1610000000    11.9060000000    -6.6630000000
  117      C      -1.9320000000    10.0440000000    -5.5340000000
  118      H      -2.2270000000    10.2770000000    -4.5120000000
  119      H      -0.8500000000    10.1540000000    -5.6200000000
  120      C      -2.3450000000     8.6310000000    -5.9470000000
  121      H      -1.5690000000     7.9040000000    -5.6940000000
  122      H      -3.2810000000     8.3330000000    -5.4560000000
  123      H      -0.4970000000     2.3530000000   -16.9430000000
  124      C       0.5860000000     2.4200000000   -17.0170000000
  125      H       0.9280000000     3.2000000000   -16.3430000000
  126      C       1.2270000000     1.0810000000   -16.6490000000
  127      H       0.9220000000     0.3150000000   -17.3670000000
  128      H       2.3130000000     1.1820000000   -16.7000000000
  129      C       0.8210000000     0.6720000000   -15.2620000000
  130      C      -0.0150000000    -0.4100000000   -15.0360000000
  131      H      -0.3410000000    -1.0190000000   -15.8680000000
  132      C      -0.4610000000    -0.7160000000   -13.7620000000
  133      H      -1.1250000000    -1.5510000000   -13.5910000000
  134      C      -0.0790000000     0.0780000000   -12.6890000000
  135      O      -0.5630000000    -0.1950000000   -11.4400000000
  136      H      -0.5640000000     0.6480000000   -10.9440000000
  137      C       0.7980000000     1.1350000000   -12.9000000000
  138      H       1.1090000000     1.7280000000   -12.0540000000
  139      C       1.2420000000     1.4260000000   -14.1720000000
  140      H       1.9030000000     2.2640000000   -14.3300000000
  141      H       0.8450000000     2.7010000000   -18.0370000000
  142      H       2.3910000000     6.7020000000   -17.8020000000
  143      C       2.9390000000     6.7380000000   -16.8650000000
  144      H       2.9520000000     7.7530000000   -16.4810000000
  145      H       2.4380000000     6.1000000000   -16.1350000000
  146      C       4.3600000000     6.2400000000   -17.0260000000
  147      O       5.2880000000     6.6710000000   -16.3680000000
  148      N       4.5180000000     5.2730000000   -17.9620000000
  149      H       3.6950000000     4.8870000000   -18.3980000000
  150      C       5.7680000000     4.5760000000   -18.2040000000
  151      H       6.5280000000     5.0940000000   -17.6190000000
  152      C       5.6950000000     3.0970000000   -17.8140000000
  153      H       5.0210000000     2.5830000000   -18.5060000000
  154      H       6.6910000000     2.6660000000   -17.9400000000
  155      C       5.2100000000     2.8410000000   -16.3810000000
  156      H       4.1880000000     3.2250000000   -16.2860000000
  157      C       5.1910000000     1.3360000000   -16.1150000000
  158      H       6.2060000000     0.9430000000   -16.1020000000
  159      H       4.7270000000     1.1210000000   -15.1550000000
  160      H       4.6340000000     0.8070000000   -16.8870000000
  161      C       6.0900000000     3.5360000000   -15.3460000000
  162      H       6.0230000000     4.6170000000   -15.4310000000
  163      H       5.7740000000     3.2570000000   -14.3430000000
  164      H       7.1290000000     3.2390000000   -15.4690000000
  165      H       6.0240000000     4.6610000000   -19.2660000000
  166      H      11.3940000000     6.3620000000   -16.6470000000
  167      C      11.2180000000     6.0220000000   -15.6280000000
  168      H      11.4490000000     6.8370000000   -14.9450000000
  169      C       9.7640000000     5.5850000000   -15.4440000000
  170      H       9.5680000000     4.7460000000   -16.1240000000
  171      C       9.5280000000     5.1220000000   -14.0090000000
  172      H       9.7170000000     5.9410000000   -13.3190000000
  173      H       8.4980000000     4.7990000000   -13.8780000000
  174      H      10.1860000000     4.2930000000   -13.7560000000
  175      C       8.8130000000     6.7280000000   -15.7860000000
  176      H       9.0210000000     7.1240000000   -16.7780000000
  177      H       7.7770000000     6.4010000000   -15.7620000000
  178      H       8.9240000000     7.5280000000   -15.0600000000
  179      H      11.8970000000     5.1980000000   -15.4180000000
  180      H      12.7190000000     2.9220000000   -10.5560000000
  181      C      11.9730000000     2.3750000000    -9.9830000000
  182      H      11.7480000000     2.9440000000    -9.0840000000
  183      C      10.7100000000     2.1680000000   -10.8070000000
  184      H      10.9270000000     1.5890000000   -11.7030000000
  185      H       9.9610000000     1.6310000000   -10.2290000000
  186      H      10.2900000000     3.1250000000   -11.1080000000
  187      H      12.3980000000     1.4190000000    -9.6850000000
  188      H       5.3060000000    -1.9880000000     0.3140000000
  189      C       6.2530000000    -1.4840000000     0.1330000000
  190      H       6.9680000000    -1.8130000000     0.8830000000
  191      C       6.7640000000    -1.8000000000    -1.2680000000
  192      H       7.7220000000    -1.3030000000    -1.4350000000
  193      H       6.9260000000    -2.8750000000    -1.3710000000
  194      C       5.7750000000    -1.3440000000    -2.3260000000
  195      H       4.8140000000    -1.8490000000    -2.2040000000
  196      H       5.6240000000    -0.2640000000    -2.2750000000
  197      S       6.3760000000    -1.7280000000    -4.0080000000
  198      C       4.9740000000    -1.0150000000    -4.9040000000
  199      H       4.9160000000     0.0450000000    -4.6780000000
  200      H       5.1470000000    -1.1490000000    -5.9650000000
  201      H       4.0690000000    -1.5330000000    -4.6020000000
  202      H       6.0990000000    -0.4140000000     0.2500000000
  203      H       9.1680000000     3.0440000000    -2.7860000000
  204      C      10.0470000000     2.5850000000    -3.2320000000
  205      H      10.7320000000     2.2960000000    -2.4370000000
  206      C       9.6430000000     1.3670000000    -4.0680000000
  207      H      10.5380000000     0.9150000000    -4.5010000000
  208      H       9.1680000000     0.6250000000    -3.4220000000
  209      C       8.6900000000     1.7680000000    -5.1580000000
  210      C       9.1510000000     2.0860000000    -6.4290000000
  211      H      10.2070000000     2.0050000000    -6.6500000000
  212      C       8.2730000000     2.5030000000    -7.4130000000
  213      H       8.6480000000     2.7440000000    -8.3970000000
  214      C       6.9220000000     2.6130000000    -7.1370000000
  215      H       6.2340000000     2.9450000000    -7.9010000000
  216      C       6.4470000000     2.2870000000    -5.8790000000
  217      H       5.3910000000     2.3540000000    -5.6660000000
  218      C       7.3290000000     1.8700000000    -4.8990000000
  219      H       6.9600000000     1.6180000000    -3.9140000000
  220      H      10.5350000000     3.3280000000    -3.8600000000
  221      H      11.0710000000     7.2430000000    -8.4040000000
  222      C      10.7220000000     6.3330000000    -8.8910000000
  223      H      11.4210000000     5.5340000000    -8.6560000000
  224      C       9.3160000000     5.9790000000    -8.4120000000
  225      H       9.0160000000     5.0420000000    -8.8910000000
  226      C       9.2970000000     5.7760000000    -6.8990000000
  227      H       9.5740000000     6.6970000000    -6.3880000000
  228      H       8.3060000000     5.4770000000    -6.5650000000
  229      H       9.9970000000     4.9970000000    -6.6050000000
  230      C       8.3210000000     7.0620000000    -8.8170000000
  231      H       8.3190000000     7.1950000000    -9.8970000000
  232      H       7.3170000000     6.7940000000    -8.4960000000
  233      H       8.5830000000     8.0110000000    -8.3530000000
  234      H      10.7290000000     6.4910000000    -9.9680000000
  235      H      12.0800000000     9.7940000000   -13.2210000000
  236      C      11.7490000000    10.5460000000   -13.9340000000
  237      H      12.5030000000    10.6320000000   -14.7130000000
  238      C      10.4060000000    10.1470000000   -14.5320000000
  239      H      10.0910000000    10.8940000000   -15.2660000000
  240      H      10.5140000000     9.1940000000   -15.0530000000
  241      C       9.3090000000    10.0250000000   -13.4860000000
  242      H       9.1750000000    10.9590000000   -12.9430000000
  243      H       8.3600000000     9.7530000000   -13.9470000000
  244      S       9.6700000000     8.7420000000   -12.2310000000
  245      C      10.0280000000     9.7930000000   -10.7920000000
  246      H       9.1410000000    10.3680000000   -10.5380000000
  247      H      10.2850000000     9.1280000000    -9.9740000000
  248      H      10.8620000000    10.4520000000   -11.0130000000
  249      H      11.6740000000    11.5050000000   -13.4230000000
  250      H       9.9770000000    11.2830000000    -6.6130000000
  251      C       9.3490000000    10.5870000000    -6.0600000000
  252      H       9.3510000000    10.8920000000    -5.0170000000
  253      C       7.9390000000    10.5740000000    -6.6350000000
  254      H       7.4890000000    11.5620000000    -6.5200000000
  255      H       7.9980000000    10.3660000000    -7.7070000000
  256      C       7.0310000000     9.5240000000    -5.9870000000
  257      H       7.5360000000     8.5520000000    -6.0400000000
  258      C       6.7560000000     9.8390000000    -4.5200000000
  259      H       6.2170000000    10.7810000000    -4.4330000000
  260      H       6.1490000000     9.0510000000    -4.0830000000
  261      H       7.6760000000     9.9100000000    -3.9460000000
  262      C       5.7160000000     9.4290000000    -6.7570000000
  263      H       5.8990000000     9.1540000000    -7.7920000000
  264      H       5.0610000000     8.6850000000    -6.3130000000
  265      H       5.1940000000    10.3840000000    -6.7450000000
  266      H       9.7960000000     9.5970000000    -6.1270000000
  267      H       6.8660000000     6.6510000000    -3.3130000000
  268      C       5.9780000000     6.2020000000    -2.8720000000
  269      H       5.2400000000     6.9850000000    -2.7080000000
  270      C       5.4120000000     5.1200000000    -3.7870000000
  271      H       6.1770000000     4.3480000000    -3.9260000000
  272      C       4.1820000000     4.4780000000    -3.1520000000
  273      H       3.3900000000     5.2160000000    -3.0330000000
  274      H       3.8150000000     3.6680000000    -3.7740000000
  275      H       4.4240000000     4.0760000000    -2.1690000000
  276      C       5.0670000000     5.7000000000    -5.1550000000
  277      H       5.9440000000     6.1530000000    -5.6130000000
  278      H       4.7070000000     4.9150000000    -5.8140000000
  279      H       4.2940000000     6.4620000000    -5.0660000000
  280      H       6.2520000000     5.7840000000    -1.9050000000
  281      H       3.0830000000     0.5310000000    -2.3360000000
  282      C       2.1020000000     0.9650000000    -2.5140000000
  283      H       2.2040000000     2.0470000000    -2.5160000000
  284      C       1.5500000000     0.4930000000    -3.8490000000
  285      H       1.4970000000    -0.5960000000    -3.8860000000
  286      H       0.5440000000     0.8880000000    -4.0150000000
  287      C       2.4060000000     0.9630000000    -5.0020000000
  288      O       3.2170000000     1.8550000000    -4.9230000000
  289      O       2.1800000000     0.2860000000    -6.1090000000
  290      H       2.7920000000     0.6060000000    -6.8440000000
  291      H       1.4400000000     0.6740000000    -1.7010000000
  292      H      -1.9820000000    -3.1580000000    -2.2890000000
  293      C      -1.6690000000    -4.1890000000    -2.4370000000
  294      H      -2.2200000000    -4.5970000000    -3.2830000000
  295      C      -0.1680000000    -4.2600000000    -2.6910000000
  296      H       0.3740000000    -3.8550000000    -1.8350000000
  297      H       0.1400000000    -5.3000000000    -2.8180000000
  298      C       0.2080000000    -3.4750000000    -3.9360000000
  299      H      -0.2920000000    -3.8810000000    -4.8170000000
  300      H      -0.0640000000    -2.4240000000    -3.8200000000
  301      S       2.0070000000    -3.5670000000    -4.2510000000
  302      C       2.0290000000    -3.0860000000    -6.0000000000
  303      H       1.7700000000    -2.0370000000    -6.1080000000
  304      H       3.0380000000    -3.2510000000    -6.3610000000
  305      H       1.3380000000    -3.7160000000    -6.5540000000
  306      H      -1.9320000000    -4.7590000000    -1.5490000000
  307      H      -4.4170000000    -1.6510000000    -5.7170000000
  308      C      -3.4260000000    -1.2770000000    -5.4710000000
  309      H      -3.0260000000    -1.8700000000    -4.6510000000
  310      C      -2.5030000000    -1.3520000000    -6.6820000000
  311      H      -2.3710000000    -2.3950000000    -6.9840000000
  312      H      -2.9540000000    -0.8180000000    -7.5210000000
  313      C      -1.1370000000    -0.7530000000    -6.3800000000
  314      H      -0.7520000000    -1.1500000000    -5.4430000000
  315      H      -0.4200000000    -0.9560000000    -7.1730000000
  316      S      -1.1910000000     1.0620000000    -6.1790000000
  317      C      -0.6120000000     1.5600000000    -7.8200000000
  318      H      -1.3270000000     1.2340000000    -8.5700000000
  319      H      -0.5340000000     2.6420000000    -7.8260000000
  320      H       0.3650000000     1.1200000000    -8.0020000000
  321      H      -3.5130000000    -0.2450000000    -5.1400000000
  322      H      -1.2320000000     3.9820000000    -4.4380000000
  323      C      -0.2370000000     4.3310000000    -4.1670000000
  324      H       0.1200000000     3.7270000000    -3.3350000000
  325      C       0.7060000000     4.2090000000    -5.3550000000
  326      H       0.3800000000     4.8400000000    -6.1800000000
  327      H       1.7180000000     4.4930000000    -5.0740000000
  328      H       0.7310000000     3.1810000000    -5.7020000000
  329      H      -0.3140000000     5.3640000000    -3.8310000000
  330      H       1.3190000000     9.5660000000    -2.2640000000
  331      C       2.3370000000     9.8960000000    -2.4640000000
  332      H       2.8870000000     9.9120000000    -1.5250000000
  333      C       3.0130000000     8.9610000000    -3.4660000000
  334      H       4.0410000000     9.3000000000    -3.6160000000
  335      H       3.0420000000     7.9510000000    -3.0490000000
  336      C       2.3160000000     8.9170000000    -4.7870000000
  337      C       1.6230000000     7.8620000000    -5.3140000000
  338      H       1.4390000000     6.8990000000    -4.8770000000
  339      N       1.1470000000     8.1620000000    -6.5540000000
  340      H       0.6440000000     7.5290000000    -7.1720000000
  341      C       1.5340000000     9.4250000000    -6.8680000000
  342      C       1.3190000000    10.1670000000    -8.0240000000
  343      H       0.7770000000     9.7370000000    -8.8540000000
  344      C       1.8330000000    11.4430000000    -8.0730000000
  345      H       1.6890000000    12.0470000000    -8.9570000000
  346      C       2.5510000000    11.9770000000    -6.9970000000
  347      H       2.9410000000    12.9830000000    -7.0780000000
  348      C       2.7770000000    11.2470000000    -5.8510000000
  349      H       3.3420000000    11.6690000000    -5.0320000000
  350      C       2.2690000000     9.9500000000    -5.7710000000
  351      H       2.2930000000    10.9080000000    -2.8590000000
  352      H       9.8060000000    14.6730000000    -4.8170000000
  353      C       8.7690000000    14.9660000000    -4.9660000000
  354      H       8.5380000000    14.8600000000    -6.0230000000
  355      C       7.8490000000    14.0980000000    -4.1130000000
  356      H       7.9510000000    13.0540000000    -4.4160000000
  357      H       8.1700000000    14.1720000000    -3.0710000000
  358      C       6.3720000000    14.5000000000    -4.1980000000
  359      H       6.3000000000    15.5840000000    -4.0460000000
  360      C       5.7660000000    14.1590000000    -5.5570000000
  361      H       5.8050000000    13.0860000000    -5.7330000000
  362      H       4.7240000000    14.4700000000    -5.5940000000
  363      H       6.2970000000    14.6600000000    -6.3630000000
  364      C       5.5760000000    13.8060000000    -3.0930000000
  365      H       5.9490000000    14.0880000000    -2.1100000000
  366      H       4.5240000000    14.0760000000    -3.1510000000
  367      H       5.6580000000    12.7260000000    -3.1910000000
  368      H       8.6650000000    16.0150000000    -4.6940000000
  369      O       0.9910000000     4.5540000000   -12.0460000000
  370      H       0.4500000000     3.7860000000   -12.2560000000
  371      H       0.6680000000     4.8230000000   -11.1610000000
  372      O       2.3200000000     4.6320000000   -14.5150000000
  373      H       3.2470000000     4.6860000000   -14.2700000000
  374      H       1.8190000000     4.7130000000   -13.6860000000
  375      O      -1.0420000000     2.4770000000   -10.7670000000
  376      H      -1.9370000000     2.7010000000   -11.0260000000
  377      H      -0.7070000000     3.2800000000   -10.2810000000
 ----------------------------------------------------------------
 Nuclear Repulsion Energy =       45249.72059955 hartrees
 There are      585 alpha and      585 beta electrons
 Requested basis set is 6-31G(d)
 There are 1046 shells and 2642 basis functions

 Total QAlloc Memory Limit  64000 MB
 Mega-Array Size      3911 MB
 MEM_STATIC part      4000 MB

 A cutoff of  1.0D-14 yielded 129003 shell pairs
 There are    796268 function pairs
 Smallest overlap matrix eigenvalue = 3.30E-04

 Scale SEOQF with 1.000000e-02/1.000000e-02/1.000000e-03

 Standard Electronic Orientation quadrupole field applied
 Nucleus-field energy     =     0.0000003557 hartrees
 Guess from superposition of atomic densities
 Warning:  Energy on first SCF cycle will be non-variational
 SAD guess density has 1169.000003 electrons

 -----------------------------------------------------------------------
  General SCF calculation program by
  Eric Jon Sundstrom, Paul Horn, Yuezhi Mao, Dmitri Zuev, Alec White,
  David Stuck, Shaama M.S., Shane Yost, Joonho Lee, David Small,
  Daniel Levine, Susi Lehtola, Hugh Burton, Evgeny Epifanovsky,
  Bang C. Huynh
 -----------------------------------------------------------------------
=================================================
        Doing projection-based embedding         
      F. Manby et al. JCTC, 8, 2564 (2012)       
=================================================

****************************************************
   Low-level SCF calculation for the whole system   
****************************************************
----------------------------------------------
 Summary of the low-level theory: 
 Exchange:     0.1670 Hartree-Fock + 1.0000 wB97X-V + LR-HF
 Correlation:  1.0000 wB97X-V
 Using Euler-Maclaurin-Lebedev (75,302) quadrature formula
 Nonlocal Correlation:  VV10 with C = 0.0100 and b = 6.00 and scale = 1.00000
 Grid used for NLC:  SG-1 standard quadrature
----------------------------------------------
 using 32 threads for integral computing
 -------------------------------------------------------
 OpenMP Integral computing Module                
 Release: version 1.0, May 2013, Q-Chem Inc. Pittsburgh 
 -------------------------------------------------------
 A restricted SCF calculation will be
 performed using DIIS
 SCF converges when DIIS error is below 1.0e-08
 ---------------------------------------
  Cycle       Energy         DIIS error
 ---------------------------------------
    1   -7693.1723809025      1.51e-02  
    2   -7651.2356448222      1.34e-03  
    3   -7651.6222783820      1.30e-03  
    4   -7652.6692879200      2.33e-04  
    5   -7652.7028613169      9.74e-05  
    6   -7652.7094030399      2.37e-05  
    7   -7652.7098235372      6.30e-06  
    8   -7652.7098675868      2.16e-06  
    9   -7652.7098741139      1.12e-06  
   10   -7652.7098757745      3.98e-07  
   11   -7652.7098760395      1.88e-07  
   12   -7652.7098761020      6.31e-08  
   13   -7652.7098761109      2.43e-08  
   14   -7652.7098761130      1.19e-08  
   15   -7652.7098761133      5.93e-09  Convergence criterion met
 ---------------------------------------
 SCF time:   CPU 102649.41s  wall 3477.00s 
 SCF   energy in the final basis set =    -7652.7098761133
 Total energy in the final basis set =    -7652.7098761133

****************************************************
             Start embedding calculation            
****************************************************
----------------------------------------------
 Summary of the high-level theory: 
 Exchange:     0.1670 Hartree-Fock + 1.0000 wB97X-V + LR-HF
 Correlation:  1.0000 wB97X-V
 Using Euler-Maclaurin-Lebedev (75,302) quadrature formula
 Nonlocal Correlation:  VV10 with C = 0.0100 and b = 6.00 and scale = 1.00000
 Grid used for NLC:  SG-1 standard quadrature
----------------------------------------------
Doing R-in-R Embedding Calculation
Number of fragments: 2
Embedded fragment(s): 1 
NOcc for each fragment
           75
          510
NBasis for each fragment
          352
         2290
Variational space of the embedded problem: 
NOcc (active)  = 75
NOcc (fixed)   = 510
NVir (total)   = 2057
Read converged orbitals from disk
=========================================================
       Doing SPADE partition for the orbital space       
     D. Claudino and N. Mayhall JCTC 15, 1053 (2019)     
=========================================================
SPADE singular values:
 1.0000 1.0000 1.0000 1.0000 1.0000 1.0000 1.0000 1.0000 1.0000 1.0000
 1.0000 1.0000 1.0000 1.0000 1.0000 1.0000 1.0000 1.0000 1.0000 1.0000
 1.0000 1.0000 1.0000 1.0000 1.0000 1.0000 1.0000 1.0000 1.0000 1.0000
 1.0000 1.0000 1.0000 1.0000 1.0000 1.0000 1.0000 1.0000 1.0000 1.0000
 1.0000 1.0000 1.0000 1.0000 1.0000 0.9999 0.9999 0.9999 0.9999 0.9998
 0.9998 0.9997 0.9997 0.9996 0.9995 0.9995 0.9994 0.9994 0.9993 0.9992
 0.9992 0.9991 0.9989 0.9987 0.9985 0.9985 0.9982 0.9981 0.9978 0.9975
 0.9967 0.9955 0.9954 0.9903 0.9706 0.1479 0.1246 0.0851 0.0837 0.0810
 0.0732 0.0717 0.0695 0.0674 0.0621 0.0604 0.0568 0.0537 0.0528 0.0481
 0.0451 0.0416 0.0401 0.0381 0.0350 0.0329 0.0316 0.0274 0.0267 0.0261
 0.0242 0.0237 0.0224 0.0209 0.0183 0.0179 0.0174 0.0152 0.0142 0.0134
 0.0121 0.0113 0.0109 0.0103 0.0102 0.0094 0.0088 0.0086 0.0077 0.0072
 0.0070 0.0067 0.0065 0.0057 0.0056 0.0052 0.0052 0.0049 0.0047 0.0046
 0.0042 0.0040 0.0039 0.0037 0.0034 0.0033 0.0031 0.0031 0.0030 0.0026
 0.0025 0.0023 0.0021 0.0021 0.0020 0.0019 0.0018 0.0017 0.0017 0.0016
 0.0015 0.0015 0.0014 0.0013 0.0013 0.0013 0.0013 0.0012 0.0012 0.0012
 0.0011 0.0011 0.0011 0.0010 0.0010 0.0010 0.0009 0.0009 0.0009 0.0009
 0.0008 0.0008 0.0007 0.0007 0.0007 0.0007 0.0007 0.0006 0.0006 0.0006
 0.0006 0.0006 0.0006 0.0006 0.0005 0.0005 0.0005 0.0005 0.0005 0.0005
 0.0004 0.0004 0.0004 0.0004 0.0004 0.0004 0.0004 0.0004 0.0003 0.0003
 0.0003 0.0003 0.0003 0.0003 0.0003 0.0003 0.0003 0.0003 0.0003 0.0003
 0.0002 0.0002 0.0002 0.0002 0.0002 0.0002 0.0002 0.0002 0.0002 0.0002
 0.0002 0.0002 0.0002 0.0002 0.0002 0.0002 0.0002 0.0002 0.0001 0.0001
 0.0001 0.0001 0.0001 0.0001 0.0001 0.0001 0.0001 0.0001 0.0001 0.0001
 0.0001 0.0001 0.0001 0.0001 0.0001 0.0001 0.0001 0.0001 0.0001 0.0001
 0.0001 0.0001 0.0001 0.0001 0.0001 0.0001 0.0001 0.0001 0.0001 0.0001
 0.0001 0.0001 0.0001 0.0001 0.0001 0.0000 0.0000 0.0000 0.0000 0.0000
 0.0000 0.0000 0.0000 0.0000 0.0000 0.0000 0.0000 0.0000 0.0000 0.0000
 0.0000 0.0000 0.0000 0.0000 0.0000 0.0000 0.0000 0.0000 0.0000 0.0000
 0.0000 0.0000 0.0000 0.0000 0.0000 0.0000 0.0000 0.0000 0.0000 0.0000
 0.0000 0.0000 0.0000 0.0000 0.0000 0.0000 0.0000 0.0000 0.0000 0.0000
 0.0000 0.0000 0.0000 0.0000 0.0000 0.0000 0.0000 0.0000 0.0000 0.0000
 0.0000 0.0000 0.0000 0.0000 0.0000 0.0000 0.0000 0.0000 0.0000 0.0000
 0.0000 0.0000 0.0000 0.0000 0.0000 0.0000 0.0000 0.0000 0.0000 0.0000
 0.0000 0.0000 0.0000 0.0000 0.0000 0.0000 0.0000 0.0000 0.0000 0.0000
 0.0000 0.0000
Early stop requested; no embedded SCF will be performed

 510 environment occs will be part of frozen-core in future post-HF calculations
 
 --------------------------------------------------------------
 
                    Orbital Energies (a.u.)
 --------------------------------------------------------------
 
 Alpha MOs
 -- Occupied --
-88.8038 -88.8034 -88.7967 -88.7907 -19.1858 -19.1830 -19.1795 -19.1530
-19.1522 -19.1467 -19.1422 -19.1367 -19.1297 -19.1081 -19.1051 -19.1033
-14.3919 -14.3878 -14.3767 -14.3675 -10.3344 -10.3238 -10.3166 -10.2964
-10.2929 -10.2696 -10.2687 -10.2575 -10.2527 -10.2473 -10.2453 -10.2446
-10.2445 -10.2387 -10.2378 -10.2340 -10.2336 -10.2323 -10.2320 -10.2314
-10.2309 -10.2293 -10.2288 -10.2284 -10.2261 -10.2250 -10.2247 -10.2240
-10.2235 -10.2225 -10.2211 -10.2209 -10.2202 -10.2200 -10.2199 -10.2197
-10.2196 -10.2183 -10.2165 -10.2160 -10.2151 -10.2151 -10.2150 -10.2146
-10.2146 -10.2145 -10.2144 -10.2140 -10.2140 -10.2132 -10.2132 -10.2127
-10.2125 -10.2122 -10.2120 -10.2120 -10.2119 -10.2118 -10.2114 -10.2105
-10.2101 -10.2100 -10.2098 -10.2097 -10.2097 -10.2095 -10.2085 -10.2083
-10.2082 -10.2073 -10.2071 -10.2067 -10.2058 -10.2056 -10.2051 -10.2044
-10.2043 -10.2042 -10.2038 -10.2029 -10.2022 -10.2021 -10.2019 -10.2018
-10.2014 -10.2003 -10.1992 -10.1987 -10.1983 -10.1966 -10.1956 -10.1948
-10.1944 -10.1932 -10.1927 -10.1901 -10.1898 -10.1878 -10.1869 -10.1858
-10.1846 -10.1839 -10.1810 -10.1737  -7.9698  -7.9693  -7.9629  -7.9570
 -5.9277  -5.9273  -5.9236  -5.9232  -5.9208  -5.9169  -5.9164  -5.9160
 -5.9149  -5.9108  -5.9094  -5.9037  -1.1549  -1.1136  -1.1084  -1.1057
 -1.1025  -1.0932  -1.0818  -1.0595  -1.0588  -1.0530  -1.0444  -1.0377
 -0.9991  -0.9972  -0.9953  -0.9918  -0.9286  -0.9261  -0.9241  -0.9044
 -0.8990  -0.8968  -0.8908  -0.8901  -0.8890  -0.8858  -0.8846  -0.8842
 -0.8753  -0.8717  -0.8668  -0.8639  -0.8621  -0.8606  -0.8598  -0.8581
 -0.8509  -0.8453  -0.8407  -0.8364  -0.8341  -0.8320  -0.8314  -0.8279
 -0.8254  -0.8185  -0.8126  -0.8111  -0.8105  -0.8104  -0.8073  -0.8048
 -0.8008  -0.7982  -0.7920  -0.7902  -0.7871  -0.7850  -0.7769  -0.7696
 -0.7651  -0.7638  -0.7622  -0.7587  -0.7542  -0.7523  -0.7514  -0.7499
 -0.7460  -0.7459  -0.7443  -0.7403  -0.7372  -0.7370  -0.7322  -0.7278
 -0.7216  -0.7209  -0.7103  -0.7045  -0.7020  -0.6965  -0.6946  -0.6900
 -0.6887  -0.6876  -0.6870  -0.6841  -0.6810  -0.6803  -0.6753  -0.6752
 -0.6744  -0.6716  -0.6698  -0.6629  -0.6584  -0.6483  -0.6463  -0.6456
 -0.6453  -0.6412  -0.6377  -0.6340  -0.6308  -0.6307  -0.6298  -0.6297
 -0.6243  -0.6225  -0.6201  -0.6180  -0.6130  -0.6129  -0.6107  -0.6045
 -0.6018  -0.6002  -0.5934  -0.5908  -0.5866  -0.5844  -0.5758  -0.5675
 -0.5611  -0.5569  -0.5508  -0.5497  -0.5491  -0.5443  -0.5429  -0.5374
 -0.5367  -0.5363  -0.5362  -0.5357  -0.5337  -0.5319  -0.5285  -0.5264
 -0.5240  -0.5234  -0.5211  -0.5208  -0.5205  -0.5195  -0.5174  -0.5164
 -0.5153  -0.5149  -0.5135  -0.5129  -0.5122  -0.5110  -0.5097  -0.5096
 -0.5090  -0.5045  -0.5026  -0.5026  -0.5000  -0.4992  -0.4971  -0.4963
 -0.4950  -0.4940  -0.4931  -0.4929  -0.4916  -0.4914  -0.4891  -0.4864
 -0.4852  -0.4838  -0.4832  -0.4817  -0.4804  -0.4796  -0.4790  -0.4783
 -0.4778  -0.4769  -0.4763  -0.4762  -0.4747  -0.4745  -0.4726  -0.4719
 -0.4715  -0.4713  -0.4710  -0.4709  -0.4705  -0.4700  -0.4672  -0.4664
 -0.4663  -0.4658  -0.4651  -0.4640  -0.4634  -0.4630  -0.4625  -0.4617
 -0.4612  -0.4592  -0.4586  -0.4576  -0.4561  -0.4558  -0.4556  -0.4547
 -0.4539  -0.4531  -0.4528  -0.4513  -0.4508  -0.4502  -0.4498  -0.4477
 -0.4474  -0.4468  -0.4462  -0.4435  -0.4416  -0.4412  -0.4392  -0.4390
 -0.4375  -0.4373  -0.4358  -0.4344  -0.4320  -0.4308  -0.4308  -0.4295
 -0.4289  -0.4282  -0.4260  -0.4252  -0.4243  -0.4241  -0.4236  -0.4206
 -0.4195  -0.4193  -0.4178  -0.4171  -0.4155  -0.4147  -0.4144  -0.4130
 -0.4128  -0.4126  -0.4119  -0.4115  -0.4101  -0.4089  -0.4089  -0.4083
 -0.4079  -0.4070  -0.4051  -0.4050  -0.4047  -0.4044  -0.4029  -0.4000
 -0.3999  -0.3989  -0.3987  -0.3984  -0.3966  -0.3964  -0.3949  -0.3938
 -0.3938  -0.3933  -0.3928  -0.3912  -0.3909  -0.3905  -0.3902  -0.3890
 -0.3885  -0.3879  -0.3877  -0.3876  -0.3864  -0.3861  -0.3849  -0.3830
 -0.3818  -0.3808  -0.3787  -0.3781  -0.3757  -0.3756  -0.3738  -0.3731
 -0.3723  -0.3710  -0.3702  -0.3691  -0.3689  -0.3687  -0.3683  -0.3678
 -0.3672  -0.3665  -0.3662  -0.3659  -0.3638  -0.3635  -0.3625  -0.3621
 -0.3615  -0.3612  -0.3610  -0.3606  -0.3598  -0.3580  -0.3577  -0.3567
 -0.3559  -0.3552  -0.3542  -0.3534  -0.3526  -0.3512  -0.3503  -0.3501
 -0.3478  -0.3461  -0.3447  -0.3441  -0.3440  -0.3428  -0.3406  -0.3401
 -0.3392  -0.3367  -0.3359  -0.3331  -0.3322  -0.3285  -0.3222  -0.2980
 -0.2976  -0.2941  -0.2902  -0.2884  -0.2823  -0.2821  -0.2747  -0.2723
 -0.2722  -0.2703  -0.2670  -0.2643  -0.2611  -0.2561  -0.2548  -0.2498
 -0.2454  -0.2416  -0.2359  -0.2332  -0.2305  -0.2091 -10.5017 -10.4614
-11.2487 -10.1787 -11.6745 -10.0774 -10.0156 -12.3386 -12.0046 -10.2120
-10.2509 -10.1692  -9.9581  -9.6249  -9.8611 -10.1110  -9.2321  -8.4637
 -8.9271  -2.6275  -1.1707  -1.7480  -1.4929  -1.0480  -1.0748  -4.8340
 -7.5331  -3.6040  -1.2481  -1.7228  -0.9668  -2.2189  -0.8895  -0.8777
 -0.8008  -0.9262  -0.9416  -0.6980  -0.6395  -1.1071  -0.5297  -0.7162
 -0.6521  -0.6081  -0.5736  -0.9708  -0.4631  -0.5273  -0.3879  -0.4649
 -1.5719  -0.5539  -0.6201  -0.4714  -0.5031  -0.4472  -0.4952  -0.4710
 -0.4454  -0.4737  -0.4614  -0.3970  -0.4552  -0.4121  -0.4522  -0.4243
 -0.4116  -0.4169  -0.3854  -0.4071  -0.3928  -0.3702  -0.4208  -0.3927
 -0.5306
 -- Virtual --
  0.1018   0.1410   0.1492   0.1506   0.1529   0.1530   0.1643   0.1653
  0.1717   0.1757   0.1811   0.1817   0.1830   0.1855   0.1869   0.1874
  0.1880   0.1884   0.1925   0.1964   0.1981   0.2039   0.2065   0.2072
  0.2078   0.2081   0.2110   0.2131   0.2151   0.2169   0.2188   0.2225
  0.2247   0.2269   0.2276   0.2285   0.2293   0.2312   0.2333   0.2346
  0.2356   0.2374   0.2377   0.2394   0.2403   0.2415   0.2426   0.2444
  0.2459   0.2466   0.2471   0.2482   0.2491   0.2503   0.2512   0.2517
  0.2532   0.2543   0.2566   0.2572   0.2579   0.2605   0.2607   0.2619
  0.2628   0.2636   0.2646   0.2653   0.2664   0.2672   0.2681   0.2692
  0.2704   0.2705   0.2714   0.2724   0.2739   0.2747   0.2759   0.2769
  0.2783   0.2789   0.2805   0.2816   0.2829   0.2840   0.2846   0.2862
  0.2867   0.2884   0.2890   0.2897   0.2903   0.2920   0.2928   0.2936
  0.2940   0.2954   0.2963   0.2972   0.2986   0.2992   0.3005   0.3008
  0.3013   0.3019   0.3025   0.3031   0.3043   0.3045   0.3051   0.3061
  0.3063   0.3069   0.3077   0.3081   0.3092   0.3098   0.3105   0.3123
  0.3125   0.3133   0.3139   0.3141   0.3143   0.3147   0.3155   0.3159
  0.3168   0.3172   0.3178   0.3184   0.3195   0.3197   0.3205   0.3207
  0.3221   0.3223   0.3235   0.3246   0.3254   0.3260   0.3264   0.3271
  0.3275   0.3286   0.3290   0.3296   0.3304   0.3315   0.3324   0.3337
  0.3349   0.3350   0.3355   0.3358   0.3364   0.3368   0.3376   0.3383
  0.3392   0.3397   0.3406   0.3407   0.3420   0.3426   0.3431   0.3435
  0.3446   0.3451   0.3459   0.3464   0.3471   0.3479   0.3486   0.3489
  0.3502   0.3513   0.3522   0.3527   0.3529   0.3539   0.3542   0.3547
  0.3553   0.3561   0.3566   0.3571   0.3577   0.3583   0.3587   0.3600
  0.3604   0.3609   0.3617   0.3626   0.3633   0.3641   0.3644   0.3645
  0.3660   0.3671   0.3674   0.3675   0.3691   0.3696   0.3701   0.3720
  0.3724   0.3728   0.3738   0.3743   0.3756   0.3759   0.3768   0.3785
  0.3798   0.3810   0.3813   0.3818   0.3831   0.3841   0.3845   0.3852
  0.3854   0.3867   0.3872   0.3877   0.3877   0.3881   0.3891   0.3899
  0.3902   0.3926   0.3930   0.3930   0.3937   0.3941   0.3948   0.3955
  0.3969   0.3972   0.3976   0.3989   0.3998   0.4010   0.4021   0.4027
  0.4031   0.4034   0.4047   0.4058   0.4064   0.4071   0.4079   0.4084
  0.4086   0.4096   0.4101   0.4107   0.4128   0.4131   0.4143   0.4144
  0.4154   0.4154   0.4169   0.4172   0.4177   0.4180   0.4189   0.4202
  0.4206   0.4217   0.4219   0.4233   0.4242   0.4254   0.4260   0.4269
  0.4276   0.4285   0.4303   0.4311   0.4312   0.4322   0.4328   0.4342
  0.4359   0.4363   0.4369   0.4381   0.4382   0.4394   0.4400   0.4411
  0.4424   0.4435   0.4443   0.4445   0.4464   0.4468   0.4478   0.4484
  0.4496   0.4512   0.4514   0.4546   0.4551   0.4557   0.4574   0.4591
  0.4597   0.4605   0.4617   0.4620   0.4640   0.4649   0.4663   0.4676
  0.4687   0.4700   0.4703   0.4720   0.4732   0.4750   0.4768   0.4775
  0.4784   0.4805   0.4814   0.4830   0.4855   0.4858   0.4875   0.4883
  0.4905   0.4919   0.4954   0.4969   0.4985   0.5013   0.5034   0.5043
  0.5074   0.5113   0.5150   0.5176   0.5212   0.5226   0.5236   0.5249
  0.5260   0.5288   0.5299   0.5316   0.5335   0.5345   0.5366   0.5394
  0.5408   0.5447   0.5485   0.5519   0.5541   0.5583   0.5610   0.5634
  0.5678   0.5698   0.5727   0.5783   0.5794   0.5821   0.5878   0.5899
  0.5943   0.5953   0.6013   0.6037   0.6060   0.6085   0.6100   0.6133
  0.6148   0.6209   0.6223   0.6310   0.6320   0.6368   0.6380   0.6389
  0.6423   0.6444   0.6452   0.6487   0.6496   0.6512   0.6542   0.6555
  0.6564   0.6573   0.6591   0.6614   0.6628   0.6640   0.6649   0.6658
  0.6686   0.6686   0.6706   0.6716   0.6723   0.6735   0.6757   0.6760
  0.6782   0.6786   0.6794   0.6810   0.6819   0.6828   0.6838   0.6850
  0.6860   0.6866   0.6878   0.6885   0.6892   0.6906   0.6917   0.6925
  0.6928   0.6953   0.6958   0.6969   0.6985   0.6994   0.6997   0.7003
  0.7009   0.7018   0.7022   0.7027   0.7039   0.7045   0.7048   0.7052
  0.7070   0.7080   0.7085   0.7098   0.7102   0.7115   0.7119   0.7144
  0.7151   0.7158   0.7165   0.7175   0.7177   0.7202   0.7209   0.7224
  0.7247   0.7261   0.7269   0.7275   0.7282   0.7304   0.7309   0.7322
  0.7327   0.7343   0.7370   0.7377   0.7393   0.7397   0.7406   0.7419
  0.7433   0.7442   0.7445   0.7453   0.7465   0.7475   0.7487   0.7496
  0.7510   0.7520   0.7530   0.7558   0.7563   0.7573   0.7579   0.7589
  0.7601   0.7613   0.7626   0.7630   0.7638   0.7643   0.7650   0.7661
  0.7671   0.7684   0.7691   0.7706   0.7727   0.7734   0.7745   0.7749
  0.7762   0.7774   0.7781   0.7789   0.7812   0.7827   0.7830   0.7841
  0.7845   0.7863   0.7868   0.7874   0.7896   0.7900   0.7905   0.7910
  0.7926   0.7946   0.7948   0.7973   0.7994   0.8014   0.8024   0.8036
  0.8046   0.8059   0.8071   0.8081   0.8107   0.8110   0.8117   0.8123
  0.8137   0.8141   0.8154   0.8164   0.8173   0.8184   0.8191   0.8203
  0.8206   0.8219   0.8234   0.8236   0.8252   0.8265   0.8276   0.8284
  0.8296   0.8310   0.8320   0.8324   0.8338   0.8348   0.8364   0.8370
  0.8377   0.8391   0.8396   0.8400   0.8431   0.8442   0.8442   0.8458
  0.8460   0.8477   0.8488   0.8494   0.8506   0.8520   0.8535   0.8541
  0.8552   0.8560   0.8566   0.8579   0.8593   0.8602   0.8612   0.8637
  0.8639   0.8645   0.8652   0.8658   0.8672   0.8694   0.8698   0.8713
  0.8719   0.8724   0.8740   0.8741   0.8748   0.8758   0.8768   0.8785
  0.8798   0.8805   0.8824   0.8834   0.8840   0.8861   0.8875   0.8881
  0.8887   0.8907   0.8920   0.8934   0.8952   0.8964   0.8974   0.8983
  0.8990   0.8996   0.9005   0.9011   0.9023   0.9032   0.9044   0.9046
  0.9078   0.9086   0.9102   0.9108   0.9114   0.9122   0.9125   0.9136
  0.9145   0.9158   0.9178   0.9188   0.9204   0.9207   0.9214   0.9227
  0.9246   0.9253   0.9270   0.9281   0.9286   0.9303   0.9307   0.9312
  0.9330   0.9341   0.9346   0.9365   0.9382   0.9398   0.9400   0.9413
  0.9425   0.9436   0.9449   0.9464   0.9489   0.9496   0.9516   0.9526
  0.9542   0.9565   0.9583   0.9594   0.9600   0.9607   0.9628   0.9646
  0.9650   0.9668   0.9683   0.9699   0.9710   0.9715   0.9740   0.9762
  0.9776   0.9783   0.9800   0.9817   0.9842   0.9853   0.9874   0.9912
  0.9916   0.9924   0.9940   0.9951   0.9959   0.9988   0.9991   1.0004
  1.0023   1.0033   1.0035   1.0059   1.0063   1.0083   1.0089   1.0104
  1.0107   1.0118   1.0126   1.0131   1.0154   1.0171   1.0184   1.0197
  1.0202   1.0215   1.0223   1.0231   1.0238   1.0253   1.0263   1.0283
  1.0288   1.0301   1.0318   1.0327   1.0337   1.0346   1.0357   1.0365
  1.0370   1.0397   1.0404   1.0417   1.0431   1.0437   1.0444   1.0452
  1.0463   1.0471   1.0473   1.0481   1.0496   1.0499   1.0501   1.0513
  1.0526   1.0527   1.0538   1.0543   1.0546   1.0558   1.0563   1.0568
  1.0576   1.0588   1.0589   1.0595   1.0601   1.0605   1.0608   1.0620
  1.0627   1.0635   1.0637   1.0645   1.0647   1.0659   1.0663   1.0672
  1.0684   1.0688   1.0693   1.0702   1.0708   1.0710   1.0724   1.0724
  1.0735   1.0739   1.0751   1.0757   1.0769   1.0781   1.0784   1.0801
  1.0806   1.0815   1.0820   1.0830   1.0836   1.0840   1.0858   1.0867
  1.0872   1.0883   1.0894   1.0894   1.0902   1.0915   1.0916   1.0926
  1.0941   1.0945   1.0959   1.0968   1.0975   1.0984   1.0986   1.0997
  1.1002   1.1012   1.1020   1.1026   1.1033   1.1043   1.1045   1.1052
  1.1055   1.1063   1.1070   1.1080   1.1087   1.1090   1.1095   1.1102
  1.1107   1.1115   1.1125   1.1134   1.1141   1.1151   1.1164   1.1167
  1.1173   1.1187   1.1194   1.1200   1.1207   1.1212   1.1215   1.1227
  1.1228   1.1242   1.1253   1.1264   1.1275   1.1280   1.1289   1.1303
  1.1308   1.1314   1.1317   1.1325   1.1333   1.1350   1.1354   1.1362
  1.1371   1.1376   1.1392   1.1406   1.1411   1.1428   1.1438   1.1440
  1.1453   1.1458   1.1473   1.1480   1.1491   1.1506   1.1521   1.1528
  1.1529   1.1537   1.1545   1.1562   1.1565   1.1573   1.1584   1.1592
  1.1605   1.1612   1.1622   1.1624   1.1630   1.1640   1.1655   1.1663
  1.1668   1.1680   1.1686   1.1700   1.1702   1.1716   1.1717   1.1731
  1.1739   1.1759   1.1763   1.1769   1.1774   1.1808   1.1812   1.1815
  1.1832   1.1840   1.1849   1.1865   1.1873   1.1888   1.1897   1.1898
  1.1915   1.1931   1.1942   1.1948   1.1968   1.1990   1.1999   1.2010
  1.2029   1.2034   1.2050   1.2060   1.2078   1.2082   1.2091   1.2102
  1.2108   1.2123   1.2134   1.2146   1.2153   1.2159   1.2185   1.2201
  1.2204   1.2213   1.2222   1.2236   1.2249   1.2268   1.2303   1.2308
  1.2318   1.2325   1.2359   1.2367   1.2375   1.2378   1.2393   1.2413
  1.2436   1.2453   1.2480   1.2493   1.2496   1.2513   1.2519   1.2546
  1.2553   1.2566   1.2581   1.2598   1.2609   1.2636   1.2651   1.2665
  1.2691   1.2698   1.2705   1.2722   1.2739   1.2747   1.2757   1.2764
  1.2771   1.2792   1.2805   1.2811   1.2825   1.2870   1.2875   1.2892
  1.2929   1.2937   1.2942   1.2979   1.2990   1.3018   1.3040   1.3053
  1.3074   1.3083   1.3098   1.3127   1.3139   1.3162   1.3182   1.3190
  1.3216   1.3238   1.3259   1.3282   1.3299   1.3329   1.3335   1.3341
  1.3363   1.3379   1.3405   1.3426   1.3441   1.3476   1.3478   1.3504
  1.3511   1.3524   1.3543   1.3554   1.3573   1.3576   1.3601   1.3607
  1.3619   1.3631   1.3654   1.3674   1.3682   1.3690   1.3719   1.3736
  1.3755   1.3780   1.3793   1.3824   1.3867   1.3868   1.3888   1.3905
  1.3931   1.3954   1.3965   1.3984   1.3995   1.4011   1.4046   1.4057
  1.4073   1.4079   1.4096   1.4125   1.4152   1.4171   1.4188   1.4221
  1.4242   1.4252   1.4271   1.4274   1.4299   1.4332   1.4335   1.4345
  1.4364   1.4386   1.4427   1.4431   1.4467   1.4481   1.4525   1.4528
  1.4553   1.4574   1.4579   1.4634   1.4668   1.4691   1.4706   1.4732
  1.4753   1.4772   1.4788   1.4808   1.4851   1.4882   1.4900   1.4936
  1.4966   1.4991   1.5007   1.5038   1.5050   1.5080   1.5118   1.5162
  1.5193   1.5204   1.5217   1.5271   1.5286   1.5325   1.5345   1.5372
  1.5383   1.5416   1.5426   1.5447   1.5501   1.5519   1.5536   1.5547
  1.5562   1.5568   1.5599   1.5618   1.5636   1.5650   1.5665   1.5677
  1.5716   1.5719   1.5739   1.5766   1.5776   1.5796   1.5824   1.5831
  1.5886   1.5920   1.5936   1.5956   1.5979   1.5996   1.6023   1.6024
  1.6065   1.6068   1.6075   1.6084   1.6087   1.6108   1.6116   1.6147
  1.6157   1.6166   1.6173   1.6183   1.6204   1.6208   1.6244   1.6266
  1.6311   1.6314   1.6317   1.6338   1.6340   1.6361   1.6372   1.6387
  1.6397   1.6424   1.6443   1.6445   1.6450   1.6462   1.6477   1.6499
  1.6514   1.6557   1.6566   1.6578   1.6580   1.6599   1.6619   1.6628
  1.6646   1.6671   1.6690   1.6703   1.6723   1.6740   1.6754   1.6777
  1.6784   1.6792   1.6807   1.6816   1.6825   1.6846   1.6862   1.6872
  1.6885   1.6889   1.6902   1.6910   1.6923   1.6939   1.6941   1.6945
  1.6979   1.6983   1.6996   1.7024   1.7046   1.7053   1.7064   1.7084
  1.7126   1.7138   1.7147   1.7181   1.7212   1.7251   1.7291   1.7329
  1.7342   1.7387   1.7431   1.7468   1.7480   1.7527   1.7548   1.7611
  1.7653   1.7718   1.7746   1.7764   1.7814   1.7834   1.7880   1.7936
  1.7950   1.7980   1.8002   1.8023   1.8075   1.8099   1.8134   1.8138
  1.8158   1.8189   1.8222   1.8229   1.8251   1.8270   1.8280   1.8323
  1.8375   1.8416   1.8448   1.8476   1.8489   1.8581   1.8593   1.8621
  1.8630   1.8647   1.8706   1.8727   1.8759   1.8785   1.8793   1.8815
  1.8855   1.8882   1.8891   1.8905   1.8931   1.8939   1.8947   1.8955
  1.8967   1.8984   1.8997   1.9020   1.9026   1.9048   1.9076   1.9089
  1.9101   1.9126   1.9138   1.9154   1.9173   1.9209   1.9236   1.9256
  1.9267   1.9281   1.9294   1.9305   1.9313   1.9332   1.9342   1.9352
  1.9359   1.9374   1.9433   1.9453   1.9466   1.9478   1.9487   1.9493
  1.9507   1.9526   1.9569   1.9572   1.9589   1.9604   1.9623   1.9660
  1.9699   1.9721   1.9732   1.9750   1.9757   1.9762   1.9768   1.9793
  1.9810   1.9831   1.9855   1.9879   1.9889   1.9910   1.9922   1.9941
  1.9950   1.9959   1.9974   1.9977   1.9986   2.0009   2.0021   2.0043
  2.0059   2.0065   2.0082   2.0095   2.0105   2.0121   2.0133   2.0138
  2.0158   2.0170   2.0195   2.0215   2.0242   2.0253   2.0275   2.0326
  2.0330   2.0364   2.0372   2.0380   2.0395   2.0405   2.0435   2.0475
  2.0494   2.0517   2.0521   2.0533   2.0548   2.0573   2.0593   2.0597
  2.0642   2.0648   2.0661   2.0674   2.0692   2.0699   2.0709   2.0721
  2.0752   2.0752   2.0761   2.0789   2.0810   2.0835   2.0846   2.0857
  2.0862   2.0880   2.0896   2.0921   2.0946   2.0971   2.0986   2.1007
  2.1019   2.1042   2.1062   2.1075   2.1082   2.1099   2.1104   2.1118
  2.1156   2.1173   2.1183   2.1206   2.1245   2.1255   2.1265   2.1288
  2.1304   2.1308   2.1327   2.1335   2.1340   2.1349   2.1363   2.1368
  2.1398   2.1414   2.1416   2.1445   2.1450   2.1459   2.1473   2.1483
  2.1497   2.1504   2.1510   2.1525   2.1534   2.1544   2.1554   2.1563
  2.1575   2.1578   2.1596   2.1606   2.1609   2.1624   2.1650   2.1671
  2.1686   2.1708   2.1711   2.1720   2.1736   2.1742   2.1756   2.1760
  2.1789   2.1794   2.1811   2.1823   2.1830   2.1853   2.1871   2.1893
  2.1895   2.1910   2.1950   2.1958   2.1978   2.1986   2.1989   2.2005
  2.2012   2.2029   2.2031   2.2041   2.2046   2.2052   2.2066   2.2085
  2.2092   2.2107   2.2115   2.2125   2.2139   2.2144   2.2160   2.2171
  2.2175   2.2185   2.2204   2.2221   2.2246   2.2258   2.2288   2.2312
  2.2340   2.2361   2.2366   2.2405   2.2409   2.2431   2.2452   2.2477
  2.2487   2.2513   2.2535   2.2547   2.2559   2.2567   2.2600   2.2620
  2.2629   2.2638   2.2672   2.2724   2.2740   2.2772   2.2787   2.2805
  2.2817   2.2844   2.2883   2.2927   2.2934   2.2938   2.2971   2.2986
  2.2999   2.3012   2.3019   2.3032   2.3050   2.3085   2.3104   2.3114
  2.3128   2.3156   2.3168   2.3185   2.3194   2.3223   2.3243   2.3258
  2.3276   2.3311   2.3322   2.3383   2.3401   2.3423   2.3425   2.3447
  2.3459   2.3468   2.3474   2.3480   2.3497   2.3511   2.3528   2.3542
  2.3564   2.3588   2.3593   2.3618   2.3639   2.3661   2.3672   2.3677
  2.3699   2.3732   2.3764   2.3794   2.3803   2.3805   2.3819   2.3843
  2.3865   2.3874   2.3922   2.3987   2.3989   2.3997   2.4006   2.4045
  2.4113   2.4147   2.4173   2.4178   2.4187   2.4230   2.4240   2.4257
  2.4264   2.4291   2.4296   2.4346   2.4356   2.4367   2.4371   2.4378
  2.4393   2.4404   2.4409   2.4433   2.4441   2.4452   2.4467   2.4472
  2.4483   2.4487   2.4492   2.4504   2.4515   2.4533   2.4542   2.4554
  2.4559   2.4574   2.4592   2.4598   2.4608   2.4627   2.4628   2.4633
  2.4641   2.4663   2.4675   2.4680   2.4685   2.4691   2.4703   2.4721
  2.4733   2.4737   2.4756   2.4759   2.4766   2.4771   2.4788   2.4795
  2.4798   2.4825   2.4841   2.4854   2.4858   2.4868   2.4881   2.4905
  2.4911   2.4915   2.4933   2.4949   2.4981   2.5003   2.5004   2.5022
  2.5030   2.5033   2.5066   2.5076   2.5087   2.5096   2.5100   2.5129
  2.5146   2.5164   2.5177   2.5193   2.5194   2.5198   2.5220   2.5230
  2.5238   2.5251   2.5252   2.5261   2.5277   2.5296   2.5304   2.5308
  2.5341   2.5343   2.5379   2.5411   2.5427   2.5436   2.5458   2.5485
  2.5511   2.5518   2.5535   2.5538   2.5562   2.5574   2.5580   2.5645
  2.5647   2.5658   2.5664   2.5677   2.5694   2.5748   2.5774   2.5782
  2.5793   2.5831   2.5859   2.5864   2.5897   2.5919   2.6010   2.6035
  2.6054   2.6062   2.6076   2.6095   2.6118   2.6152   2.6169   2.6213
  2.6231   2.6248   2.6303   2.6315   2.6355   2.6360   2.6403   2.6463
  2.6466   2.6538   2.6585   2.6658   2.6686   2.6699   2.6732   2.6753
  2.6753   2.6768   2.6774   2.6825   2.6850   2.6908   2.6938   2.6964
  2.6966   2.7000   2.7009   2.7012   2.7035   2.7049   2.7065   2.7080
  2.7093   2.7097   2.7111   2.7124   2.7146   2.7166   2.7206   2.7218
  2.7223   2.7267   2.7282   2.7309   2.7323   2.7409   2.7430   2.7458
  2.7485   2.7523   2.7558   2.7563   2.7601   2.7621   2.7627   2.7655
  2.7676   2.7726   2.7750   2.7795   2.7825   2.7839   2.7848   2.7902
  2.7917   2.7956   2.8001   2.8055   2.8080   2.8127   2.8164   2.8189
  2.8203   2.8211   2.8230   2.8262   2.8299   2.8312   2.8315   2.8354
  2.8365   2.8370   2.8395   2.8425   2.8443   2.8626   2.8634   2.8678
  2.8703   2.8706   2.8739   2.8753   2.8761   2.8774   2.8782   2.8797
  2.8809   2.8820   2.8842   2.8866   2.8887   2.8923   2.8928   2.8949
  2.8974   2.9002   2.9014   2.9027   2.9067   2.9102   2.9124   2.9131
  2.9138   2.9159   2.9190   2.9199   2.9204   2.9231   2.9286   2.9324
  2.9339   2.9345   2.9361   2.9397   2.9409   2.9488   2.9516   2.9520
  2.9553   2.9575   2.9591   2.9596   2.9631   2.9648   2.9653   2.9696
  2.9781   2.9861   2.9903   2.9945   3.0043   3.0074   3.0089   3.0155
  3.0333   3.0388   3.0487   3.0521   3.0623   3.0807   3.0877   3.0932
  3.0946   3.0990   3.1013   3.1059   3.1084   3.1146   3.1265   3.1326
  3.1389   3.1445   3.1606   3.1667   3.1836   3.1906   3.2032   3.2061
  3.2178   3.2183   3.2202   3.2217   3.2263   3.2527   3.2664   3.2807
  3.3013   3.3149   3.3356   3.3359   3.3392   3.3424   3.3471   3.3626
  3.3747   3.3893   3.3989   3.4373   3.4720   3.6402   3.6443   3.6452
  3.6721   4.0008   4.0541   4.1204   4.1334   4.1494   4.1515   4.1524
  4.1680   4.1788   4.2043   4.2177   4.2401   4.2503   4.2680   4.2846
  4.2898   4.3109   4.3238   4.3311   4.3380   4.3394   4.3403   4.3420
  4.3427   4.3545   4.3589   4.3614   4.3638   4.3646   4.3697   4.3744
  4.3774   4.3825   4.3874   4.3920   4.3956   4.3974   4.4046   4.4057
  4.4068   4.4093   4.4109   4.4138   4.4179   4.4214   4.4229   4.4279
  4.4312   4.4372   4.4431   4.4463   4.4479   4.4527   4.4581   4.4619
  4.4640   4.4648   4.4708   4.4795   4.4850   4.4882   4.4906   4.4915
  4.4933   4.4961   4.4991   4.5048   4.5052   4.5083   4.5115   4.5176
  4.5181   4.5215   4.5231   4.5257   4.5304   4.5380   4.5435   4.5464
  4.5511   4.5537   4.5555   4.5632   4.5700   4.5718   4.5787   4.5822
  4.5849   4.5876   4.5940   4.5986   4.6061   4.6137   4.6146   4.6179
  4.6229   4.6306   4.6310   4.6415   4.6423   4.6455   4.6500   4.6515
  4.6584   4.6589   4.6642   4.6796   4.6854   4.6873   4.6894   4.6915
  4.6997   4.7086   4.7210   4.7323   4.7336   4.7447   4.7494   4.7557
  4.7708   4.7759   4.7808   4.7855   4.7977   4.8047   4.8071   4.8114
  4.8123   4.8216   4.8308   4.8359   4.8475   4.8573   4.8718   4.8769
  4.9345   4.9376   4.9395   4.9715   4.9777   4.9910   5.0266   5.0292
  5.0571
 --------------------------------------------------------------
 
          Ground-State Mulliken Net Atomic Charges

     Atom                 Charge (a.u.)
  ----------------------------------------
      1 C                     0.471666
      2 O                    -0.543328
      3 C                    -0.295724
      4 C                     0.175591
      5 C                    -0.209270
      6 C                    -0.322235
      7 C                    -0.394521
      8 C                    -0.390538
      9 C                    -0.303186
     10 C                    -0.136446
     11 C                    -0.124865
     12 C                    -0.133962
     13 C                     0.004946
     14 C                    -0.299148
     15 C                    -0.315216
     16 C                    -0.306017
     17 C                    -0.319363
     18 C                     0.119430
     19 C                    -0.551834
     20 O                    -0.648322
     21 H                     0.183807
     22 H                     0.209825
     23 H                     0.154889
     24 H                     0.162398
     25 H                     0.201509
     26 H                     0.194606
     27 H                     0.161028
     28 H                     0.239508
     29 H                     0.143601
     30 H                     0.173648
     31 H                     0.146472
     32 H                     0.134272
     33 H                     0.137219
     34 H                     0.160663
     35 H                     0.169705
     36 H                     0.123653
     37 H                     0.157208
     38 H                     0.172803
     39 H                     0.145582
     40 H                     0.146146
     41 H                     0.138354
     42 H                     0.155382
     43 H                     0.146756
     44 H                     0.183752
     45 H                     0.180818
     46 H                     0.404107
     47 H                     0.155917
     48 C                    -0.377186
     49 H                     0.184086
     50 C                    -0.365567
     51 H                     0.159737
     52 H                     0.150972
     53 C                     0.112870
     54 C                    -0.196041
     55 H                     0.136678
     56 C                    -0.220765
     57 H                     0.145203
     58 C                     0.324754
     59 O                    -0.674620
     60 H                     0.439535
     61 C                    -0.207516
     62 H                     0.212872
     63 C                    -0.206960
     64 H                     0.150786
     65 C                     0.596064
     66 O                    -0.504195
     67 N                    -0.629083
     68 H                     0.333228
     69 C                    -0.127905
[...]
    2   0.9457191   1.2827074  -0.2987689   0.4651787   1.1701362
    3  -0.1600371   0.4474151  -0.9797304  -1.7693601  -0.0942555
 EField
            1           2           3           4           5           6
    1  -0.0008342   0.0231973  -0.0064398  -0.0093957  -0.0101507  -0.0050654
    2   0.0138359   0.0251276   0.0128371   0.0077293   0.0040733   0.0042477
    3  -0.0128458  -0.0350290  -0.0038915  -0.0032950  -0.0022597  -0.0023796
            7           8           9          10          11          12
    1  -0.0038414  -0.0129207  -0.0072120  -0.0052819  -0.0053245  -0.0027747
    2   0.0042974   0.0027838  -0.0003344  -0.0015554   0.0012195  -0.0022592
    3  -0.0070065  -0.0035951   0.0010291   0.0017191   0.0005452   0.0012917
           13          14          15          16          17          18
    1  -0.0012317  -0.0001390  -0.0015868  -0.0031289  -0.0025393  -0.0019234
    2  -0.0031937   0.0002514   0.0028153  -0.0033091  -0.0044603  -0.0054433
    3   0.0003143  -0.0008268   0.0017336   0.0038458   0.0021265   0.0020391
           19          20          21          22          23          24
    1   0.0000881  -0.0058437  -0.0048092  -0.0173820  -0.0040285  -0.0034077
    2  -0.0039908  -0.0050010   0.0117695   0.0016204   0.0039931   0.0016790
    3  -0.0000467   0.0018033   0.0018258  -0.0051177  -0.0046459   0.0020972
           25          26          27          28          29          30
    1  -0.0015033  -0.0033432  -0.0069367  -0.0221813  -0.0070487  -0.0047366
    2   0.0036524   0.0027586   0.0041118   0.0007669   0.0012158  -0.0015147
    3  -0.0031733  -0.0077287  -0.0072030  -0.0007921  -0.0000734   0.0018225
           31          32          33          34          35          36
    1  -0.0050848  -0.0040932  -0.0026157   0.0015930  -0.0030588   0.0013244
    2  -0.0039125   0.0025380  -0.0022657   0.0023612  -0.0000068   0.0076433
    3   0.0028207  -0.0013844  -0.0006796  -0.0010762  -0.0043123   0.0092375
           37          38          39          40          41          42
    1  -0.0008478  -0.0057986  -0.0006364  -0.0035138  -0.0015585  -0.0000255
    2   0.0033347  -0.0024026  -0.0041191  -0.0041203  -0.0042871  -0.0087020
    3   0.0013043   0.0046715   0.0043448   0.0019757   0.0020607   0.0017586
           43          44          45          46          47          48
    1   0.0000227   0.0043098  -0.0016002  -0.0027287   0.0197180  -0.0025557
    2  -0.0048115  -0.0061415  -0.0027608  -0.0061573  -0.0313384   0.0004445
    3   0.0018257  -0.0035028   0.0019085   0.0004348   0.0082568  -0.0035880
           49          50          51          52          53          54
    1  -0.0102621  -0.0020943  -0.0194194   0.0098528  -0.0026862   0.0029196
    2  -0.0065974  -0.0000615  -0.0299425   0.0022198   0.0031976   0.0062437
    3  -0.0337696  -0.0006631   0.0056681   0.0353521  -0.0030676   0.0031038
           55          56          57          58          59          60
    1  -0.0094484   0.0052904  -0.0323443   0.0148665   0.0130413  -0.0453813
    2  -0.0380686  -0.0015590  -0.0066104  -0.0259100   0.1027652   0.0003717
    3  -0.0173998   0.0018653  -0.0274550   0.0009939   0.0339563  -0.0345333
           61          62          63          64          65          66
    1   0.0004300   0.0098802  -0.0052800   0.0370744  -0.0063586   0.0117170
    2  -0.0100786   0.0178252  -0.0063835   0.0018591  -0.0066670   0.0379993
    3  -0.0058111   0.0026705  -0.0062160   0.0235022  -0.0099488  -0.1060658
           67          68          69          70          71          72
    1  -0.0046468  -0.0050418   0.0138093  -0.0073709  -0.0020440   0.0111736
    2   0.0074985  -0.0219201   0.0162617   0.0182768   0.0025552  -0.0201409
    3  -0.0054896   0.0405077  -0.0038978  -0.0308170   0.0001473   0.0281024
           73          74          75          76          77          78
    1  -0.0013598  -0.0046566   0.0066801   0.0344473   0.0051318  -0.0209111
    2  -0.0008015   0.0264076   0.0242851  -0.0169696   0.0009017  -0.0248711
    3   0.0004865  -0.0307898   0.0297932  -0.0075426   0.0003822   0.0152723
           79          80          81          82          83          84
    1   0.0088344   0.0040296  -0.0123570  -0.0168016   0.0257579   0.0292894
    2   0.0206508  -0.0008091  -0.0210716   0.0212179   0.0299990  -0.0146387
    3   0.0314243  -0.0027315  -0.0350464   0.0088150  -0.0180754  -0.0127498
           85          86          87          88          89          90
    1   0.0025948  -0.0026788  -0.0221493  -0.0016553   0.0204749  -0.0009469
    2  -0.0382030   0.0009951   0.0083199   0.0005707  -0.0090596  -0.0040030
    3   0.0024369   0.0040959  -0.0319282  -0.0013160   0.0268950  -0.0007120
           91          92          93          94          95          96
    1  -0.0265312  -0.0156885   0.0328881   0.0030381   0.0031269  -0.0199517
    2   0.0143735   0.0187925   0.0192971  -0.0011348  -0.0380034   0.0149266
    3  -0.0287603   0.0322920  -0.0077164  -0.0011324   0.0046635   0.0279684
           97          98          99         100         101         102
    1  -0.0263905   0.0351919  -0.0328200   0.0059995   0.0209743   0.0051025
    2   0.0082257   0.0143359  -0.0079041  -0.0017102  -0.0042250   0.0038275
    3  -0.0303457  -0.0076933   0.0072160  -0.0014257   0.0287795  -0.0026407
          103         104         105         106         107         108
    1  -0.0053107  -0.0136061   0.0009256   0.0512774   0.0541170  -0.0003838
    2  -0.0329434   0.0088015   0.0037587   0.0688968  -0.0494849  -0.0091629
    3   0.0086366  -0.0309740   0.0028364   0.0416591  -0.0501742  -0.0059940
          109         110         111         112         113         114
    1  -0.0174909   0.0022323   0.0015856  -0.0221333   0.0326664   0.0015690
    2   0.0196788  -0.0034717   0.0145869   0.0014755   0.0030903  -0.0015361
    3  -0.1095256  -0.0058426  -0.0083287  -0.0271745  -0.0180577  -0.0005185
          115         116         117         118         119         120
    1  -0.0347007   0.0165015   0.0032220  -0.0076916   0.0382102   0.0052230
    2   0.0052136   0.0337522   0.0014659   0.0078677   0.0018853  -0.0018144
    3   0.0069342  -0.0034172  -0.0019135   0.0345788  -0.0025013   0.0159157
          121         122         123         124         125         126
    1   0.0276913  -0.0291651  -0.0377715   0.0007958   0.0125325   0.0006027
    2  -0.0235735  -0.0109156   0.0000796   0.0012977   0.0304570   0.0015518
    3   0.0057512   0.0151168   0.0039115   0.0036389   0.0261408   0.0010843
          127         128         129         130         131         132
    1  -0.0067858   0.0370233  -0.0020376   0.0039408  -0.0119397   0.0029296
    2  -0.0247325   0.0017599   0.0010294   0.0076457  -0.0224338   0.0073709
    3  -0.0235971  -0.0018444   0.0049541   0.0058918  -0.0318655  -0.0018221
          133         134         135         136         137         138
    1  -0.0261230   0.0100636  -0.0424296  -0.0066341   0.0010996   0.0162450
    2  -0.0299418   0.0084266  -0.0879089   0.0517599   0.0007239   0.0272077
    3   0.0071180  -0.0286722   0.0383054   0.0247230  -0.0050888   0.0344848
          139         140         141         142         143         144
    1  -0.0027988   0.0255435   0.0077159  -0.0235779  -0.0019163   0.0026348
    2  -0.0019251   0.0394699   0.0121853   0.0032378  -0.0000661   0.0355655
    3   0.0005839  -0.0051047  -0.0348733  -0.0310654   0.0067749   0.0164792
          145         146         147         148         149         150
    1  -0.0189674  -0.0049764   0.0811295   0.0059164  -0.0388917   0.0166811
    2  -0.0214231   0.0088916   0.0455309   0.0116341  -0.0151826  -0.0077745
    3   0.0302124   0.0100024   0.0642176  -0.0027926  -0.0174804   0.0016333
          151         152         153         154         155         156
    1   0.0242768  -0.0020610  -0.0205045   0.0326720  -0.0005456  -0.0346539
    2   0.0198404   0.0014504  -0.0206023  -0.0168394   0.0004708   0.0135557
    3   0.0195469   0.0062254  -0.0224770  -0.0046451   0.0017784   0.0052620
          157         158         159         160         161         162
    1  -0.0005409   0.0350348  -0.0167146  -0.0195603  -0.0031597  -0.0013395
    2   0.0045901  -0.0156839  -0.0091653  -0.0203456   0.0026681   0.0415531
    3   0.0006408   0.0027080   0.0347335  -0.0244132  -0.0012216  -0.0004989
          163         164         165         166         167         168
    1  -0.0091060   0.0384543   0.0103606   0.0073928  -0.0055702   0.0094580
    2  -0.0085356  -0.0091840   0.0057308   0.0121784  -0.0015791   0.0286876
    3   0.0389812  -0.0005298  -0.0321062  -0.0350985   0.0014596   0.0249016
          169         170         171         172         173         174
    1  -0.0013296  -0.0079153  -0.0009576   0.0047665  -0.0387090   0.0212333
    2   0.0009746  -0.0272465   0.0022684   0.0284598  -0.0117397  -0.0297622
    3   0.0012057  -0.0212301  -0.0022938   0.0275472   0.0077326   0.0118815
          175         176         177         178         179         180
    1  -0.0017908   0.0037810  -0.0415826   0.0005806   0.0249052   0.0268748
    2  -0.0049110   0.0156458  -0.0073737   0.0282008  -0.0279225   0.0194718
    3   0.0019138  -0.0351048   0.0005181   0.0252426   0.0075561  -0.0180234
          181         182         183         184         185         186
    1  -0.0007074  -0.0057132  -0.0006122   0.0038213  -0.0286800  -0.0180255
    2   0.0004226   0.0210201   0.0009022  -0.0191236  -0.0182828   0.0333335
    3  -0.0007594   0.0319910  -0.0005323  -0.0323090   0.0166117  -0.0131024
          187         188         189         190         191         192
    1   0.0164799  -0.0332238   0.0004312   0.0237062   0.0015589   0.0337528
    2  -0.0320856  -0.0168222  -0.0001910  -0.0106496  -0.0007190   0.0147138
    3   0.0113016   0.0092818  -0.0008940   0.0285467   0.0014318  -0.0058833
          193         194         195         196         197         198
    1   0.0077755  -0.0029847  -0.0332372  -0.0065490   0.0379738  -0.0086411
    2  -0.0359142   0.0011734  -0.0159637   0.0369654  -0.0190708   0.0041106
    3  -0.0036968   0.0114760   0.0055744   0.0040107  -0.0100239   0.0006284
          199         200         201         202         203         204
    1  -0.0015887   0.0082064  -0.0348529  -0.0060233  -0.0297784  -0.0003623
    2   0.0385947  -0.0068909  -0.0204995   0.0378807   0.0191005   0.0003652
    3   0.0095366  -0.0346891   0.0129450   0.0072219   0.0158825  -0.0009163
          205         206         207         208         209         210
    1   0.0242262  -0.0000246   0.0295349  -0.0140758  -0.0020126  -0.0073500
    2  -0.0074969   0.0001718  -0.0180613  -0.0278242   0.0027587   0.0016901
    3   0.0286340   0.0006122  -0.0132854   0.0192875  -0.0030950   0.0017482
          211         212         213         214         215         216
    1   0.0416783  -0.0019882   0.0147114   0.0076224  -0.0247786   0.0067546
    2  -0.0025386   0.0005680   0.0115544   0.0012664   0.0179288   0.0043869
    3  -0.0094362   0.0061207  -0.0401258   0.0038486  -0.0340266   0.0012990
          217         218         219         220         221         222
    1  -0.0403971   0.0043216  -0.0140274   0.0163330   0.0133383  -0.0056700
    2   0.0077227   0.0036496  -0.0101618   0.0283061   0.0321711  -0.0013127
    3   0.0127236  -0.0061343   0.0391750  -0.0205550   0.0166220   0.0005230
          223         224         225         226         227         228
    1   0.0258803  -0.0015117  -0.0119676  -0.0017001   0.0084026  -0.0346766
    2  -0.0272335   0.0011505  -0.0305183  -0.0000639   0.0330918  -0.0113903
    3   0.0069779  -0.0000269  -0.0167108  -0.0043033   0.0197029   0.0134531
          229         230         231         232         233         234
    1   0.0220525   0.0003744  -0.0061586  -0.0409311   0.0050106   0.0015058
    2  -0.0279838  -0.0028904   0.0071767  -0.0067325   0.0359676   0.0056153
    3   0.0126946  -0.0011102  -0.0407917   0.0088353   0.0159321  -0.0387302
          235         236         237         238         239         240
    1   0.0114251  -0.0006722   0.0282692   0.0030944  -0.0085791   0.0037219
    2  -0.0270990  -0.0024047   0.0033385  -0.0015219   0.0225664  -0.0319117
    3   0.0251433   0.0001032  -0.0256913  -0.0001264  -0.0276177  -0.0199542
          241         242         243         244         245         246
    1   0.0003056  -0.0061590  -0.0233838  -0.0034368   0.0010031  -0.0324284
    2   0.0062204   0.0342797  -0.0087016  -0.0459906   0.0056261   0.0184459
    3  -0.0090343   0.0189132  -0.0104979  -0.0034279   0.0092277   0.0128093
          247         248         249         250         251         252
    1   0.0077152   0.0304090   0.0004706   0.0231179  -0.0031831   0.0013985
    2  -0.0221959   0.0231528   0.0337555   0.0233981  -0.0004102   0.0103733
    3   0.0314843  -0.0050918   0.0183039  -0.0181147  -0.0012818   0.0366818
          253         254         255         256         257         258
    1  -0.0037714  -0.0180888  -0.0015397  -0.0017075   0.0152228  -0.0007919
    2  -0.0038061   0.0336837  -0.0056382   0.0005701  -0.0330588  -0.0023199
    3   0.0013383   0.0005244  -0.0369077  -0.0025592  -0.0034297  -0.0049358
          259         260         261         262         263         264
    1  -0.0208301  -0.0220508   0.0309751  -0.0004075   0.0010514  -0.0297146
    2   0.0328220  -0.0269879   0.0025343  -0.0001022  -0.0121014  -0.0271700
    3   0.0042477   0.0160263   0.0222890   0.0004824  -0.0407559   0.0113986
          265         266         267         268         269         270
    1  -0.0250500   0.0166604   0.0310822  -0.0027060  -0.0257597  -0.0007868
    2   0.0309386  -0.0348268   0.0181479  -0.0027691   0.0296994   0.0012851
    3  -0.0031616  -0.0019294  -0.0151496  -0.0042571   0.0052802  -0.0005666
          271         272         273         274         275         276
    1   0.0246166   0.0016646  -0.0307370  -0.0163655   0.0060164  -0.0016819
    2  -0.0235276   0.0000728   0.0269920  -0.0278655  -0.0138352   0.0005109
    3  -0.0059823  -0.0056649   0.0037831  -0.0204028   0.0348031   0.0019189
          277         278         279         280         281         282
    1   0.0293212  -0.0168627  -0.0307778   0.0097644   0.0352634   0.0006618
    2   0.0188710  -0.0231894   0.0297122  -0.0124466  -0.0123715   0.0036016
    3  -0.0206518  -0.0277299  -0.0028010   0.0342266   0.0105385   0.0021545
          283         284         285         286         287         288
    1   0.0062155  -0.0043975  -0.0045554  -0.0367705  -0.0046593   0.0700708
    2   0.0395967   0.0000485  -0.0388063   0.0128593   0.0104880   0.0889970
    3   0.0016033   0.0069996   0.0020739  -0.0065912   0.0293847   0.0170806
          289         290         291         292         293         294
    1  -0.0792191  -0.0121115  -0.0224229  -0.0144879   0.0009198  -0.0219278
    2  -0.0772589   0.0030733  -0.0086097   0.0356386  -0.0001231  -0.0138460
    3  -0.0061454   0.0093684   0.0308351   0.0060765   0.0001187  -0.0278253
          295         296         297         298         299         300
    1  -0.0005752   0.0191017   0.0125806  -0.0115919  -0.0198456  -0.0112618
    2  -0.0020760   0.0111368  -0.0342418  -0.0004783  -0.0130179   0.0339159
    3   0.0012485   0.0304715  -0.0027160   0.0037072  -0.0295517   0.0031648
          301         302         303         304         305         306
    1   0.0303370  -0.0013537  -0.0089385   0.0329547  -0.0227689  -0.0121212
    2  -0.0130144   0.0038913   0.0344704  -0.0080030  -0.0239982  -0.0192427
    3   0.0279790  -0.0124549  -0.0056572  -0.0179436  -0.0243247   0.0308676
          307         308         309         310         311         312
    1  -0.0359282   0.0004819   0.0114768  -0.0016349   0.0016338  -0.0156352
    2  -0.0119529   0.0020304  -0.0208889   0.0015591  -0.0345859   0.0173152
    3  -0.0064322  -0.0015446   0.0308987  -0.0005258  -0.0126557  -0.0294791
          313         314         315         316         317         318
    1  -0.0032225   0.0151409   0.0245981  -0.0125645   0.0016421  -0.0228195
    2  -0.0109223  -0.0152033  -0.0092088   0.0249079   0.0061912  -0.0028939
    3  -0.0023951   0.0305446  -0.0249472   0.0349107  -0.0150732  -0.0325197
          319         320         321         322         323         324
    1   0.0043455   0.0297512  -0.0052105  -0.0347389   0.0002928   0.0106905
    2   0.0435300  -0.0100101   0.0372487  -0.0114273   0.0008942  -0.0192799
    3  -0.0087651  -0.0117049   0.0112332  -0.0085412  -0.0024776   0.0295232
          325         326         327         328         329         330
    1   0.0011308  -0.0066155   0.0390369   0.0030983  -0.0040226  -0.0353981
    2   0.0031926   0.0250811   0.0099586  -0.0313057   0.0367933  -0.0102022
    3  -0.0042886  -0.0362956   0.0032682  -0.0151052   0.0120955   0.0056352
          331         332         333         334         335         336
    1  -0.0002437   0.0181231   0.0005692   0.0354426   0.0052360  -0.0024367
    2  -0.0016244   0.0018696   0.0004424   0.0069692  -0.0329086  -0.0043224
    3  -0.0026522   0.0328018  -0.0001042  -0.0059304   0.0119232  -0.0047548
          337         338         339         340         341         342
    1   0.0126513  -0.0060604  -0.0062245  -0.0220104   0.0091326   0.0050861
    2   0.0062638  -0.0413609  -0.0085105  -0.0354975   0.0157393   0.0030949
    3   0.0122376   0.0146999  -0.0095663  -0.0357104  -0.0040492   0.0005943
          343         344         345         346         347         348
    1  -0.0190488   0.0019889  -0.0055647  -0.0016510   0.0151676  -0.0030423
    2  -0.0195559  -0.0077590   0.0201358  -0.0095008   0.0359031  -0.0019680
    3  -0.0339117   0.0055502  -0.0345518   0.0012109  -0.0029316  -0.0105325
          349         350         351         352         353         354
    1   0.0224349   0.0007632  -0.0035511   0.0363695  -0.0018818  -0.0064511
    2   0.0164665  -0.0020458   0.0359572  -0.0088233  -0.0018506  -0.0029752
    3   0.0307209  -0.0025313  -0.0136128   0.0033229   0.0009315  -0.0376291
          355         356         357         358         359         360
    1  -0.0038745   0.0036328   0.0107816   0.0011669  -0.0024467   0.0009326
    2   0.0003952  -0.0375649  -0.0009531  -0.0018256   0.0351832  -0.0003620
    3  -0.0008251  -0.0079878   0.0348039  -0.0001758   0.0047624   0.0029990
          361         362         363         364         365         366
    1  -0.0007368  -0.0370968   0.0160950   0.0020719   0.0113107  -0.0380416
    2  -0.0388894   0.0089654   0.0155766   0.0012177   0.0081388   0.0074102
    3  -0.0092769  -0.0041384  -0.0305149  -0.0034125   0.0347367  -0.0005656
          367         368         369         370         371         372
    1   0.0011236  -0.0023335   0.0776704  -0.0268711  -0.0086409  -0.0471882
    2  -0.0395583   0.0368360   0.0500791  -0.0426112   0.0180434  -0.0110690
    3  -0.0020875   0.0079961  -0.0428600  -0.0071461   0.0501401  -0.0944337
          373         374         375         376         377
    1   0.0515130  -0.0259366   0.0624719  -0.0511267   0.0155647
    2   0.0060359   0.0086581  -0.0732237   0.0125103   0.0387630
    3   0.0180360   0.0544448  -0.0114185  -0.0167951   0.0253143
  --- DONE ESP SUMMARY ---
 Total job time:  14.58s(wall), 150.27s(cpu) 
 Fri Aug  9 14:58:26 2024

        *************************************************************
        *                                                           *
        *  Thank you very much for using Q-Chem.  Have a nice day.  *
        *                                                           *
        *************************************************************


