
Running Job 1 of 2 19nt_xstal_distance_cutoff3_optimized_spade_wb97x-v_631gd.in
qchem 19nt_xstal_distance_cutoff3_optimized_spade_wb97x-v_631gd.in_3956219.0 ./qchem3956219/ 1
srun -n 1 /cm/shared/apps/spack/0.17.3/cpu/b/opt/spack/linux-rocky8-zen2/gcc-10.2.0/qchem-6.0-rytxnwjazd34ekd2gqyi5ufsaimxsd3r/exe/qcprog.exe 19nt_xstal_distance_cutoff3_optimized_spade_wb97x-v_631gd.in_3956219.0 ./qchem3956219/

                  Welcome to Q-Chem
     A Quantum Leap Into The Future Of Chemistry


 Q-Chem 6.0, Q-Chem, Inc., Pleasanton, CA (2022)

 License issued to: University of California, San Diego (site)

 E. Epifanovsky,  A. T. B. Gilbert,  Xintian Feng,  Joonho Lee,  Yuezhi Mao,  
 N. Mardirossian,  P. Pokhilko,  A. White,  M. Wormit,  M. P. Coons,  
 A. L. Dempwolff,  Zhengting Gan,  D. Hait,  P. R. Horn,  L. D. Jacobson,  
 I. Kaliman,  J. Kussmann,  A. W. Lange,  Ka Un Lao,  D. S. Levine,  Jie Liu,  
 S. C. McKenzie,  A. F. Morrison,  K. Nanda,  F. Plasser,  D. R. Rehn,  
 M. L. Vidal,  Zhi-Qiang You,  Ying Zhu,  B. Alam,  B. Albrecht,  
 A. Aldossary,  E. Alguire,  J. H. Andersen,  V. Athavale,  D. Barton,  
 K. Begam,  A. Behn,  N. Bellonzi,  Y. A. Bernard,  E. J. Berquist,  
 H. Burton,  A. Carreras,  K. Carter-Fenk,  Romit Chakraborty,  
 Chandrima Chakravarty,  Junhan Chen,  A. D. Chien,  K. D. Closser,  
 V. Cofer-Shabica,  L. Cunha,  S. Dasgupta,  Jia Deng,  M. de Wergifosse,  
 M. Diedenhofen,  Hainam Do,  S. Ehlert,  Po-Tung Fang,  S. Fatehi,  
 Qingguo Feng,  T. Friedhoff,  B. Ganoe,  J. Gayvert,  Qinghui Ge,  
 G. Gidofalvi,  M. Goldey,  J. Gomes,  C. Gonzalez-Espinoza,  S. Gulania,  
 A. Gunina,  J. A. Gyamfi,  M. W. D. Hanson-Heine,  P. H. P. Harbach,  
 A. W. Hauser,  M. F. Herbst,  M. Hernandez Vera,  M. Hodecker,  
 Z. C. Holden,  S. Houck,  Xunkun Huang,  Kerwin Hui,  B. C. Huynh,  
 K. Ikeda,  M. Ivanov,  Hyunjun Ji,  Zuxin Jin,  Hanjie Jiang,  B. Kaduk,  
 S. Kaehler,  R. Kang,  K. Khistyaev,  Jaehoon Kim,  Yongbin Kim,  
 P. Klunzinger,  Z. Koczor-Benda,  Joong Hoon Koh,  D. Kosenkov,  
 Saikiran Kotaru,  L. Koulias,  T. Kowalczyk,  C. M. Krauter,  K. Kue,  
 A. Kunitsa,  T. Kus,  A. Landau,  K. V. Lawler,  D. Lefrancois,  S. Lehtola,  
 Rain Li,  Shaozhi Li,  Yi-Pei Li,  Jiashu Liang,  M. Liebenthal,  
 Hung-Hsuan Lin,  You-Sheng Lin,  Fenglai Liu,  Kuan-Yu Liu,  
 M. Loipersberger,  A. Luenser,  C. Malbon,  A. Manjanath,  P. Manohar,  
 E. Mansoor,  S. F. Manzer,  Shan-Ping Mao,  A. V. Marenich,  T. Markovich,  
 S. Mason,  F. Matz,  S. A. Maurer,  P. F. McLaughlin,  M. F. S. J. Menger,  
 J.-M. Mewes,  S. A. Mewes,  P. Morgante,  Mohammad Mostafanejad,  
 J. W. Mullinax,  K. J. Oosterbaan,  G. Paran,  V. Parravicini,  
 Alexander C. Paul,  Suranjan K. Paul,  F. Pavosevic,  Zheng Pei,  S. Prager,  
 E. I. Proynov,  E. Ramos,  B. Rana,  A. E. Rask,  A. Rettig,  R. M. Richard,  
 F. Rob,  E. Rossomme,  T. Scheele,  M. Scheurer,  M. Schneider,  
 P. E. Schneider,  N. Sergueev,  S. M. Sharada,  Hengyuan Shen,  
 W. Skomorowski,  D. W. Small,  C. J. Stein,  Yingli Su,  Yu-Chuan Su,  
 E. J. Sundstrom,  Zhen Tao,  J. Thirman,  Hung-Yi Tsai,  T. Tsuchimochi,  
 N. M. Tubman,  C. Utku,  S. P. Veccham,  O. Vydrov,  J. Wenzel,  
 Jonathan Wong,  J. Witte,  A. Yamada,  Chou-Hsun Yang,  Kun Yao,  
 S. Yeganeh,  S. R. Yost,  A. Zech,  F. Zeller,  Igor Ying Zhang,  
 Xing Zhang,  Yu Zhang,  D. Zuev,  A. Aspuru-Guzik,  A. T. Bell,  
 N. A. Besley,  K. B. Bravaya,  B. R. Brooks,  D. Casanova,  Jeng-Da Chai,  
 Hsing-Ta Chen,  S. Coriani,  C. J. Cramer,  A. E. DePrince, III,  
 R. A. DiStasio Jr.,  A. Dreuw,  B. D. Dunietz,  T. R. Furlani,  
 W. A. Goddard III,  S. Grimme,  S. Hammes-Schiffer,  T. Head-Gordon,  
 W. J. Hehre,  Chao-Ping Hsu,  T.-C. Jagau,  Yousung Jung,  A. Klamt,  
 Jing Kong,  D. S. Lambrecht,  Xiangyuan Li,  WanZhen Liang,  N. J. Mayhall,  
 C. W. McCurdy,  J. B. Neaton,  T. Neudecker,  C. Ochsenfeld,  
 J. A. Parkhill,  R. Peverati,  V. A. Rassolov,  Haisheng Ren,  Yihan Shao,  
 L. V. Slipchenko,  R. P. Steele,  J. E. Subotnik,  A. J. W. Thom,  
 A. Tkatchenko,  D. G. Truhlar,  T. Van Voorhis,  Fan Wang,  
 T. A. Wesolowski,  K. B. Whaley,  H. L. Woodcock III,  P. M. Zimmerman,  
 S. Faraji,  P. M. W. Gill,  M. Head-Gordon,  J. M. Herbert,  A. I. Krylov

 Contributors to earlier versions of Q-Chem not listed above: 
 R. D. Adamson,  B. Austin,  R. Baer,  J. Baker,  G. J. O. Beran,  
 K. Brandhorst,  S. T. Brown,  E. F. C. Byrd,  Arup K. Chakraborty,  
 G. K. L. Chan,  Chun-Min Chang,  Yunqing Chen,  C.-L. Cheng,  
 Siu Hung Chien,  D. M. Chipman,  D. L. Crittenden,  H. Dachsel,  
 R. J. Doerksen,  A. D. Dutoi,  R. G. Edgar,  J. Fosso-Tande,  
 L. Fusti-Molnar,  D. Ghosh,  A. Ghysels,  A. Golubeva-Zadorozhnaya,  
 J. Gonthier,  M. S. Gordon,  S. R. Gwaltney,  G. Hawkins,  J. E. Herr,  
 A. Heyden,  S. Hirata,  E. G. Hohenstein,  G. Kedziora,  F. J. Keil,  
 C. Kelley,  Jihan Kim,  R. A. King,  R. Z. Khaliullin,  P. P. Korambath,  
 W. Kurlancheek,  A. Laurent,  A. M. Lee,  M. S. Lee,  S. V. Levchenko,  
 Ching Yeh Lin,  D. Liotard,  E. Livshits,  R. C. Lochan,  I. Lotan,  
 L. A. Martinez-Martinez,  P. E. Maslen,  N. Nair,  D. P. O'Neill,  
 D. Neuhauser,  E. Neuscamman,  C. M. Oana,  R. Olivares-Amaya,  R. Olson,  
 T. M. Perrine,  B. Peters,  P. A. Pieniazek,  A. Prociuk,  Y. M. Rhee,  
 J. Ritchie,  M. A. Rohrdanz,  E. Rosta,  N. J. Russ,  H. F. Schaefer III,  
 M. W. Schmidt,  N. E. Schultz,  S. Sharma,  N. Shenvi,  C. D. Sherrill,  
 A. C. Simmonett,  A. Sodt,  T. Stein,  D. Stuck,  K. S. Thanthiriwatte,  
 V. Vanovschi,  L. Vogt,  Tao Wang,  A. Warshel,  M. A. Watson,  
 C. F. Williams,  Q. Wu,  X. Xu,  Jun Yang,  W. Zhang,  Yan Zhao

   Please cite Q-Chem as follows:
  "Software for the frontiers of quantum chemistry:
   An overview of developments in the Q-Chem 5 package"
   J. Chem. Phys. 155, 084801 (2021)
   https://doi.org/10.1063/5.0055522 (open access)

 Q-Chem 6.0.2 for Intel X86 EM64T Linux

 Parts of Q-Chem use Armadillo 9.900.5 (Nocturnal Misbehaviour).
 http://arma.sourceforge.net/

 Q-Chem begins on Tue Aug  6 12:59:09 2024  

 Host: 
0

     Scratch files written to ./qchem3956219//
 Dec722 |scratch|qcdevops|jenkins|workspace|build_RNUM    
 Processing $rem in /cm/shared/apps/spack/0.17.3/cpu/b/opt/spack/linux-rocky8-zen2/gcc-10.2.0/qchem-6.0-rytxnwjazd34ekd2gqyi5ufsaimxsd3r/config/preferences:
 Processing $rem in /home/hklem/.qchemrc:
 No nuclear gradient supported for projection-based embedding or EMFT. Set max ideriv = 0.

 Checking the input file for inconsistencies... 	...done.

--------------------------------------------------------------
User input:
--------------------------------------------------------------
$molecule
-1 1
--
0 1
C    2.54700    2.83500    0.06500
O    3.55400    3.54300    0.19400
C    2.60000    1.39700    -0.10700
C    1.51100    0.65100    -0.41600
C    0.14300    1.28900    -0.54900
C    0.05300    2.54000    0.32700
C    1.19400    3.50000    0.02400
C    1.68800    -0.79400   -0.77600
C    0.44500    -1.67800   -0.66700
C    -0.78600   -0.94700   -1.20100
C    -1.01600   0.30000    -0.31600
C    -2.03700   -1.80900   -1.28100
C    -3.27500   -1.00500   -1.72400
C    -3.56200   0.04900    -0.66300
C    -2.37300   1.00400    -0.52500
C    -2.03500   -3.02100   -2.22800
C    -3.53900   -3.29000   -2.50600
C    -4.31100   -2.13400   -1.81600
C    -3.09000   -0.34700   -3.10900
O    -5.55100   -1.82000   -2.42800
H    3.57800    0.92900    -0.03700
H    0.08000    1.58400    -1.61100
H    0.08600    2.24300    1.38500
H    -0.89900   3.05500    0.17000
H    1.07600    3.90100    -0.99400
H    1.21000    4.35500    0.70500
H    2.53000    -1.21800   -0.21600
H    2.00300    -0.79500   -1.83100
H    0.26800    -1.98100   0.37400
H    0.62700    -2.60000   -1.23100
H    -0.54200   -0.59800   -2.21000
H    -0.98200   -0.03900   0.73400
H    -2.25700   -2.17900   -0.26300
H    -3.75700   -0.45400   0.29500
H    -4.47000   0.61400    -0.90600
H    -2.31000   1.63400    -1.42200
H    -2.56200   1.68500    0.31300
H    -1.51900   -3.88500   -1.80400
H    -1.50500   -2.76500   -3.15400
H    -3.86500   -4.26100   -2.12000
H    -3.76500   -3.28400   -3.57800
H    -4.55400   -2.44000   -0.79000
H    -3.08800   -1.08800   -3.91500
H    -3.91100   0.35300    -3.30300
H    -2.15400   0.21100    -3.19500
H    -5.48000   -1.00300   -2.94400
--
-1 1
H    2.90800    9.11200    5.01800
C    2.09700    9.11000    4.28300
H    1.96500    10.13800   3.92800
C    2.42900    8.15800    3.13400
H    3.38200    8.46300    2.68200
H    2.60500    7.15500    3.54200
C    1.38400    8.05400    2.03900
C    0.18900    8.76800    2.06100
H    -0.02900   9.44600    2.88100
C    -0.76200   8.62800    1.05100
H    -1.69600   9.18400    1.10400
C    -0.52600   7.75900    -0.00800
O    -1.43400   7.54300    -1.00500
H    -2.24400   8.02600    -0.80400
C    0.67600    7.05400    -0.06500
H    0.85400    6.37900    -0.89500
C    1.60800    7.19800    0.95100
H    2.52400    6.61200    0.90400
H    1.18000    8.80800    4.80000
H    -2.79300   7.34000    2.79200
C    -3.23200   6.49600    2.24900
H    -3.02300   6.63900    1.18100
C    -2.64400   5.16400    2.72300
H    -2.87800   5.05100    3.79200
C    -3.27800   3.99200    1.97100
H    -3.06900   4.07400    0.89700
H    -2.87700   3.03200    2.31700
H    -4.36700   3.96700    2.09600
C    -1.12300   5.15400    2.56000
H    -0.65400   5.98800    3.09500
H    -0.68800   4.21900    2.93000
H    -0.85400   5.25500    1.50300
H    -4.32000   6.52300    2.38700
H    6.32800    -2.10800   -5.98900
C    5.31000    -1.72900   -5.84900
H    4.61300    -2.44500   -6.29900
C    4.99800    -1.52000   -4.36700
H    5.07700    -2.46800   -3.82300
H    5.73400    -0.82400   -3.94600
C    3.60300    -0.91400   -4.16700
O    2.73700    -1.62700   -3.56100
O    3.40600    0.23100    -4.62500
H    5.21500    -0.77900   -6.38300
H    -5.19900   2.08800    -6.81000
C    -5.11300   1.38500    -5.97600
H    -5.41900   0.39000    -6.30700
H    -4.06100   1.31900    -5.67700
C    -5.93600   1.77100    -4.76900
O    -6.15500   0.98500    -3.85200
N    -6.39600   3.04800    -4.77100
H    -6.13800   3.64600    -5.54100
C    -7.13700   3.63600    -3.67400
H    -7.30000   2.83600    -2.94900
C    -6.42100   4.82900    -3.03200
H    -6.36400   5.65100    -3.76100
H    -7.05700   5.19200    -2.21100
C    -5.01300   4.54300    -2.48900
H    -4.37400   4.26000    -3.33700
C    -4.42300   5.80700    -1.85500
H    -4.99400   6.09100    -0.96100
H    -3.38200   5.64800    -1.55200
H    -4.44300   6.65200    -2.55400
C    -5.00900   3.38500    -1.49100
H    -5.28800   2.44100    -1.96800
H    -4.01500   3.25000    -1.05600
H    -5.71100   3.57500    -0.66800
H    -8.12400   3.95400    -4.03400
H    -9.83600   0.66300    0.91400
C    -8.90300   0.69600    1.49000
H    -8.66700   -0.32700   1.81200
C    -7.75200   1.26700    0.65200
H    -8.01900   2.29700    0.37000
C    -6.45600   1.31700    1.46800
H    -6.15300   0.30400    1.76200
H    -5.63300   1.74900    0.88800
H    -6.57800   1.91300    2.38100
C    -7.55200   0.46000    -0.63100
H    -8.49000   0.34500    -1.18600
H    -6.82700   0.92600    -1.30400
H    -7.17000   -0.54200   -0.40600
H    -9.07900   1.29600    2.39000
H    3.15100    -1.51200   7.84900
C    2.06100    -1.57300   7.93100
H    1.81000    -1.78100   8.97800
C    1.40000    -0.27700   7.44900
H    0.31300    -0.35200   7.57500
H    1.73100    0.55400    8.08500
C    1.72500    0.02500    6.00400
C    0.75100    -0.04600   5.00800
H    -0.27300   -0.29600   5.27800
C    1.07500    0.20000    3.67400
H    0.30500    0.13000    2.90900
C    2.38100    0.52100    3.32300
H    2.64700    0.71200    2.29000
C    3.36400    0.59500    4.30900
H    4.38000    0.83900    4.01800
C    3.03400    0.35100    5.63600
H    3.80400    0.41200    6.40300
H    1.73200    -2.42200   7.32300
H    -3.20100   -2.15600   5.30200
C    -3.68800   -2.49700   4.37900
H    -4.75100   -2.23100   4.44100
C    -3.02500   -1.86000   3.15200
H    -3.58500   -2.17400   2.26000
C    -3.08500   -0.33200   3.22600
H    -2.54200   0.03800    4.10600
H    -2.63100   0.12400    2.33900
H    -4.12000   0.02500    3.29100
C    -1.58600   -2.34900   2.99900
H    -1.55100   -3.44000   2.92000
H    -1.11700   -1.93900   2.09800
H    -0.96800   -2.05600   3.85700
H    -3.60500   -3.59000   4.35100
H    -8.91300   -3.84100   2.23000
C    -9.33000   -4.14000   1.26300
H    -10.42000  -4.06300   1.32800
C    -8.78200   -3.25800   0.14400
H    -9.24900   -3.53400   -0.81100
H    -9.05600   -2.21200   0.33000
C    -7.26700   -3.34600   -0.04100
H    -6.96500   -4.37100   -0.28800
H    -6.94100   -2.71300   -0.87300
S    -6.30600   -2.83800   1.43300
C    -5.85000   -4.46300   2.10000
H    -5.22000   -5.00900   1.39200
H    -5.27800   -4.29200   3.01500
H    -6.73300   -5.06000   2.34300
H    -9.07700   -5.19400   1.09200
H    -3.07400   -7.79800   3.39800
C    -2.05400   -7.41100   3.29400
H    -1.37400   -8.26900   3.27100
C    -1.91800   -6.55100   2.03700
H    -2.10500   -7.17000   1.14800
H    -2.70300   -5.78000   2.04200
C    -0.56100   -5.85200   1.86800
H    -0.42100   -5.18300   2.73100
C    0.61300    -6.83200   1.86200
H    0.48300    -7.58600   1.07700
H    1.54600    -6.29700   1.65400
H    0.72500    -7.34800   2.82200
C    -0.56200   -5.00500   0.59500
H    -1.37000   -4.26300   0.61100
H    0.38400    -4.46900   0.47000
H    -0.69300   -5.63700   -0.29100
H    -1.82300   -6.82700   4.19400
H    2.76300    -5.03700   4.10700
C    3.65400    -4.57600   3.66400
H    3.94700    -5.18200   2.79900
C    3.37500    -3.13100   3.23600
H    3.09300    -2.55000   4.12600
C    4.62600    -2.48800   2.63200
H    4.92800    -3.02400   1.72200
H    4.44900    -1.43900   2.36800
H    5.46800    -2.51800   3.33500
C    2.21100    -3.07100   2.24700
H    1.30100    -3.51300   2.67100
H    1.98300    -2.03400   1.98000
H    2.45400    -3.61500   1.32400
H    4.46500    -4.62600   4.40100
H    7.59000    0.84500    3.41900
C    7.81300    0.31100    2.49000
H    7.15700    -0.56400   2.45000
C    7.59000    1.20200    1.28100
H    8.24500    2.08100    1.29200
H    7.82700    0.66300    0.35700
C    6.16100    1.68200    1.17000
O    5.26200    1.29800    1.89200
O    5.99900    2.55900    0.18900
H    5.04500    2.87900    0.18600
H    8.85100    -0.03400   2.53000
H    9.68300    5.16400    -2.29200
C    9.58500    4.13700    -2.66200
H    10.56900   3.65800    -2.59400
C    8.54200    3.36000    -1.86100
H    8.84500    3.32200    -0.80500
H    7.57900    3.88200    -1.87300
C    8.33800    1.92000    -2.33400
H    9.30300    1.40700    -2.42600
H    7.74500    1.37200    -1.59600
S    7.51100    1.69800    -3.94400
C    5.81700    2.20700    -3.51400
H    5.68000    3.28400    -3.63900
H    5.11300    1.66100    -4.15200
H    5.60500    1.94200    -2.47400
H    9.30700    4.18100    -3.72100
H    7.26500    -1.52100   -2.35100
C    6.95800    -1.74700   -1.32500
H    7.78200    -1.46500   -0.65800
C    5.67300    -1.00500   -0.96300
H    4.83000    -1.32800   -1.58300
H    5.39800    -1.15800   0.08700
H    5.78500    0.07300    -1.12200
H    6.83100    -2.83300   -1.24700
H    5.74500    -7.43400   -1.02100
C    5.00500    -7.71000   -0.26200
H    5.50800    -8.29500   0.51600
C    4.34600    -6.45700   0.33000
H    3.65700    -6.77200   1.12600
H    5.11400    -5.84400   0.82000
C    3.61400    -5.61200   -0.67200
C    3.92800    -4.33400   -1.06700
H    4.74000    -3.70100   -0.73300
N    3.03900    -3.87600   -2.00300
H    3.06400    -2.98400   -2.53500
C    2.12000    -4.86100   -2.24000
C    1.01700    -4.85600   -3.09900
H    0.79800    -3.98000   -3.70200
C    0.23300    -5.99600   -3.14100
H    -0.63600   -6.02200   -3.79200
C    0.54400    -7.12300   -2.35300
H    -0.09000   -8.00500   -2.41400
C    1.63700    -7.12200   -1.50300
H    1.86200    -7.99500   -0.89600
C    2.44400    -5.97500   -1.42600
H    4.26200    -8.35300   -0.74700
O    0.71300    0.37900    -3.89500
H    0.99100    -0.54500   -3.77400
H    1.58200    0.71600    -4.19500
$end

$rem
JOBTYPE  SP
METHOD  WB97X-V
BASIS  6-31G(D)
SYMMETRY  FALSE
SYM_IGNORE  TRUE
MEM_TOTAL  12000
MEM_STATIC  4000
BASIS_LIN_DEP_THRESH  6
THRESH  14
SCF_CONVERGENCE  8
FD_MAT_VEC_PROD  FALSE
XC_GRID  000075000302
NL_GRID  1
MAX_SCF_CYCLES  200
ENV_METHOD  WB97X-V
GEN_SCFMAN_EMBED  TRUE
SPADE_PARTITION  TRUE
EMBEDDING_EARLY_STOP  TRUE
$end

--------------------------------------------------------------
 ----------------------------------------------------------------
             Standard Nuclear Orientation (Angstroms)
    I     Atom           X                Y                Z
 ----------------------------------------------------------------
    1      C       2.5470000000     2.8350000000     0.0650000000
    2      O       3.5540000000     3.5430000000     0.1940000000
    3      C       2.6000000000     1.3970000000    -0.1070000000
    4      C       1.5110000000     0.6510000000    -0.4160000000
    5      C       0.1430000000     1.2890000000    -0.5490000000
    6      C       0.0530000000     2.5400000000     0.3270000000
    7      C       1.1940000000     3.5000000000     0.0240000000
    8      C       1.6880000000    -0.7940000000    -0.7760000000
    9      C       0.4450000000    -1.6780000000    -0.6670000000
   10      C      -0.7860000000    -0.9470000000    -1.2010000000
   11      C      -1.0160000000     0.3000000000    -0.3160000000
   12      C      -2.0370000000    -1.8090000000    -1.2810000000
   13      C      -3.2750000000    -1.0050000000    -1.7240000000
   14      C      -3.5620000000     0.0490000000    -0.6630000000
   15      C      -2.3730000000     1.0040000000    -0.5250000000
   16      C      -2.0350000000    -3.0210000000    -2.2280000000
   17      C      -3.5390000000    -3.2900000000    -2.5060000000
   18      C      -4.3110000000    -2.1340000000    -1.8160000000
   19      C      -3.0900000000    -0.3470000000    -3.1090000000
   20      O      -5.5510000000    -1.8200000000    -2.4280000000
   21      H       3.5780000000     0.9290000000    -0.0370000000
   22      H       0.0800000000     1.5840000000    -1.6110000000
   23      H       0.0860000000     2.2430000000     1.3850000000
   24      H      -0.8990000000     3.0550000000     0.1700000000
   25      H       1.0760000000     3.9010000000    -0.9940000000
   26      H       1.2100000000     4.3550000000     0.7050000000
   27      H       2.5300000000    -1.2180000000    -0.2160000000
   28      H       2.0030000000    -0.7950000000    -1.8310000000
   29      H       0.2680000000    -1.9810000000     0.3740000000
   30      H       0.6270000000    -2.6000000000    -1.2310000000
   31      H      -0.5420000000    -0.5980000000    -2.2100000000
   32      H      -0.9820000000    -0.0390000000     0.7340000000
   33      H      -2.2570000000    -2.1790000000    -0.2630000000
   34      H      -3.7570000000    -0.4540000000     0.2950000000
   35      H      -4.4700000000     0.6140000000    -0.9060000000
   36      H      -2.3100000000     1.6340000000    -1.4220000000
   37      H      -2.5620000000     1.6850000000     0.3130000000
   38      H      -1.5190000000    -3.8850000000    -1.8040000000
   39      H      -1.5050000000    -2.7650000000    -3.1540000000
   40      H      -3.8650000000    -4.2610000000    -2.1200000000
   41      H      -3.7650000000    -3.2840000000    -3.5780000000
   42      H      -4.5540000000    -2.4400000000    -0.7900000000
   43      H      -3.0880000000    -1.0880000000    -3.9150000000
   44      H      -3.9110000000     0.3530000000    -3.3030000000
   45      H      -2.1540000000     0.2110000000    -3.1950000000
   46      H      -5.4800000000    -1.0030000000    -2.9440000000
   47      H       2.9080000000     9.1120000000     5.0180000000
   48      C       2.0970000000     9.1100000000     4.2830000000
   49      H       1.9650000000    10.1380000000     3.9280000000
   50      C       2.4290000000     8.1580000000     3.1340000000
   51      H       3.3820000000     8.4630000000     2.6820000000
   52      H       2.6050000000     7.1550000000     3.5420000000
   53      C       1.3840000000     8.0540000000     2.0390000000
   54      C       0.1890000000     8.7680000000     2.0610000000
   55      H      -0.0290000000     9.4460000000     2.8810000000
   56      C      -0.7620000000     8.6280000000     1.0510000000
   57      H      -1.6960000000     9.1840000000     1.1040000000
   58      C      -0.5260000000     7.7590000000    -0.0080000000
   59      O      -1.4340000000     7.5430000000    -1.0050000000
   60      H      -2.2440000000     8.0260000000    -0.8040000000
   61      C       0.6760000000     7.0540000000    -0.0650000000
   62      H       0.8540000000     6.3790000000    -0.8950000000
   63      C       1.6080000000     7.1980000000     0.9510000000
   64      H       2.5240000000     6.6120000000     0.9040000000
   65      H       1.1800000000     8.8080000000     4.8000000000
   66      H      -2.7930000000     7.3400000000     2.7920000000
   67      C      -3.2320000000     6.4960000000     2.2490000000
   68      H      -3.0230000000     6.6390000000     1.1810000000
   69      C      -2.6440000000     5.1640000000     2.7230000000
   70      H      -2.8780000000     5.0510000000     3.7920000000
   71      C      -3.2780000000     3.9920000000     1.9710000000
   72      H      -3.0690000000     4.0740000000     0.8970000000
   73      H      -2.8770000000     3.0320000000     2.3170000000
   74      H      -4.3670000000     3.9670000000     2.0960000000
   75      C      -1.1230000000     5.1540000000     2.5600000000
   76      H      -0.6540000000     5.9880000000     3.0950000000
   77      H      -0.6880000000     4.2190000000     2.9300000000
   78      H      -0.8540000000     5.2550000000     1.5030000000
   79      H      -4.3200000000     6.5230000000     2.3870000000
   80      H       6.3280000000    -2.1080000000    -5.9890000000
   81      C       5.3100000000    -1.7290000000    -5.8490000000
   82      H       4.6130000000    -2.4450000000    -6.2990000000
   83      C       4.9980000000    -1.5200000000    -4.3670000000
   84      H       5.0770000000    -2.4680000000    -3.8230000000
   85      H       5.7340000000    -0.8240000000    -3.9460000000
   86      C       3.6030000000    -0.9140000000    -4.1670000000
   87      O       2.7370000000    -1.6270000000    -3.5610000000
   88      O       3.4060000000     0.2310000000    -4.6250000000
   89      H       5.2150000000    -0.7790000000    -6.3830000000
   90      H      -5.1990000000     2.0880000000    -6.8100000000
   91      C      -5.1130000000     1.3850000000    -5.9760000000
   92      H      -5.4190000000     0.3900000000    -6.3070000000
   93      H      -4.0610000000     1.3190000000    -5.6770000000
   94      C      -5.9360000000     1.7710000000    -4.7690000000
   95      O      -6.1550000000     0.9850000000    -3.8520000000
   96      N      -6.3960000000     3.0480000000    -4.7710000000
   97      H      -6.1380000000     3.6460000000    -5.5410000000
   98      C      -7.1370000000     3.6360000000    -3.6740000000
   99      H      -7.3000000000     2.8360000000    -2.9490000000
  100      C      -6.4210000000     4.8290000000    -3.0320000000
  101      H      -6.3640000000     5.6510000000    -3.7610000000
  102      H      -7.0570000000     5.1920000000    -2.2110000000
  103      C      -5.0130000000     4.5430000000    -2.4890000000
  104      H      -4.3740000000     4.2600000000    -3.3370000000
  105      C      -4.4230000000     5.8070000000    -1.8550000000
  106      H      -4.9940000000     6.0910000000    -0.9610000000
  107      H      -3.3820000000     5.6480000000    -1.5520000000
  108      H      -4.4430000000     6.6520000000    -2.5540000000
  109      C      -5.0090000000     3.3850000000    -1.4910000000
  110      H      -5.2880000000     2.4410000000    -1.9680000000
  111      H      -4.0150000000     3.2500000000    -1.0560000000
  112      H      -5.7110000000     3.5750000000    -0.6680000000
  113      H      -8.1240000000     3.9540000000    -4.0340000000
  114      H      -9.8360000000     0.6630000000     0.9140000000
  115      C      -8.9030000000     0.6960000000     1.4900000000
  116      H      -8.6670000000    -0.3270000000     1.8120000000
  117      C      -7.7520000000     1.2670000000     0.6520000000
  118      H      -8.0190000000     2.2970000000     0.3700000000
  119      C      -6.4560000000     1.3170000000     1.4680000000
  120      H      -6.1530000000     0.3040000000     1.7620000000
  121      H      -5.6330000000     1.7490000000     0.8880000000
  122      H      -6.5780000000     1.9130000000     2.3810000000
  123      C      -7.5520000000     0.4600000000    -0.6310000000
  124      H      -8.4900000000     0.3450000000    -1.1860000000
  125      H      -6.8270000000     0.9260000000    -1.3040000000
  126      H      -7.1700000000    -0.5420000000    -0.4060000000
  127      H      -9.0790000000     1.2960000000     2.3900000000
  128      H       3.1510000000    -1.5120000000     7.8490000000
  129      C       2.0610000000    -1.5730000000     7.9310000000
  130      H       1.8100000000    -1.7810000000     8.9780000000
  131      C       1.4000000000    -0.2770000000     7.4490000000
  132      H       0.3130000000    -0.3520000000     7.5750000000
  133      H       1.7310000000     0.5540000000     8.0850000000
  134      C       1.7250000000     0.0250000000     6.0040000000
  135      C       0.7510000000    -0.0460000000     5.0080000000
  136      H      -0.2730000000    -0.2960000000     5.2780000000
  137      C       1.0750000000     0.2000000000     3.6740000000
  138      H       0.3050000000     0.1300000000     2.9090000000
  139      C       2.3810000000     0.5210000000     3.3230000000
  140      H       2.6470000000     0.7120000000     2.2900000000
  141      C       3.3640000000     0.5950000000     4.3090000000
  142      H       4.3800000000     0.8390000000     4.0180000000
  143      C       3.0340000000     0.3510000000     5.6360000000
  144      H       3.8040000000     0.4120000000     6.4030000000
  145      H       1.7320000000    -2.4220000000     7.3230000000
  146      H      -3.2010000000    -2.1560000000     5.3020000000
  147      C      -3.6880000000    -2.4970000000     4.3790000000
  148      H      -4.7510000000    -2.2310000000     4.4410000000
  149      C      -3.0250000000    -1.8600000000     3.1520000000
  150      H      -3.5850000000    -2.1740000000     2.2600000000
  151      C      -3.0850000000    -0.3320000000     3.2260000000
  152      H      -2.5420000000     0.0380000000     4.1060000000
  153      H      -2.6310000000     0.1240000000     2.3390000000
  154      H      -4.1200000000     0.0250000000     3.2910000000
  155      C      -1.5860000000    -2.3490000000     2.9990000000
  156      H      -1.5510000000    -3.4400000000     2.9200000000
  157      H      -1.1170000000    -1.9390000000     2.0980000000
  158      H      -0.9680000000    -2.0560000000     3.8570000000
  159      H      -3.6050000000    -3.5900000000     4.3510000000
  160      H      -8.9130000000    -3.8410000000     2.2300000000
  161      C      -9.3300000000    -4.1400000000     1.2630000000
  162      H     -10.4200000000    -4.0630000000     1.3280000000
  163      C      -8.7820000000    -3.2580000000     0.1440000000
  164      H      -9.2490000000    -3.5340000000    -0.8110000000
  165      H      -9.0560000000    -2.2120000000     0.3300000000
  166      C      -7.2670000000    -3.3460000000    -0.0410000000
  167      H      -6.9650000000    -4.3710000000    -0.2880000000
  168      H      -6.9410000000    -2.7130000000    -0.8730000000
  169      S      -6.3060000000    -2.8380000000     1.4330000000
  170      C      -5.8500000000    -4.4630000000     2.1000000000
  171      H      -5.2200000000    -5.0090000000     1.3920000000
  172      H      -5.2780000000    -4.2920000000     3.0150000000
  173      H      -6.7330000000    -5.0600000000     2.3430000000
  174      H      -9.0770000000    -5.1940000000     1.0920000000
  175      H      -3.0740000000    -7.7980000000     3.3980000000
  176      C      -2.0540000000    -7.4110000000     3.2940000000
  177      H      -1.3740000000    -8.2690000000     3.2710000000
  178      C      -1.9180000000    -6.5510000000     2.0370000000
  179      H      -2.1050000000    -7.1700000000     1.1480000000
  180      H      -2.7030000000    -5.7800000000     2.0420000000
  181      C      -0.5610000000    -5.8520000000     1.8680000000
  182      H      -0.4210000000    -5.1830000000     2.7310000000
  183      C       0.6130000000    -6.8320000000     1.8620000000
  184      H       0.4830000000    -7.5860000000     1.0770000000
  185      H       1.5460000000    -6.2970000000     1.6540000000
  186      H       0.7250000000    -7.3480000000     2.8220000000
  187      C      -0.5620000000    -5.0050000000     0.5950000000
  188      H      -1.3700000000    -4.2630000000     0.6110000000
  189      H       0.3840000000    -4.4690000000     0.4700000000
  190      H      -0.6930000000    -5.6370000000    -0.2910000000
  191      H      -1.8230000000    -6.8270000000     4.1940000000
  192      H       2.7630000000    -5.0370000000     4.1070000000
  193      C       3.6540000000    -4.5760000000     3.6640000000
  194      H       3.9470000000    -5.1820000000     2.7990000000
  195      C       3.3750000000    -3.1310000000     3.2360000000
  196      H       3.0930000000    -2.5500000000     4.1260000000
  197      C       4.6260000000    -2.4880000000     2.6320000000
  198      H       4.9280000000    -3.0240000000     1.7220000000
  199      H       4.4490000000    -1.4390000000     2.3680000000
  200      H       5.4680000000    -2.5180000000     3.3350000000
  201      C       2.2110000000    -3.0710000000     2.2470000000
  202      H       1.3010000000    -3.5130000000     2.6710000000
  203      H       1.9830000000    -2.0340000000     1.9800000000
  204      H       2.4540000000    -3.6150000000     1.3240000000
  205      H       4.4650000000    -4.6260000000     4.4010000000
  206      H       7.5900000000     0.8450000000     3.4190000000
  207      C       7.8130000000     0.3110000000     2.4900000000
  208      H       7.1570000000    -0.5640000000     2.4500000000
  209      C       7.5900000000     1.2020000000     1.2810000000
  210      H       8.2450000000     2.0810000000     1.2920000000
  211      H       7.8270000000     0.6630000000     0.3570000000
  212      C       6.1610000000     1.6820000000     1.1700000000
  213      O       5.2620000000     1.2980000000     1.8920000000
  214      O       5.9990000000     2.5590000000     0.1890000000
  215      H       5.0450000000     2.8790000000     0.1860000000
  216      H       8.8510000000    -0.0340000000     2.5300000000
  217      H       9.6830000000     5.1640000000    -2.2920000000
  218      C       9.5850000000     4.1370000000    -2.6620000000
  219      H      10.5690000000     3.6580000000    -2.5940000000
  220      C       8.5420000000     3.3600000000    -1.8610000000
  221      H       8.8450000000     3.3220000000    -0.8050000000
  222      H       7.5790000000     3.8820000000    -1.8730000000
  223      C       8.3380000000     1.9200000000    -2.3340000000
  224      H       9.3030000000     1.4070000000    -2.4260000000
  225      H       7.7450000000     1.3720000000    -1.5960000000
  226      S       7.5110000000     1.6980000000    -3.9440000000
  227      C       5.8170000000     2.2070000000    -3.5140000000
  228      H       5.6800000000     3.2840000000    -3.6390000000
  229      H       5.1130000000     1.6610000000    -4.1520000000
  230      H       5.6050000000     1.9420000000    -2.4740000000
  231      H       9.3070000000     4.1810000000    -3.7210000000
  232      H       7.2650000000    -1.5210000000    -2.3510000000
  233      C       6.9580000000    -1.7470000000    -1.3250000000
  234      H       7.7820000000    -1.4650000000    -0.6580000000
  235      C       5.6730000000    -1.0050000000    -0.9630000000
  236      H       4.8300000000    -1.3280000000    -1.5830000000
  237      H       5.3980000000    -1.1580000000     0.0870000000
  238      H       5.7850000000     0.0730000000    -1.1220000000
  239      H       6.8310000000    -2.8330000000    -1.2470000000
  240      H       5.7450000000    -7.4340000000    -1.0210000000
  241      C       5.0050000000    -7.7100000000    -0.2620000000
  242      H       5.5080000000    -8.2950000000     0.5160000000
  243      C       4.3460000000    -6.4570000000     0.3300000000
  244      H       3.6570000000    -6.7720000000     1.1260000000
  245      H       5.1140000000    -5.8440000000     0.8200000000
  246      C       3.6140000000    -5.6120000000    -0.6720000000
  247      C       3.9280000000    -4.3340000000    -1.0670000000
  248      H       4.7400000000    -3.7010000000    -0.7330000000
  249      N       3.0390000000    -3.8760000000    -2.0030000000
  250      H       3.0640000000    -2.9840000000    -2.5350000000
  251      C       2.1200000000    -4.8610000000    -2.2400000000
  252      C       1.0170000000    -4.8560000000    -3.0990000000
  253      H       0.7980000000    -3.9800000000    -3.7020000000
  254      C       0.2330000000    -5.9960000000    -3.1410000000
  255      H      -0.6360000000    -6.0220000000    -3.7920000000
  256      C       0.5440000000    -7.1230000000    -2.3530000000
  257      H      -0.0900000000    -8.0050000000    -2.4140000000
  258      C       1.6370000000    -7.1220000000    -1.5030000000
  259      H       1.8620000000    -7.9950000000    -0.8960000000
  260      C       2.4440000000    -5.9750000000    -1.4260000000
  261      H       4.2620000000    -8.3530000000    -0.7470000000
  262      O       0.7130000000     0.3790000000    -3.8950000000
  263      H       0.9910000000    -0.5450000000    -3.7740000000
  264      H       1.5820000000     0.7160000000    -4.1950000000
 ----------------------------------------------------------------
 Nuclear Repulsion Energy =       24377.61132559 hartrees
 There are      405 alpha and      405 beta electrons
 Requested basis set is 6-31G(d)
 There are 732 shells and 1849 basis functions

 Total QAlloc Memory Limit  12000 MB
 Mega-Array Size      3911 MB
 MEM_STATIC part      4000 MB

 A cutoff of  1.0D-14 yielded  81986 shell pairs
 There are    508159 function pairs
 Smallest overlap matrix eigenvalue = 3.60E-04

 Scale SEOQF with 1.000000e-02/1.000000e-02/1.000000e-02

 Standard Electronic Orientation quadrupole field applied
 Nucleus-field energy     =     0.0000000824 hartrees
 Guess from superposition of atomic densities
 Warning:  Energy on first SCF cycle will be non-variational
 SAD guess density has 809.000002 electrons

 -----------------------------------------------------------------------
  General SCF calculation program by
  Eric Jon Sundstrom, Paul Horn, Yuezhi Mao, Dmitri Zuev, Alec White,
  David Stuck, Shaama M.S., Shane Yost, Joonho Lee, David Small,
  Daniel Levine, Susi Lehtola, Hugh Burton, Evgeny Epifanovsky,
  Bang C. Huynh
 -----------------------------------------------------------------------
=================================================
        Doing projection-based embedding         
      F. Manby et al. JCTC, 8, 2564 (2012)       
=================================================

****************************************************
   Low-level SCF calculation for the whole system   
****************************************************
----------------------------------------------
 Summary of the low-level theory: 
 Exchange:     0.1670 Hartree-Fock + 1.0000 wB97X-V + LR-HF
 Correlation:  1.0000 wB97X-V
 Using Euler-Maclaurin-Lebedev (75,302) quadrature formula
 Nonlocal Correlation:  VV10 with C = 0.0100 and b = 6.00 and scale = 1.00000
 Grid used for NLC:  SG-1 standard quadrature
----------------------------------------------
 using 8 threads for integral computing
 -------------------------------------------------------
 OpenMP Integral computing Module                
 Release: version 1.0, May 2013, Q-Chem Inc. Pittsburgh 
 -------------------------------------------------------
 A restricted SCF calculation will be
 performed using DIIS
 SCF converges when DIIS error is below 1.0e-08
 ---------------------------------------
  Cycle       Energy         DIIS error
 ---------------------------------------
    1   -5060.9127622438      1.78e-02  
    2   -5032.4608606263      1.56e-03  
    3   -5032.7528941242      1.51e-03  
    4   -5033.4393096425      2.65e-04  
    5   -5033.4603437474      1.18e-04  
    6   -5033.4649816692      3.06e-05  
    7   -5033.4653123245      7.31e-06  
    8   -5033.4653420499      2.60e-06  
    9   -5033.4653466799      1.29e-06  
   10   -5033.4653478797      4.87e-07  
   11   -5033.4653480945      2.35e-07  
   12   -5033.4653481473      8.79e-08  
   13   -5033.4653481553      3.29e-08  
   14   -5033.4653481570      1.55e-08  
   15   -5033.4653481573      7.45e-09  Convergence criterion met
 ---------------------------------------
 SCF time:   CPU 47820.11s  wall 6064.00s 
 SCF   energy in the final basis set =    -5033.4653481573
 Total energy in the final basis set =    -5033.4653481573

****************************************************
             Start embedding calculation            
****************************************************
----------------------------------------------
 Summary of the high-level theory: 
 Exchange:     0.1670 Hartree-Fock + 1.0000 wB97X-V + LR-HF
 Correlation:  1.0000 wB97X-V
 Using Euler-Maclaurin-Lebedev (75,302) quadrature formula
 Nonlocal Correlation:  VV10 with C = 0.0100 and b = 6.00 and scale = 1.00000
 Grid used for NLC:  SG-1 standard quadrature
----------------------------------------------
Doing R-in-R Embedding Calculation
Number of fragments: 2
Embedded fragment(s): 1 
NOcc for each fragment
           75
          330
NBasis for each fragment
          352
         1497
Variational space of the embedded problem: 
NOcc (active)  = 75
NOcc (fixed)   = 330
NVir (total)   = 1444
Read converged orbitals from disk
=========================================================
       Doing SPADE partition for the orbital space       
     D. Claudino and N. Mayhall JCTC 15, 1053 (2019)     
=========================================================
SPADE singular values:
 1.0000 1.0000 1.0000 1.0000 1.0000 1.0000 1.0000 1.0000 1.0000 1.0000
 1.0000 1.0000 1.0000 1.0000 1.0000 1.0000 1.0000 1.0000 1.0000 1.0000
 1.0000 1.0000 1.0000 1.0000 1.0000 1.0000 1.0000 1.0000 1.0000 1.0000
 1.0000 1.0000 1.0000 1.0000 1.0000 1.0000 1.0000 1.0000 1.0000 1.0000
 1.0000 0.9999 0.9999 0.9999 0.9999 0.9999 0.9999 0.9998 0.9998 0.9998
 0.9996 0.9995 0.9995 0.9994 0.9993 0.9992 0.9991 0.9991 0.9990 0.9990
 0.9989 0.9988 0.9985 0.9985 0.9982 0.9980 0.9978 0.9978 0.9977 0.9974
 0.9970 0.9957 0.9935 0.9934 0.9693 0.1625 0.1347 0.1207 0.0907 0.0874
 0.0843 0.0805 0.0777 0.0735 0.0708 0.0644 0.0626 0.0581 0.0570 0.0539
 0.0522 0.0497 0.0479 0.0450 0.0426 0.0412 0.0391 0.0348 0.0325 0.0297
 0.0284 0.0261 0.0250 0.0225 0.0216 0.0206 0.0191 0.0182 0.0170 0.0165
 0.0154 0.0143 0.0128 0.0127 0.0115 0.0104 0.0100 0.0097 0.0094 0.0082
 0.0072 0.0069 0.0067 0.0064 0.0060 0.0057 0.0054 0.0052 0.0047 0.0046
 0.0044 0.0040 0.0040 0.0039 0.0037 0.0035 0.0034 0.0032 0.0031 0.0029
 0.0027 0.0026 0.0024 0.0023 0.0022 0.0021 0.0021 0.0019 0.0019 0.0018
 0.0018 0.0016 0.0016 0.0015 0.0014 0.0014 0.0013 0.0013 0.0012 0.0012
 0.0012 0.0011 0.0011 0.0010 0.0010 0.0010 0.0009 0.0009 0.0009 0.0008
 0.0008 0.0008 0.0007 0.0007 0.0007 0.0007 0.0007 0.0006 0.0006 0.0006
 0.0006 0.0006 0.0006 0.0005 0.0005 0.0005 0.0005 0.0005 0.0005 0.0005
 0.0004 0.0004 0.0004 0.0004 0.0004 0.0004 0.0004 0.0004 0.0004 0.0003
 0.0003 0.0003 0.0003 0.0003 0.0003 0.0003 0.0003 0.0003 0.0003 0.0003
 0.0002 0.0002 0.0002 0.0002 0.0002 0.0002 0.0002 0.0002 0.0002 0.0002
 0.0002 0.0002 0.0002 0.0002 0.0002 0.0002 0.0002 0.0002 0.0001 0.0001
 0.0001 0.0001 0.0001 0.0001 0.0001 0.0001 0.0001 0.0001 0.0001 0.0001
 0.0001 0.0001 0.0001 0.0001 0.0001 0.0001 0.0001 0.0001 0.0001 0.0001
 0.0001 0.0001 0.0001 0.0001 0.0001 0.0001 0.0001 0.0001 0.0001 0.0001
 0.0001 0.0001 0.0001 0.0001 0.0000 0.0000 0.0000 0.0000 0.0000 0.0000
 0.0000 0.0000 0.0000 0.0000 0.0000 0.0000 0.0000 0.0000 0.0000 0.0000
 0.0000 0.0000 0.0000 0.0000 0.0000 0.0000 0.0000 0.0000 0.0000 0.0000
 0.0000 0.0000 0.0000 0.0000 0.0000 0.0000 0.0000 0.0000 0.0000 0.0000
 0.0000 0.0000 0.0000 0.0000 0.0000 0.0000 0.0000 0.0000 0.0000 0.0000
 0.0000 0.0000 0.0000 0.0000 0.0000 0.0000 0.0000 0.0000 0.0000 0.0000
 0.0000 0.0000 0.0000 0.0000 0.0000 0.0000 0.0000 0.0000 0.0000 0.0000
 0.0000 0.0000 0.0000 0.0000 0.0000 0.0000 0.0000 0.0000 0.0000 0.0000
 0.0000 0.0000 0.0000 0.0000 0.0000 0.0000 0.0000 0.0000 0.0000 0.0000
 0.0000 0.0000
Early stop requested; no embedded SCF will be performed

 330 environment occs will be part of frozen-core in future post-HF calculations
 
 --------------------------------------------------------------
 
                    Orbital Energies (a.u.)
 --------------------------------------------------------------
 
 Alpha MOs
 -- Occupied --
-88.8025 -88.7769 -19.2140 -19.1787 -19.1542 -19.1378 -19.0794 -19.0718
-19.0627 -14.4113 -14.3545 -10.3441 -10.3318 -10.2915 -10.2700 -10.2580
-10.2425 -10.2399 -10.2371 -10.2360 -10.2349 -10.2347 -10.2336 -10.2334
-10.2323 -10.2294 -10.2265 -10.2265 -10.2253 -10.2232 -10.2210 -10.2206
-10.2206 -10.2196 -10.2177 -10.2177 -10.2176 -10.2143 -10.2141 -10.2132
-10.2126 -10.2120 -10.2089 -10.2075 -10.2071 -10.2071 -10.2067 -10.2057
-10.2057 -10.2052 -10.2052 -10.2047 -10.2044 -10.2041 -10.2033 -10.2010
-10.2006 -10.1999 -10.1988 -10.1983 -10.1979 -10.1975 -10.1972 -10.1965
-10.1957 -10.1928 -10.1920 -10.1916 -10.1915 -10.1911 -10.1909 -10.1880
-10.1879 -10.1862 -10.1853 -10.1824 -10.1821 -10.1758 -10.1755 -10.1719
-10.1668  -7.9676  -7.9431  -5.9257  -5.9215  -5.9143  -5.9011  -5.8968
 -5.8898  -1.1449  -1.1402  -1.1206  -1.0513  -1.0454  -1.0131  -1.0114
 -0.9806  -0.9506  -0.9381  -0.9171  -0.8977  -0.8837  -0.8828  -0.8759
 -0.8692  -0.8684  -0.8666  -0.8653  -0.8652  -0.8519  -0.8499  -0.8478
 -0.8454  -0.8433  -0.8291  -0.8262  -0.8065  -0.8040  -0.8006  -0.7971
 -0.7971  -0.7946  -0.7911  -0.7901  -0.7795  -0.7694  -0.7606  -0.7584
 -0.7518  -0.7514  -0.7454  -0.7441  -0.7436  -0.7391  -0.7375  -0.7369
 -0.7287  -0.7270  -0.7218  -0.7192  -0.7170  -0.7102  -0.6920  -0.6901
 -0.6843  -0.6769  -0.6739  -0.6667  -0.6629  -0.6602  -0.6536  -0.6491
 -0.6487  -0.6438  -0.6344  -0.6257  -0.6214  -0.6197  -0.6164  -0.6150
 -0.6129  -0.6099  -0.6060  -0.6029  -0.5990  -0.5951  -0.5836  -0.5662
 -0.5548  -0.5531  -0.5517  -0.5459  -0.5350  -0.5326  -0.5271  -0.5227
 -0.5176  -0.5170  -0.5156  -0.5148  -0.5137  -0.5123  -0.5113  -0.5084
 -0.5065  -0.5058  -0.5035  -0.5028  -0.5005  -0.4969  -0.4965  -0.4959
 -0.4944  -0.4921  -0.4901  -0.4882  -0.4828  -0.4818  -0.4808  -0.4795
 -0.4792  -0.4753  -0.4751  -0.4746  -0.4738  -0.4720  -0.4717  -0.4700
 -0.4684  -0.4682  -0.4675  -0.4667  -0.4662  -0.4654  -0.4652  -0.4633
 -0.4630  -0.4594  -0.4572  -0.4552  -0.4537  -0.4516  -0.4509  -0.4503
 -0.4478  -0.4460  -0.4460  -0.4455  -0.4419  -0.4375  -0.4361  -0.4358
 -0.4340  -0.4331  -0.4326  -0.4318  -0.4311  -0.4298  -0.4288  -0.4262
 -0.4245  -0.4241  -0.4206  -0.4185  -0.4182  -0.4170  -0.4167  -0.4165
 -0.4140  -0.4124  -0.4113  -0.4110  -0.4086  -0.4062  -0.4054  -0.4048
 -0.4025  -0.4001  -0.3985  -0.3980  -0.3970  -0.3936  -0.3921  -0.3916
 -0.3907  -0.3899  -0.3870  -0.3853  -0.3851  -0.3836  -0.3835  -0.3834
 -0.3820  -0.3805  -0.3799  -0.3797  -0.3787  -0.3787  -0.3777  -0.3746
 -0.3736  -0.3735  -0.3732  -0.3712  -0.3689  -0.3657  -0.3650  -0.3627
 -0.3626  -0.3603  -0.3594  -0.3588  -0.3585  -0.3573  -0.3569  -0.3567
 -0.3562  -0.3547  -0.3530  -0.3528  -0.3521  -0.3499  -0.3448  -0.3426
 -0.3409  -0.3401  -0.3370  -0.3363  -0.3341  -0.3311  -0.3305  -0.3289
 -0.3283  -0.3125  -0.3080  -0.3071  -0.2940  -0.2899  -0.2789  -0.2678
 -0.2632  -0.2531  -0.2520  -0.2509  -0.2417  -0.2341  -0.2264  -0.2223
 -0.2149  -0.1917 -10.1944 -10.9676 -10.8844 -10.1583 -10.0376 -10.1198
-10.1131 -10.0261 -10.0717 -11.2523 -12.8825 -10.4070 -11.0360 -10.5930
-10.7251  -9.6734  -9.4444 -15.6224 -10.0315  -9.1223  -1.5171  -1.1180
 -1.1715  -1.2750  -0.7905  -1.1111  -1.0608  -1.0912  -0.7516  -0.9644
 -1.0685  -0.9747  -1.2454  -0.9591  -0.8408  -0.9860  -0.8433  -0.9072
 -0.6067  -0.9519  -0.7115  -0.5064  -0.5585  -0.8297  -0.6129  -0.5277
 -0.5571  -0.7615  -0.6593  -0.6382  -0.4506  -0.4770  -0.4747  -0.4874
 -0.5151  -0.4548  -0.4575  -0.4864  -0.4418  -0.4085  -0.4130  -0.4535
 -0.4316  -0.4104  -0.4394  -0.4644  -0.3939  -0.4162  -0.4373  -0.4232
 -0.3910  -0.3734  -0.3392  -0.4199  -0.4686
 -- Virtual --
  0.1129   0.1336   0.1508   0.1572   0.1587   0.1610   0.1658   0.1807
  0.1887   0.1907   0.1946   0.1989   0.1998   0.2079   0.2133   0.2139
  0.2171   0.2210   0.2232   0.2287   0.2305   0.2311   0.2342   0.2365
  0.2391   0.2397   0.2417   0.2433   0.2464   0.2477   0.2487   0.2500
  0.2512   0.2532   0.2554   0.2562   0.2579   0.2605   0.2618   0.2626
  0.2630   0.2658   0.2674   0.2689   0.2690   0.2729   0.2734   0.2759
  0.2782   0.2798   0.2801   0.2809   0.2829   0.2842   0.2848   0.2857
  0.2865   0.2873   0.2886   0.2901   0.2907   0.2920   0.2936   0.2951
  0.2960   0.2969   0.2979   0.2985   0.3000   0.3006   0.3020   0.3028
  0.3047   0.3055   0.3067   0.3076   0.3086   0.3090   0.3095   0.3114
  0.3118   0.3139   0.3142   0.3146   0.3162   0.3176   0.3195   0.3201
  0.3212   0.3220   0.3224   0.3227   0.3234   0.3238   0.3251   0.3257
  0.3271   0.3283   0.3288   0.3299   0.3321   0.3331   0.3335   0.3355
  0.3359   0.3364   0.3376   0.3388   0.3394   0.3416   0.3420   0.3426
  0.3434   0.3447   0.3456   0.3465   0.3476   0.3481   0.3487   0.3499
  0.3514   0.3520   0.3529   0.3543   0.3547   0.3549   0.3561   0.3564
  0.3581   0.3592   0.3606   0.3614   0.3625   0.3635   0.3637   0.3649
  0.3658   0.3665   0.3674   0.3680   0.3688   0.3707   0.3717   0.3734
  0.3744   0.3750   0.3764   0.3773   0.3783   0.3796   0.3815   0.3832
  0.3848   0.3851   0.3865   0.3874   0.3888   0.3898   0.3900   0.3923
  0.3942   0.3945   0.3951   0.3966   0.3974   0.3995   0.4000   0.4010
  0.4016   0.4031   0.4039   0.4046   0.4058   0.4077   0.4098   0.4113
  0.4119   0.4141   0.4147   0.4163   0.4173   0.4188   0.4190   0.4210
  0.4223   0.4223   0.4252   0.4268   0.4269   0.4274   0.4283   0.4315
  0.4324   0.4330   0.4352   0.4356   0.4370   0.4387   0.4388   0.4415
  0.4418   0.4451   0.4455   0.4464   0.4483   0.4506   0.4511   0.4520
  0.4529   0.4541   0.4548   0.4560   0.4573   0.4591   0.4623   0.4633
  0.4664   0.4666   0.4681   0.4700   0.4705   0.4748   0.4774   0.4787
  0.4808   0.4817   0.4841   0.4844   0.4878   0.4901   0.4920   0.4931
  0.4944   0.4973   0.5005   0.5033   0.5040   0.5053   0.5068   0.5091
  0.5095   0.5148   0.5153   0.5203   0.5240   0.5249   0.5278   0.5296
  0.5335   0.5354   0.5424   0.5442   0.5481   0.5528   0.5581   0.5638
  0.5668   0.5712   0.5781   0.5833   0.5874   0.6000   0.6043   0.6058
  0.6077   0.6096   0.6174   0.6189   0.6245   0.6317   0.6397   0.6411
  0.6427   0.6455   0.6467   0.6480   0.6489   0.6565   0.6582   0.6612
  0.6628   0.6637   0.6652   0.6671   0.6685   0.6708   0.6739   0.6746
  0.6765   0.6795   0.6818   0.6830   0.6838   0.6852   0.6878   0.6894
  0.6898   0.6924   0.6942   0.6952   0.6968   0.7001   0.7018   0.7027
  0.7039   0.7045   0.7062   0.7065   0.7087   0.7098   0.7100   0.7151
  0.7166   0.7168   0.7190   0.7208   0.7213   0.7247   0.7268   0.7282
  0.7298   0.7309   0.7321   0.7335   0.7356   0.7378   0.7392   0.7396
  0.7418   0.7439   0.7445   0.7455   0.7465   0.7481   0.7497   0.7524
  0.7534   0.7545   0.7554   0.7579   0.7591   0.7599   0.7610   0.7618
  0.7656   0.7663   0.7681   0.7698   0.7705   0.7716   0.7739   0.7742
  0.7756   0.7757   0.7785   0.7793   0.7816   0.7847   0.7860   0.7867
  0.7884   0.7902   0.7921   0.7932   0.7961   0.7966   0.7971   0.7990
  0.8007   0.8012   0.8031   0.8035   0.8052   0.8062   0.8076   0.8093
  0.8106   0.8131   0.8148   0.8150   0.8175   0.8183   0.8193   0.8224
  0.8232   0.8247   0.8276   0.8300   0.8312   0.8314   0.8340   0.8373
  0.8388   0.8391   0.8414   0.8440   0.8464   0.8470   0.8480   0.8490
  0.8492   0.8497   0.8553   0.8559   0.8575   0.8594   0.8607   0.8609
  0.8632   0.8640   0.8670   0.8680   0.8694   0.8700   0.8721   0.8730
  0.8737   0.8756   0.8778   0.8787   0.8813   0.8821   0.8841   0.8856
  0.8873   0.8879   0.8897   0.8910   0.8941   0.8950   0.8961   0.8993
  0.9003   0.9025   0.9052   0.9066   0.9072   0.9096   0.9096   0.9105
  0.9111   0.9123   0.9134   0.9150   0.9158   0.9165   0.9181   0.9216
  0.9229   0.9255   0.9265   0.9285   0.9305   0.9334   0.9353   0.9360
  0.9376   0.9387   0.9401   0.9437   0.9470   0.9480   0.9497   0.9509
  0.9526   0.9550   0.9556   0.9573   0.9597   0.9611   0.9636   0.9654
  0.9671   0.9687   0.9712   0.9720   0.9737   0.9750   0.9760   0.9779
  0.9789   0.9804   0.9815   0.9858   0.9875   0.9898   0.9907   0.9955
  0.9967   0.9984   0.9997   1.0010   1.0036   1.0058   1.0061   1.0102
  1.0112   1.0133   1.0136   1.0146   1.0162   1.0186   1.0200   1.0212
  1.0216   1.0226   1.0266   1.0283   1.0295   1.0304   1.0329   1.0341
  1.0354   1.0374   1.0381   1.0388   1.0402   1.0422   1.0431   1.0440
  1.0469   1.0479   1.0484   1.0497   1.0509   1.0526   1.0533   1.0550
  1.0555   1.0557   1.0570   1.0581   1.0592   1.0605   1.0608   1.0620
  1.0641   1.0653   1.0661   1.0670   1.0680   1.0688   1.0695   1.0708
  1.0726   1.0737   1.0744   1.0758   1.0767   1.0776   1.0781   1.0796
  1.0810   1.0828   1.0836   1.0848   1.0858   1.0873   1.0877   1.0894
  1.0903   1.0910   1.0926   1.0927   1.0955   1.0961   1.0965   1.0970
  1.0989   1.0997   1.1003   1.1020   1.1024   1.1038   1.1057   1.1069
  1.1072   1.1076   1.1104   1.1108   1.1120   1.1138   1.1145   1.1155
  1.1173   1.1181   1.1199   1.1215   1.1219   1.1238   1.1246   1.1257
  1.1268   1.1279   1.1293   1.1305   1.1320   1.1329   1.1346   1.1359
  1.1366   1.1383   1.1387   1.1393   1.1411   1.1421   1.1423   1.1439
  1.1446   1.1458   1.1464   1.1483   1.1504   1.1512   1.1522   1.1537
  1.1552   1.1580   1.1587   1.1599   1.1611   1.1631   1.1644   1.1655
  1.1673   1.1679   1.1689   1.1698   1.1714   1.1732   1.1741   1.1748
  1.1766   1.1779   1.1796   1.1829   1.1844   1.1857   1.1866   1.1880
  1.1884   1.1920   1.1925   1.1932   1.1952   1.1975   1.1995   1.2019
  1.2026   1.2049   1.2071   1.2093   1.2097   1.2116   1.2145   1.2173
  1.2195   1.2203   1.2219   1.2234   1.2276   1.2287   1.2304   1.2337
  1.2374   1.2381   1.2400   1.2424   1.2446   1.2459   1.2464   1.2520
  1.2540   1.2547   1.2561   1.2579   1.2610   1.2627   1.2635   1.2658
  1.2689   1.2724   1.2734   1.2752   1.2784   1.2809   1.2834   1.2847
  1.2857   1.2926   1.2930   1.2944   1.2964   1.2997   1.3036   1.3063
  1.3069   1.3091   1.3100   1.3138   1.3161   1.3175   1.3198   1.3231
  1.3249   1.3294   1.3304   1.3325   1.3364   1.3380   1.3400   1.3440
  1.3462   1.3466   1.3491   1.3510   1.3570   1.3579   1.3594   1.3620
  1.3650   1.3652   1.3695   1.3708   1.3725   1.3755   1.3770   1.3783
  1.3829   1.3853   1.3913   1.3934   1.4000   1.4010   1.4043   1.4047
  1.4076   1.4092   1.4133   1.4140   1.4167   1.4191   1.4217   1.4271
  1.4274   1.4308   1.4343   1.4369   1.4383   1.4395   1.4430   1.4467
  1.4522   1.4568   1.4603   1.4688   1.4718   1.4774   1.4792   1.4827
  1.4868   1.4924   1.4946   1.4962   1.4999   1.5056   1.5110   1.5130
  1.5157   1.5196   1.5203   1.5247   1.5276   1.5307   1.5333   1.5352
  1.5392   1.5423   1.5466   1.5475   1.5516   1.5569   1.5642   1.5650
  1.5679   1.5725   1.5733   1.5759   1.5769   1.5798   1.5844   1.5908
  1.5939   1.5964   1.5971   1.5988   1.6052   1.6062   1.6071   1.6098
  1.6119   1.6140   1.6161   1.6179   1.6190   1.6214   1.6238   1.6246
  1.6268   1.6273   1.6281   1.6308   1.6325   1.6328   1.6340   1.6356
  1.6373   1.6393   1.6411   1.6436   1.6452   1.6466   1.6487   1.6554
  1.6582   1.6587   1.6616   1.6652   1.6668   1.6695   1.6711   1.6725
  1.6750   1.6768   1.6787   1.6830   1.6854   1.6873   1.6903   1.6927
  1.6950   1.6963   1.7011   1.7029   1.7052   1.7065   1.7096   1.7106
  1.7124   1.7136   1.7164   1.7176   1.7253   1.7290   1.7337   1.7356
  1.7391   1.7408   1.7475   1.7515   1.7540   1.7671   1.7791   1.7837
  1.7883   1.7891   1.7907   1.7933   1.7970   1.8011   1.8087   1.8139
  1.8151   1.8173   1.8194   1.8265   1.8365   1.8383   1.8424   1.8440
  1.8525   1.8571   1.8688   1.8688   1.8701   1.8720   1.8733   1.8760
  1.8808   1.8823   1.8857   1.8882   1.8918   1.8967   1.9017   1.9040
  1.9064   1.9075   1.9090   1.9101   1.9121   1.9136   1.9172   1.9194
  1.9197   1.9235   1.9272   1.9285   1.9312   1.9345   1.9375   1.9421
  1.9426   1.9457   1.9491   1.9578   1.9579   1.9599   1.9634   1.9653
  1.9720   1.9723   1.9746   1.9767   1.9794   1.9797   1.9818   1.9840
  1.9869   1.9871   1.9907   1.9913   1.9916   1.9922   1.9943   1.9962
  1.9978   2.0017   2.0037   2.0056   2.0065   2.0088   2.0113   2.0160
  2.0189   2.0198   2.0240   2.0252   2.0348   2.0368   2.0388   2.0409
  2.0423   2.0427   2.0441   2.0484   2.0500   2.0543   2.0561   2.0576
  2.0592   2.0672   2.0721   2.0727   2.0751   2.0787   2.0819   2.0842
  2.0851   2.0866   2.0896   2.0919   2.0938   2.0944   2.0976   2.1015
  2.1060   2.1079   2.1146   2.1156   2.1173   2.1186   2.1197   2.1206
  2.1222   2.1236   2.1249   2.1273   2.1283   2.1305   2.1316   2.1336
  2.1339   2.1363   2.1372   2.1390   2.1415   2.1428   2.1431   2.1456
  2.1464   2.1497   2.1514   2.1523   2.1539   2.1550   2.1567   2.1600
  2.1623   2.1632   2.1637   2.1649   2.1694   2.1721   2.1743   2.1755
  2.1769   2.1797   2.1812   2.1831   2.1841   2.1863   2.1874   2.1891
  2.1921   2.1941   2.1948   2.1977   2.1995   2.2013   2.2022   2.2049
  2.2072   2.2083   2.2123   2.2131   2.2145   2.2179   2.2198   2.2222
  2.2232   2.2252   2.2270   2.2329   2.2356   2.2369   2.2379   2.2419
  2.2420   2.2432   2.2451   2.2488   2.2500   2.2560   2.2586   2.2596
  2.2629   2.2656   2.2752   2.2781   2.2795   2.2826   2.2874   2.2886
  2.2908   2.2912   2.2924   2.2972   2.2993   2.3011   2.3050   2.3074
  2.3100   2.3126   2.3143   2.3148   2.3176   2.3196   2.3217   2.3237
  2.3265   2.3266   2.3281   2.3311   2.3321   2.3349   2.3387   2.3397
  2.3436   2.3474   2.3502   2.3539   2.3551   2.3565   2.3572   2.3590
  2.3690   2.3730   2.3759   2.3772   2.3777   2.3823   2.3853   2.3890
  2.3894   2.3951   2.3960   2.3993   2.3997   2.4010   2.4036   2.4094
  2.4181   2.4198   2.4225   2.4231   2.4262   2.4304   2.4316   2.4333
  2.4336   2.4373   2.4384   2.4394   2.4411   2.4421   2.4441   2.4457
  2.4468   2.4488   2.4513   2.4533   2.4547   2.4575   2.4587   2.4616
  2.4633   2.4649   2.4651   2.4666   2.4679   2.4696   2.4727   2.4730
  2.4741   2.4754   2.4768   2.4775   2.4779   2.4795   2.4813   2.4833
  2.4844   2.4882   2.4887   2.4926   2.4943   2.4968   2.4984   2.4989
  2.5033   2.5054   2.5055   2.5073   2.5074   2.5089   2.5114   2.5160
  2.5191   2.5205   2.5231   2.5259   2.5301   2.5316   2.5326   2.5335
  2.5373   2.5387   2.5419   2.5424   2.5453   2.5457   2.5473   2.5527
  2.5528   2.5566   2.5598   2.5608   2.5629   2.5663   2.5705   2.5725
  2.5742   2.5829   2.5861   2.5923   2.5971   2.5982   2.5997   2.6049
  2.6082   2.6145   2.6192   2.6223   2.6275   2.6362   2.6373   2.6470
  2.6524   2.6548   2.6588   2.6692   2.6705   2.6754   2.6779   2.6809
  2.6826   2.6843   2.6878   2.6937   2.6960   2.6973   2.6998   2.7020
  2.7054   2.7101   2.7107   2.7113   2.7131   2.7177   2.7215   2.7231
  2.7260   2.7307   2.7354   2.7368   2.7412   2.7451   2.7490   2.7573
  2.7593   2.7672   2.7679   2.7742   2.7775   2.7780   2.7810   2.7813
  2.7840   2.7876   2.7909   2.8009   2.8048   2.8072   2.8166   2.8215
  2.8237   2.8278   2.8315   2.8353   2.8360   2.8426   2.8483   2.8541
  2.8575   2.8595   2.8597   2.8615   2.8639   2.8666   2.8684   2.8789
  2.8813   2.8848   2.8851   2.8869   2.8904   2.8947   2.8991   2.9022
  2.9071   2.9094   2.9144   2.9183   2.9214   2.9282   2.9313   2.9337
  2.9372   2.9399   2.9435   2.9447   2.9486   2.9498   2.9548   2.9569
  2.9617   2.9669   2.9686   2.9774   2.9893   2.9916   2.9941   3.0062
  3.0077   3.0244   3.0352   3.0511   3.0521   3.0537   3.0676   3.0734
  3.0853   3.0882   3.0935   3.1044   3.1185   3.1302   3.1409   3.1458
  3.1511   3.1558   3.1632   3.2075   3.2153   3.2189   3.2243   3.2304
  3.2401   3.2642   3.2707   3.2754   3.3088   3.3130   3.3221   3.3314
  3.3611   3.3779   3.3831   3.4664   3.6014   3.6174   3.6660   3.9926
  4.1280   4.1491   4.1553   4.1921   4.2080   4.2101   4.2520   4.3041
  4.3176   4.3225   4.3296   4.3366   4.3373   4.3419   4.3439   4.3563
  4.3606   4.3628   4.3684   4.3699   4.3735   4.3825   4.3853   4.3896
  4.3967   4.3981   4.4007   4.4040   4.4085   4.4111   4.4137   4.4158
  4.4243   4.4275   4.4413   4.4502   4.4579   4.4652   4.4809   4.4830
  4.4853   4.4946   4.5064   4.5082   4.5141   4.5156   4.5178   4.5236
  4.5274   4.5325   4.5411   4.5444   4.5480   4.5511   4.5542   4.5570
  4.5647   4.5727   4.5746   4.5794   4.5893   4.5908   4.5967   4.6071
  4.6116   4.6182   4.6259   4.6341   4.6386   4.6508   4.6623   4.6659
  4.6818   4.6870   4.6988   4.6996   4.7115   4.7140   4.7220   4.7295
  4.7549   4.7669   4.7752   4.7824   4.7872   4.8031   4.8117   4.8243
  4.8256   4.8324   4.8364   4.8780   4.9162   4.9436   4.9530   4.9571
  4.9891   5.0293   5.0480   5.0728
 --------------------------------------------------------------
 
          Ground-State Mulliken Net Atomic Charges

     Atom                 Charge (a.u.)
  ----------------------------------------
      1 C                     0.476098
      2 O                    -0.551376
      3 C                    -0.290848
      4 C                     0.164677
      5 C                    -0.196494
      6 C                    -0.312576
      7 C                    -0.391050
      8 C                    -0.395501
      9 C                    -0.314820
     10 C                    -0.160139
     11 C                    -0.137762
     12 C                    -0.126219
     13 C                    -0.017312
     14 C                    -0.292825
     15 C                    -0.318934
     16 C                    -0.318444
     17 C                    -0.317007
     18 C                     0.143823
     19 C                    -0.545985
     20 O                    -0.690590
     21 H                     0.174733
     22 H                     0.207341
     23 H                     0.154828
     24 H                     0.156266
     25 H                     0.183030
     26 H                     0.187669
     27 H                     0.159276
     28 H                     0.251532
     29 H                     0.147706
     30 H                     0.173608
     31 H                     0.191645
     32 H                     0.134313
     33 H                     0.128686
     34 H                     0.151645
     35 H                     0.146378
     36 H                     0.145598
     37 H                     0.149945
     38 H                     0.178094
     39 H                     0.149811
     40 H                     0.137774
     41 H                     0.143879
     42 H                     0.151598
     43 H                     0.155003
     44 H                     0.151867
     45 H                     0.200833
     46 H                     0.433853
     47 H                     0.157917
     48 C                    -0.479557
     49 H                     0.152997
     50 C                    -0.337847
     51 H                     0.163772
     52 H                     0.175133
     53 C                     0.102240
     54 C                    -0.202899
     55 H                     0.146975
     56 C                    -0.220779
     57 H                     0.138059
     58 C                     0.344760
     59 O                    -0.650779
     60 H                     0.414910
     61 C                    -0.194183
     62 H                     0.177534
     63 C                    -0.201699
     64 H                     0.182068
     65 H                     0.157149
     66 H                     0.145819
     67 C                    -0.453859
     68 H                     0.132549
     69 C                    -0.114480
     70 H                     0.134368
     71 C                    -0.465444
     72 H                     0.152201
     73 H                     0.162980
     74 H                     0.146890
     75 C                    -0.462706
     76 H                     0.149189
     77 H                     0.157591
     78 H                     0.159397
     79 H                     0.139654
     80 H                     0.134359
     81 C                    -0.463199
     82 H                     0.145810
     83 C                    -0.364384
     84 H                     0.131332
     85 H                     0.177340
     86 C                     0.595018
     87 O                    -0.630564
     88 O                    -0.580509
     89 H                     0.167404
     90 H                     0.153538
     91 C                    -0.566663
     92 H                     0.201912
     93 H                     0.221209
     94 C                     0.598748
     95 O                    -0.508496
     96 N                    -0.609892
     97 H                     0.336038
     98 C                    -0.166465
     99 H                     0.215117
    100 C                    -0.291423
    101 H                     0.132278
    102 H                     0.147609
    103 C                    -0.110965
    104 H                     0.142053
    105 C                    -0.475395
    106 H                     0.141906
    107 H                     0.179272
    108 H                     0.137979
    109 C                    -0.503470
    110 H                     0.192169
    111 H                     0.174889
    112 H                     0.144623
    113 H                     0.156585
    114 H                     0.137772
    115 C                    -0.464048
    116 H                     0.166023
    117 C                    -0.111695
    118 H                     0.119136
    119 C                    -0.479605
    120 H                     0.178358
    121 H                     0.164337
    122 H                     0.135462
    123 C                    -0.477853
    124 H                     0.135035
    125 H                     0.178429
    126 H                     0.168783
    127 H                     0.139404
    128 H                     0.155871
    129 C                    -0.458753
    130 H                     0.142113
    131 C                    -0.345965
    132 H                     0.149123
    133 H                     0.151778
    134 C                     0.118073
    135 C                    -0.210404
    136 H                     0.140498
    137 C                    -0.156941
    138 H                     0.152615
    139 C                    -0.174827
    140 H                     0.189774
    141 C                    -0.158293
    142 H                     0.184198
    143 C                    -0.198325
    144 H                     0.133436
    145 H                     0.164214
    146 H                     0.140401
    147 C                    -0.465841
    148 H                     0.154072
    149 C                    -0.127395
    150 H                     0.168637
    151 C                    -0.474512
    152 H                     0.141196
    153 H                     0.162989
    154 H                     0.156005
    155 C                    -0.484012
    156 H                     0.158816
    157 H                     0.171930
    158 H                     0.148645
    159 H                     0.145253
    160 H                     0.172171
    161 C                    -0.471608
    162 H                     0.147124
    163 C                    -0.272923
    164 H                     0.148108
    165 H                     0.162020
    166 C                    -0.495241
    167 H                     0.169412
    168 H                     0.259198
    169 S                     0.087169
    170 C                    -0.632294
    171 H                     0.191518
    172 H                     0.196310
    173 H                     0.178349
    174 H                     0.140825
    175 H                     0.141861
    176 C                    -0.467315
    177 H                     0.151735
    178 C                    -0.273686
    179 H                     0.137865
    180 H                     0.135236
    181 C                    -0.117124
    182 H                     0.134421
    183 C                    -0.469910
    184 H                     0.143493
    185 H                     0.173784
    186 H                     0.135979
    187 C                    -0.478448
    188 H                     0.142589
    189 H                     0.177637
    190 H                     0.166271
    191 H                     0.145516
    192 H                     0.141041
    193 C                    -0.463957
    194 H                     0.154295
    195 C                    -0.108766
    196 H                     0.143924
    197 C                    -0.470855
    198 H                     0.138449
    199 H                     0.178368
    200 H                     0.133752
    201 C                    -0.477973
    202 H                     0.148696
    203 H                     0.158405
    204 H                     0.165814
    205 H                     0.134535
    206 H                     0.159123
    207 C                    -0.464737
    208 H                     0.181838
    209 C                    -0.388535
    210 H                     0.176490
    211 H                     0.191055
    212 C                     0.584616
    213 O                    -0.475723
    214 O                    -0.620909
    215 H                     0.470403
    216 H                     0.143444
    217 H                     0.142716
    218 C                    -0.467727
    219 H                     0.136378
    220 C                    -0.266314
    221 H                     0.139367
    222 H                     0.170108
    223 C                    -0.452227
    224 H                     0.163598
    225 H                     0.190368
    226 S                     0.057777
    227 C                    -0.650242
    228 H                     0.169399
    229 H                     0.253249
    230 H                     0.188651
    231 H                     0.175004
    232 H                     0.177026
    233 C                    -0.476728
    234 H                     0.136737
    235 C                    -0.506318
    236 H                     0.181164
    237 H                     0.161464
    238 H                     0.160942
    239 H                     0.150368
    240 H                     0.153890
    241 C                    -0.456737
    242 H                     0.136540
    243 C                    -0.345814
    244 H                     0.155073
    245 H                     0.147251
    246 C                     0.007075
    247 C                    -0.004318
    248 H                     0.172851
    249 N                    -0.725159
    250 H                     0.426154
    251 C                     0.269749
    252 C                    -0.179891
    253 H                     0.176078
    254 C                    -0.184047
    255 H                     0.136526
    256 C                    -0.180813
    257 H                     0.125215
    258 C                    -0.203693
    259 H                     0.133174
    260 C                     0.028556
    261 H                     0.154276
    262 O                    -0.867997
    263 H                     0.403803
    264 H                     0.411450
  ----------------------------------------
  Sum of atomic charges =    -1.000000

 -----------------------------------------------------------------
                    Cartesian Multipole Moments
 -----------------------------------------------------------------
    Charge (ESU x 10^10)
                -4.8032
    Dipole Moment (Debye)
         X     -11.7503      Y       7.9087      Z       7.3901
       Tot      15.9760
    Quadrupole Moments (Debye-Ang)
        XX    -751.0376     XY     -27.3691     YY    -700.3599
        XZ      67.1336     YZ     -16.2818     ZZ    -714.9582
    Octopole Moments (Debye-Ang^2)
       XXX    -160.8528    XXY     132.5791    XYY    -348.2883
       YYY     367.3847    XXZ     117.9862    XYZ     139.5541
       YYZ       7.3256    XZZ    -393.0493    YZZ     150.5680
       ZZZ     -44.7555
    Hexadecapole Moments (Debye-Ang^3)
      XXXX  -87761.1656   XXXY   -1345.2264   XXYY  -25065.1436
      XYYY    -258.7533   YYYY  -67832.4543   XXXZ    2986.9662
      XXYZ    -284.1676   XYYZ     871.7475   YYYZ    -121.8984
      XXZZ  -20685.6282   XYZZ    -570.2785   YYZZ  -17009.7115
      XZZZ    2415.3043   YZZZ    -474.7356   ZZZZ  -34477.2622
 -----------------------------------------------------------------
 Total job time:  6174.64s(wall), 48363.79s(cpu) 
 Tue Aug  6 14:42:04 2024

        *************************************************************
        *                                                           *
        *  Thank you very much for using Q-Chem.  Have a nice day.  *
        *                                                           *
        *************************************************************



Running Job 2 of 2 19nt_xstal_distance_cutoff3_optimized_spade_wb97x-v_631gd.in
qchem 19nt_xstal_distance_cutoff3_optimized_spade_wb97x-v_631gd.in_3956219.1 ./qchem3956219/ 1
srun -n 1 /cm/shared/apps/spack/0.17.3/cpu/b/opt/spack/linux-rocky8-zen2/gcc-10.2.0/qchem-6.0-rytxnwjazd34ekd2gqyi5ufsaimxsd3r/exe/qcprog.exe 19nt_xstal_distance_cutoff3_optimized_spade_wb97x-v_631gd.in_3956219.1 ./qchem3956219/

                  Welcome to Q-Chem
     A Quantum Leap Into The Future Of Chemistry


 Q-Chem 6.0, Q-Chem, Inc., Pleasanton, CA (2022)

 License issued to: University of California, San Diego (site)

 E. Epifanovsky,  A. T. B. Gilbert,  Xintian Feng,  Joonho Lee,  Yuezhi Mao,  
 N. Mardirossian,  P. Pokhilko,  A. White,  M. Wormit,  M. P. Coons,  
 A. L. Dempwolff,  Zhengting Gan,  D. Hait,  P. R. Horn,  L. D. Jacobson,  
 I. Kaliman,  J. Kussmann,  A. W. Lange,  Ka Un Lao,  D. S. Levine,  Jie Liu,  
 S. C. McKenzie,  A. F. Morrison,  K. Nanda,  F. Plasser,  D. R. Rehn,  
 M. L. Vidal,  Zhi-Qiang You,  Ying Zhu,  B. Alam,  B. Albrecht,  
 A. Aldossary,  E. Alguire,  J. H. Andersen,  V. Athavale,  D. Barton,  
 K. Begam,  A. Behn,  N. Bellonzi,  Y. A. Bernard,  E. J. Berquist,  
 H. Burton,  A. Carreras,  K. Carter-Fenk,  Romit Chakraborty,  
 Chandrima Chakravarty,  Junhan Chen,  A. D. Chien,  K. D. Closser,  
 V. Cofer-Shabica,  L. Cunha,  S. Dasgupta,  Jia Deng,  M. de Wergifosse,  
 M. Diedenhofen,  Hainam Do,  S. Ehlert,  Po-Tung Fang,  S. Fatehi,  
 Qingguo Feng,  T. Friedhoff,  B. Ganoe,  J. Gayvert,  Qinghui Ge,  
 G. Gidofalvi,  M. Goldey,  J. Gomes,  C. Gonzalez-Espinoza,  S. Gulania,  
 A. Gunina,  J. A. Gyamfi,  M. W. D. Hanson-Heine,  P. H. P. Harbach,  
 A. W. Hauser,  M. F. Herbst,  M. Hernandez Vera,  M. Hodecker,  
 Z. C. Holden,  S. Houck,  Xunkun Huang,  Kerwin Hui,  B. C. Huynh,  
 K. Ikeda,  M. Ivanov,  Hyunjun Ji,  Zuxin Jin,  Hanjie Jiang,  B. Kaduk,  
 S. Kaehler,  R. Kang,  K. Khistyaev,  Jaehoon Kim,  Yongbin Kim,  
 P. Klunzinger,  Z. Koczor-Benda,  Joong Hoon Koh,  D. Kosenkov,  
 Saikiran Kotaru,  L. Koulias,  T. Kowalczyk,  C. M. Krauter,  K. Kue,  
 A. Kunitsa,  T. Kus,  A. Landau,  K. V. Lawler,  D. Lefrancois,  S. Lehtola,  
 Rain Li,  Shaozhi Li,  Yi-Pei Li,  Jiashu Liang,  M. Liebenthal,  
 Hung-Hsuan Lin,  You-Sheng Lin,  Fenglai Liu,  Kuan-Yu Liu,  
 M. Loipersberger,  A. Luenser,  C. Malbon,  A. Manjanath,  P. Manohar,  
 E. Mansoor,  S. F. Manzer,  Shan-Ping Mao,  A. V. Marenich,  T. Markovich,  
 S. Mason,  F. Matz,  S. A. Maurer,  P. F. McLaughlin,  M. F. S. J. Menger,  
 J.-M. Mewes,  S. A. Mewes,  P. Morgante,  Mohammad Mostafanejad,  
 J. W. Mullinax,  K. J. Oosterbaan,  G. Paran,  V. Parravicini,  
 Alexander C. Paul,  Suranjan K. Paul,  F. Pavosevic,  Zheng Pei,  S. Prager,  
 E. I. Proynov,  E. Ramos,  B. Rana,  A. E. Rask,  A. Rettig,  R. M. Richard,  
 F. Rob,  E. Rossomme,  T. Scheele,  M. Scheurer,  M. Schneider,  
 P. E. Schneider,  N. Sergueev,  S. M. Sharada,  Hengyuan Shen,  
 W. Skomorowski,  D. W. Small,  C. J. Stein,  Yingli Su,  Yu-Chuan Su,  
 E. J. Sundstrom,  Zhen Tao,  J. Thirman,  Hung-Yi Tsai,  T. Tsuchimochi,  
 N. M. Tubman,  C. Utku,  S. P. Veccham,  O. Vydrov,  J. Wenzel,  
 Jonathan Wong,  J. Witte,  A. Yamada,  Chou-Hsun Yang,  Kun Yao,  
 S. Yeganeh,  S. R. Yost,  A. Zech,  F. Zeller,  Igor Ying Zhang,  
 Xing Zhang,  Yu Zhang,  D. Zuev,  A. Aspuru-Guzik,  A. T. Bell,  
 N. A. Besley,  K. B. Bravaya,  B. R. Brooks,  D. Casanova,  Jeng-Da Chai,  
 Hsing-Ta Chen,  S. Coriani,  C. J. Cramer,  A. E. DePrince, III,  
 R. A. DiStasio Jr.,  A. Dreuw,  B. D. Dunietz,  T. R. Furlani,  
 W. A. Goddard III,  S. Grimme,  S. Hammes-Schiffer,  T. Head-Gordon,  
 W. J. Hehre,  Chao-Ping Hsu,  T.-C. Jagau,  Yousung Jung,  A. Klamt,  
 Jing Kong,  D. S. Lambrecht,  Xiangyuan Li,  WanZhen Liang,  N. J. Mayhall,  
 C. W. McCurdy,  J. B. Neaton,  T. Neudecker,  C. Ochsenfeld,  
 J. A. Parkhill,  R. Peverati,  V. A. Rassolov,  Haisheng Ren,  Yihan Shao,  
 L. V. Slipchenko,  R. P. Steele,  J. E. Subotnik,  A. J. W. Thom,  
 A. Tkatchenko,  D. G. Truhlar,  T. Van Voorhis,  Fan Wang,  
 T. A. Wesolowski,  K. B. Whaley,  H. L. Woodcock III,  P. M. Zimmerman,  
 S. Faraji,  P. M. W. Gill,  M. Head-Gordon,  J. M. Herbert,  A. I. Krylov

 Contributors to earlier versions of Q-Chem not listed above: 
 R. D. Adamson,  B. Austin,  R. Baer,  J. Baker,  G. J. O. Beran,  
 K. Brandhorst,  S. T. Brown,  E. F. C. Byrd,  Arup K. Chakraborty,  
 G. K. L. Chan,  Chun-Min Chang,  Yunqing Chen,  C.-L. Cheng,  
 Siu Hung Chien,  D. M. Chipman,  D. L. Crittenden,  H. Dachsel,  
 R. J. Doerksen,  A. D. Dutoi,  R. G. Edgar,  J. Fosso-Tande,  
 L. Fusti-Molnar,  D. Ghosh,  A. Ghysels,  A. Golubeva-Zadorozhnaya,  
 J. Gonthier,  M. S. Gordon,  S. R. Gwaltney,  G. Hawkins,  J. E. Herr,  
 A. Heyden,  S. Hirata,  E. G. Hohenstein,  G. Kedziora,  F. J. Keil,  
 C. Kelley,  Jihan Kim,  R. A. King,  R. Z. Khaliullin,  P. P. Korambath,  
 W. Kurlancheek,  A. Laurent,  A. M. Lee,  M. S. Lee,  S. V. Levchenko,  
 Ching Yeh Lin,  D. Liotard,  E. Livshits,  R. C. Lochan,  I. Lotan,  
 L. A. Martinez-Martinez,  P. E. Maslen,  N. Nair,  D. P. O'Neill,  
 D. Neuhauser,  E. Neuscamman,  C. M. Oana,  R. Olivares-Amaya,  R. Olson,  
 T. M. Perrine,  B. Peters,  P. A. Pieniazek,  A. Prociuk,  Y. M. Rhee,  
 J. Ritchie,  M. A. Rohrdanz,  E. Rosta,  N. J. Russ,  H. F. Schaefer III,  
 M. W. Schmidt,  N. E. Schultz,  S. Sharma,  N. Shenvi,  C. D. Sherrill,  
 A. C. Simmonett,  A. Sodt,  T. Stein,  D. Stuck,  K. S. Thanthiriwatte,  
 V. Vanovschi,  L. Vogt,  Tao Wang,  A. Warshel,  M. A. Watson,  
 C. F. Williams,  Q. Wu,  X. Xu,  Jun Yang,  W. Zhang,  Yan Zhao

   Please cite Q-Chem as follows:
  "Software for the frontiers of quantum chemistry:
   An overview of developments in the Q-Chem 5 package"
   J. Chem. Phys. 155, 084801 (2021)
   https://doi.org/10.1063/5.0055522 (open access)

 Q-Chem 6.0.2 for Intel X86 EM64T Linux

 Parts of Q-Chem use Armadillo 9.900.5 (Nocturnal Misbehaviour).
 http://arma.sourceforge.net/

 Q-Chem begins on Tue Aug  6 14:42:09 2024  

 Host: 
0

     Scratch files written to ./qchem3956219//
 Dec722 |scratch|qcdevops|jenkins|workspace|build_RNUM    
 Processing $rem in /cm/shared/apps/spack/0.17.3/cpu/b/opt/spack/linux-rocky8-zen2/gcc-10.2.0/qchem-6.0-rytxnwjazd34ekd2gqyi5ufsaimxsd3r/config/preferences:
 Processing $rem in /home/hklem/.qchemrc:

 Checking the input file for inconsistencies... 	...done.

--------------------------------------------------------------
User input:
--------------------------------------------------------------

$molecule
-1 1
@C    2.54700    2.83500    0.06500
@O    3.55400    3.54300    0.19400
@C    2.60000    1.39700    -0.10700
@C    1.51100    0.65100    -0.41600
@C    0.14300    1.28900    -0.54900
@C    0.05300    2.54000    0.32700
@C    1.19400    3.50000    0.02400
@C    1.68800    -0.79400   -0.77600
@C    0.44500    -1.67800   -0.66700
@C    -0.78600   -0.94700   -1.20100
@C    -1.01600   0.30000    -0.31600
@C    -2.03700   -1.80900   -1.28100
@C    -3.27500   -1.00500   -1.72400
@C    -3.56200   0.04900    -0.66300
@C    -2.37300   1.00400    -0.52500
@C    -2.03500   -3.02100   -2.22800
@C    -3.53900   -3.29000   -2.50600
@C    -4.31100   -2.13400   -1.81600
@C    -3.09000   -0.34700   -3.10900
@O    -5.55100   -1.82000   -2.42800
@H    3.57800    0.92900    -0.03700
@H    0.08000    1.58400    -1.61100
@H    0.08600    2.24300    1.38500
@H    -0.89900   3.05500    0.17000
@H    1.07600    3.90100    -0.99400
@H    1.21000    4.35500    0.70500
@H    2.53000    -1.21800   -0.21600
@H    2.00300    -0.79500   -1.83100
@H    0.26800    -1.98100   0.37400
@H    0.62700    -2.60000   -1.23100
@H    -0.54200   -0.59800   -2.21000
@H    -0.98200   -0.03900   0.73400
@H    -2.25700   -2.17900   -0.26300
@H    -3.75700   -0.45400   0.29500
@H    -4.47000   0.61400    -0.90600
@H    -2.31000   1.63400    -1.42200
@H    -2.56200   1.68500    0.31300
@H    -1.51900   -3.88500   -1.80400
@H    -1.50500   -2.76500   -3.15400
@H    -3.86500   -4.26100   -2.12000
@H    -3.76500   -3.28400   -3.57800
@H    -4.55400   -2.44000   -0.79000
@H    -3.08800   -1.08800   -3.91500
@H    -3.91100   0.35300    -3.30300
@H    -2.15400   0.21100    -3.19500
@H    -5.48000   -1.00300   -2.94400
H    2.90800    9.11200    5.01800
C    2.09700    9.11000    4.28300
H    1.96500    10.13800   3.92800
C    2.42900    8.15800    3.13400
H    3.38200    8.46300    2.68200
H    2.60500    7.15500    3.54200
C    1.38400    8.05400    2.03900
C    0.18900    8.76800    2.06100
H    -0.02900   9.44600    2.88100
C    -0.76200   8.62800    1.05100
H    -1.69600   9.18400    1.10400
C    -0.52600   7.75900    -0.00800
O    -1.43400   7.54300    -1.00500
H    -2.24400   8.02600    -0.80400
C    0.67600    7.05400    -0.06500
H    0.85400    6.37900    -0.89500
C    1.60800    7.19800    0.95100
H    2.52400    6.61200    0.90400
H    1.18000    8.80800    4.80000
H    -2.79300   7.34000    2.79200
C    -3.23200   6.49600    2.24900
H    -3.02300   6.63900    1.18100
C    -2.64400   5.16400    2.72300
H    -2.87800   5.05100    3.79200
C    -3.27800   3.99200    1.97100
H    -3.06900   4.07400    0.89700
H    -2.87700   3.03200    2.31700
H    -4.36700   3.96700    2.09600
C    -1.12300   5.15400    2.56000
H    -0.65400   5.98800    3.09500
H    -0.68800   4.21900    2.93000
H    -0.85400   5.25500    1.50300
H    -4.32000   6.52300    2.38700
H    6.32800    -2.10800   -5.98900
C    5.31000    -1.72900   -5.84900
H    4.61300    -2.44500   -6.29900
C    4.99800    -1.52000   -4.36700
H    5.07700    -2.46800   -3.82300
H    5.73400    -0.82400   -3.94600
[...]
    3   1.0272018   3.3040973   2.0103615   1.8889120   0.4455952  -1.2133080
          151         152         153         154         155         156
    1  -0.7275996   0.0067004   0.1286114  -2.2552429   0.1170886  -0.2923658
    2   1.0297475   1.2952417   1.2873483   1.1555749  -0.5258641  -2.0622033
    3   0.7922009   2.4694930  -1.0078656   1.1239327   0.5367321   0.7062271
          157         158         159         160         161         162
    1   0.4037711   0.6202861  -0.7712824  -1.2997549  -1.9798665  -3.2781860
    2   0.4611338  -0.1292038  -2.4569603  -0.4918438  -1.2251810  -0.6675163
    3  -1.2837570   2.2662784   1.6653906   2.3436935   0.6225443   0.4460559
          163         164         165         166         167         168
    1  -2.0598939  -2.3559340  -2.4343330  -0.9798774  -0.4389067  -0.3586932
    2  -0.4515797  -1.0661727   1.2180795  -1.0409010  -2.9051463   0.1653239
    3  -0.7498094  -2.2834551  -0.0721700  -1.4572874  -1.5662059  -2.6058689
          169         170         171         172         173         174
    1  -0.7113392  -0.6560966   0.2165808  -0.1292811  -2.1994454  -1.2097134
    2  -0.0608554  -2.0352268  -2.4759234  -1.2276137  -2.5773754  -2.8837198
    3   0.4336382   0.8679276  -0.9312498   2.3706629   1.2129057  -0.0191300
          175         176         177         178         179         180
    1  -2.3007959  -0.8083376   0.4597966  -1.3521798  -1.4742939  -2.2975680
    2  -2.2027380  -1.9381947  -3.1852300  -1.5124234  -2.6771402  -0.1934651
    3   1.0633550   1.3900015   1.0171329   0.1550335  -1.4997358   0.2660150
          181         182         183         184         185         186
    1  -0.3665525  -0.0378135   0.5053288  -0.1678468   1.5782462   0.5756508
    2  -0.9750615   0.0499407  -2.1446306  -3.3257161  -1.0593456  -2.6562394
    3   0.8009446   2.4427084   0.7894731  -0.6840483   0.6414925   2.4149093
          187         188         189         190         191         192
    1  -0.7680543  -1.9367758   0.6593817  -1.3015997  -0.2589105  -0.6813892
    2  -0.3500282   0.6400393   0.4296645  -1.6990773  -0.6539380  -2.1638478
    3  -0.6595756  -0.6112979  -0.3838532  -1.8127863   2.8178675   2.2935153
          193         194         195         196         197         198
    1   0.9874643   1.5147037   0.6507307   0.2259862   1.7871296   2.0517819
    2  -1.7918332  -2.4101175  -0.5425069   0.1327870  -0.2640418  -1.2883551
    3   1.6451456   0.1382338   1.4548968   2.8508870   0.6685497  -0.6970118
          199         200         201         202         203         204
    1   0.9543032   2.9206678  -0.3371245  -1.3945446  -0.5050960   0.3454178
    2   1.1901516  -0.5847452  -0.3886544  -1.1388380   1.3046295  -1.0791918
    3   0.2232041   2.0811128   0.2232309   1.3553141  -0.3775787  -0.9473266
          205         206         207         208         209         210
    1   2.2815589   1.4205373   2.0117567   0.9457970   2.3407413   3.0344618
    2  -1.4407549   0.9200887  -0.3842397  -1.7772773   0.4179842   2.0704556
    3   2.6077864   2.8634430   1.5086302   1.1506814   0.4578836   0.7656233
          211         212         213         214         215         216
    1   2.4808179   1.3921094  -0.3040066   0.6838683  -1.9586300   3.3945413
    2  -0.8077001   0.8076192   0.3553058   2.0004505   2.3820121  -0.7611291
    3  -0.9833089   0.5154489   1.4724228  -0.6505353  -0.2905978   1.0762543
          217         218         219         220         221         222
    1   1.4853389   1.8666424   3.2566623   1.2883155   2.0698336  -0.4947402
    2   2.7920976   1.4677475   0.1713404   1.4444651   1.1387176   2.5473558
    3   0.1901622  -0.6667516  -0.3313005   0.3047336   1.9038613  -0.0878607
          223         224         225         226         227         228
    1   1.9864336   3.6074210   0.9194884   1.3639544  -0.4752426  -0.2963957
    2   0.0019410  -0.9781076  -0.6864200   0.2304483   1.3399771   3.0784104
    3   0.0986777  -0.3621706   0.9599814  -1.8431792  -0.9718234  -1.2553763
          229         230         231         232         233         234
    1  -0.8458163  -0.4318738   1.1000509   2.3639697   2.1072753   3.1926598
    2   0.5216327   0.7166391   1.4055734  -0.5716130  -0.9885199  -0.4904199
    3  -2.1694991   0.7713807  -2.4741204  -2.0218662  -0.3653171   0.8275332
          235         236         237         238         239         240
    1   0.6387731  -0.4648503   0.4588256   0.7268375   1.7939192   2.6340461
    2  -0.0846320  -0.4224525  -0.4750159   1.4352261  -2.5146177  -1.3318768
    3  -0.0466333  -0.9167486   1.4638135  -0.4813525  -0.1992916  -1.5228718
          241         242         243         244         245         246
    1   1.5450957   1.9642341   1.4001277   0.0023957   2.7999763   1.2498174
    2  -2.2563188  -2.6328710  -1.5900574  -2.2633029  -0.4666661  -1.5368030
    3  -0.1723322   1.3145497   0.9050320   2.0635534   1.3960024   0.1749101
          247         248         249         250         251         252
    1   1.9495231   2.6467777   0.5221639   0.3358332  -0.2534143  -0.8789382
    2  -0.2098788   0.2116693   0.3873743   0.9985387  -0.6756699  -0.0619895
    3   0.0216825   0.3768940  -1.1834692  -1.5891695  -1.4401182  -2.1032050
          253         254         255         256         257         258
    1  -1.1816525  -1.4846827  -2.3510769  -1.0771774  -1.6830853   0.0723014
    2   0.9053519  -1.2094544  -1.0681646  -2.4722267  -3.3038624  -2.7490722
    3  -2.6811658  -1.9890178  -2.5572184  -1.1515071  -1.0222520  -0.2681193
          259         260         261         262         263         264
    1   0.3811593   0.3563618   0.0361763  -1.1445970  -0.6380341   0.9914972
    2  -3.7453181  -1.8588728  -3.1573920   0.7557474  -1.8154761   1.8724153
    3   0.5873515  -0.4766354  -0.9672079  -1.0515914  -0.8125578  -1.8899563
 EField
            1           2           3           4           5           6
    1  -0.0162142  -0.0418172  -0.0078678  -0.0036307   0.0011348  -0.0012916
    2  -0.0078194   0.0099196  -0.0114386  -0.0075108  -0.0061602  -0.0044822
    3  -0.0035789  -0.0003735  -0.0085148  -0.0136393  -0.0126277  -0.0045829
            7           8           9          10          11          12
    1  -0.0060620   0.0000891   0.0047034   0.0067953   0.0041143   0.0050184
    2  -0.0053753  -0.0022382   0.0005007   0.0027843  -0.0021259   0.0021014
    3  -0.0022664  -0.0165447  -0.0088019  -0.0092422  -0.0093650  -0.0031808
           13          14          15          16          17          18
    1   0.0034254   0.0015026   0.0036169   0.0065216   0.0052899   0.0051564
    2   0.0019897  -0.0017221  -0.0034317   0.0023317   0.0041606   0.0044851
    3  -0.0023868  -0.0035689  -0.0053148   0.0007827   0.0009479   0.0001158
           19          20          21          22          23          24
    1   0.0033951   0.0076830  -0.0063979   0.0042425  -0.0005692   0.0014444
    2   0.0017302   0.0117186  -0.0151210  -0.0144618  -0.0016898  -0.0045756
    3   0.0009948  -0.0068768  -0.0025639  -0.0179328  -0.0036115  -0.0025353
           25          26          27          28          29          30
    1  -0.0048825  -0.0068080  -0.0047591   0.0018631   0.0042262   0.0052015
    2  -0.0089415  -0.0028859  -0.0024865  -0.0050039  -0.0015830   0.0023227
    3  -0.0031444   0.0006902  -0.0112762  -0.0251507  -0.0091866  -0.0051701
           31          32          33          34          35          36
    1   0.0111122   0.0023055   0.0027503  -0.0002453   0.0029455   0.0060283
    2   0.0117362  -0.0009502   0.0016543  -0.0022952  -0.0040112  -0.0069811
    3  -0.0101400  -0.0098661  -0.0044597  -0.0030946  -0.0041851  -0.0046989
           37          38          39          40          41          42
    1   0.0022555   0.0083585   0.0051214   0.0057312   0.0043644   0.0053083
    2  -0.0031309   0.0009961   0.0043213   0.0038064   0.0042227   0.0035313
    3  -0.0038596  -0.0002422   0.0034051   0.0003760   0.0019881   0.0055672
           43          44          45          46          47          48
    1   0.0044580  -0.0069559   0.0139829  -0.0003118   0.0231789  -0.0012250
    2   0.0034666  -0.0034562  -0.0006315   0.0188633   0.0009720   0.0001656
    3   0.0045961   0.0029532  -0.0003545  -0.0082684   0.0230094  -0.0001942
           49          50          51          52          53          54
    1  -0.0039660   0.0004392   0.0281173   0.0039235  -0.0068088   0.0021842
    2   0.0319263   0.0002159   0.0101378  -0.0303388  -0.0004193  -0.0061809
    3  -0.0095599   0.0017238  -0.0133322   0.0131361  -0.0038106  -0.0050802
           55          56          57          58          59          60
    1  -0.0075160   0.0067447  -0.0313773   0.0198656   0.0177557  -0.0472020
    2   0.0226838  -0.0051017   0.0191069   0.0021412  -0.0677799   0.0235017
    3   0.0279741   0.0013730   0.0034975   0.0229630  -0.0949452   0.0070654
           61          62          63          64          65          66
    1  -0.0021018   0.0021572  -0.0100926   0.0246990  -0.0280259   0.0141213
    2   0.0003730  -0.0249192   0.0036505  -0.0161607  -0.0089060   0.0245032
    3   0.0057925  -0.0302030   0.0012744  -0.0005577   0.0171272   0.0152730
           67          68          69          70          71          72
    1   0.0022819   0.0071066   0.0010595  -0.0067394   0.0025242   0.0074469
    2  -0.0046150   0.0016608  -0.0014667  -0.0044988   0.0013304  -0.0009285
    3   0.0003622  -0.0325664  -0.0009010   0.0318157  -0.0001708  -0.0343543
           73          74          75          76          77          78
    1   0.0120589  -0.0324040  -0.0026128   0.0150737   0.0140676   0.0108307
    2  -0.0311507  -0.0032621  -0.0006416   0.0246236  -0.0293945   0.0021688
    3   0.0072637   0.0020607  -0.0021706   0.0131957   0.0091462  -0.0336925
           79          80          81          82          83          84
    1  -0.0323881   0.0298008  -0.0028197  -0.0229538  -0.0055784  -0.0021045
    2   0.0001062  -0.0109465   0.0020192  -0.0208961   0.0009218  -0.0293140
    3   0.0035685  -0.0038499   0.0004944  -0.0123812   0.0036488   0.0182011
           85          86          87          88          89          90
    1   0.0199397  -0.0003674  -0.0708843  -0.0158088  -0.0064033   0.0004419
    2   0.0207455   0.0007264  -0.0438798   0.0872194   0.0291723   0.0173962
    3   0.0125349   0.0018566   0.0476977  -0.0366770  -0.0136010  -0.0275201
           91          92          93          94          95          96
    1   0.0023445  -0.0070611   0.0331121   0.0079965  -0.0135213  -0.0037034
    2  -0.0041228  -0.0314854  -0.0049834  -0.0132403  -0.0790373  -0.0088789
    3   0.0017004  -0.0069277   0.0107684   0.0027267   0.0835214   0.0032573
           97          98          99         100         101         102
    1   0.0124004  -0.0076308  -0.0030116   0.0052703   0.0027774  -0.0173541
    2   0.0249605   0.0038749  -0.0282513  -0.0027488   0.0259323   0.0112104
    3  -0.0332425   0.0178573   0.0224091   0.0022725  -0.0196708   0.0245800
          103         104         105         106         107         108
    1   0.0017435   0.0217031   0.0007493  -0.0157805   0.0323554   0.0010005
    2  -0.0027459  -0.0118608  -0.0049444   0.0074418  -0.0053188   0.0244410
    3   0.0003041  -0.0253475  -0.0008996   0.0274958   0.0083398  -0.0211616
          109         110         111         112         113         114
    1   0.0015816  -0.0058221   0.0308942  -0.0194187  -0.0302260  -0.0277034
    2  -0.0026286  -0.0341789  -0.0077491   0.0024913   0.0071287  -0.0007661
    3  -0.0030385  -0.0153949   0.0124498   0.0256281  -0.0101787  -0.0166205
          115         116         117         118         119         120
    1   0.0044376   0.0077056   0.0015122  -0.0071012  -0.0005689   0.0115354
    2   0.0008636  -0.0296784   0.0001964   0.0324118  -0.0014532  -0.0302250
    3  -0.0017925   0.0107135  -0.0009304  -0.0092508  -0.0024452   0.0085331
          121         122         123         124         125         126
    1   0.0273371  -0.0017280   0.0033507  -0.0273512   0.0258342   0.0123588
    2   0.0123773   0.0176871   0.0041084  -0.0021776   0.0137952  -0.0237577
    3  -0.0181188   0.0275036   0.0009958  -0.0200034  -0.0269057   0.0068663
          127         128         129         130         131         132
    1  -0.0050884   0.0324708  -0.0003347  -0.0072591  -0.0009347  -0.0330600
    2   0.0180276  -0.0000374  -0.0006141  -0.0073449  -0.0000350  -0.0015196
    3   0.0274837  -0.0035971  -0.0016377   0.0306475  -0.0007185   0.0038548
          133         134         135         136         137         138
    1   0.0084678   0.0011476   0.0073656  -0.0350710   0.0050572  -0.0284003
    2   0.0261983  -0.0006230   0.0008523  -0.0087606  -0.0011270  -0.0035864
    3   0.0188297  -0.0069209  -0.0028568   0.0076906   0.0037195  -0.0292900
          139         140         141         142         143         144
    1  -0.0026104   0.0089280  -0.0057997   0.0340553  -0.0068772   0.0258175
    2  -0.0041529   0.0029714  -0.0036789   0.0061438  -0.0016326   0.0014034
    3   0.0048374  -0.0333022   0.0013481  -0.0126193  -0.0077575   0.0256829
          145         146         147         148         149         150
    1  -0.0092348   0.0146595   0.0027413  -0.0308123   0.0006685  -0.0172519
    2  -0.0261941   0.0100687   0.0028537   0.0085147  -0.0003519  -0.0079278
    3  -0.0193216   0.0273847  -0.0042131   0.0013528  -0.0039665  -0.0308987
          151         152         153         154         155         156
    1   0.0004217   0.0166687   0.0137945  -0.0302471  -0.0015247   0.0033874
    2  -0.0035375   0.0122346   0.0138211   0.0112281   0.0007166  -0.0321508
    3  -0.0021457   0.0249197  -0.0296690  -0.0005138  -0.0016699  -0.0054283
          157         158         159         160         161         162
    1   0.0168295   0.0213658   0.0039516   0.0135468   0.0011422  -0.0332345
    2   0.0112421   0.0079759  -0.0324642   0.0103910   0.0013321   0.0018923
    3  -0.0309186   0.0231465  -0.0006950   0.0296268   0.0007349   0.0031172
          163         164         165         166         167         168
    1  -0.0017703  -0.0169477  -0.0096479  -0.0073345   0.0111142   0.0075622
    2   0.0009747  -0.0077038   0.0322635  -0.0040377  -0.0335109   0.0115608
    3   0.0021668  -0.0282626   0.0065956  -0.0089257  -0.0073692  -0.0134217
          169         170         171         172         173         174
    1   0.0126424   0.0044447   0.0222494   0.0190539  -0.0271966   0.0064504
    2   0.0423514  -0.0109086  -0.0154109   0.0046777  -0.0176794  -0.0323265
    3   0.0130792   0.0042860  -0.0218748   0.0273367   0.0079600  -0.0037129
          175         176         177         178         179         180
    1  -0.0298025   0.0014823   0.0207564   0.0044803  -0.0050410  -0.0224334
    2  -0.0112973   0.0018179  -0.0249700   0.0029112  -0.0167389   0.0239232
    3   0.0032023  -0.0024165  -0.0011490  -0.0024677  -0.0286472  -0.0023677
          181         182         183         184         185         186
    1   0.0000918   0.0057143  -0.0012549  -0.0023244   0.0273919   0.0044091
    2   0.0011396   0.0213353   0.0036145  -0.0206874   0.0168377  -0.0147880
    3  -0.0015466   0.0243392  -0.0026311  -0.0260039  -0.0087657   0.0283700
          187         188         189         190         191         192
    1   0.0020676  -0.0226707   0.0285996  -0.0005858   0.0072533  -0.0273476
    2   0.0002588   0.0255550   0.0181993  -0.0150736   0.0172880  -0.0140385
    3  -0.0025266  -0.0039449  -0.0087791  -0.0318150   0.0265163   0.0118607
          193         194         195         196         197         198
    1  -0.0013030   0.0075387  -0.0018683  -0.0099697  -0.0053986   0.0070484
    2   0.0039518  -0.0180370   0.0007946   0.0194071  -0.0009373  -0.0157393
    3  -0.0038813  -0.0270280  -0.0011004   0.0259307  -0.0009374  -0.0295233
          199         200         201         202         203         204
    1  -0.0065177   0.0244410   0.0016331  -0.0289676  -0.0086884   0.0055384
    2   0.0303812  -0.0007066   0.0002880  -0.0121213   0.0309634  -0.0146910
    3  -0.0090951   0.0201065  -0.0022732   0.0095139  -0.0119022  -0.0324129
          205         206         207         208         209         210
    1   0.0235613  -0.0078418  -0.0014888  -0.0218652   0.0047461   0.0241929
    2  -0.0017149   0.0125045  -0.0044834  -0.0276331  -0.0053638   0.0245062
    3   0.0212480   0.0294782   0.0026207   0.0004785   0.0019400   0.0004729
          211         212         213         214         215         216
    1   0.0103420   0.0097966  -0.0791136   0.0836344   0.0074287   0.0318132
    2  -0.0203528  -0.0233300  -0.0444037   0.0270265  -0.0113798  -0.0131695
    3  -0.0284102   0.0165784   0.0682094  -0.0685534  -0.0016648   0.0027509
          217         218         219         220         221         222
    1   0.0040639  -0.0010661   0.0308124   0.0008087   0.0091820  -0.0267019
    2   0.0304369  -0.0016170  -0.0141944   0.0002247  -0.0000772   0.0146713
    3   0.0093752  -0.0023284   0.0003819  -0.0016932   0.0308372  -0.0012414
          223         224         225         226         227         228
    1   0.0037491   0.0296382  -0.0173254   0.0163088  -0.0179451  -0.0049211
    2   0.0004770  -0.0182639  -0.0184241  -0.0174411  -0.0016955   0.0312039
    3   0.0099748  -0.0031979   0.0186748  -0.0381182  -0.0023603  -0.0088698
          229         230         231         232         233         234
    1  -0.0281976  -0.0090198  -0.0088438   0.0072682  -0.0016080   0.0243678
    2  -0.0208353  -0.0133133  -0.0008329   0.0060530  -0.0011401   0.0056997
    3  -0.0192551   0.0257692  -0.0326453  -0.0320327  -0.0029668   0.0187433
          235         236         237         238         239         240
    1  -0.0065394  -0.0320113  -0.0143320  -0.0028226  -0.0045574   0.0206220
    2  -0.0021704  -0.0084258  -0.0054588   0.0273592  -0.0330125   0.0090437
    3  -0.0014127  -0.0198429   0.0305221  -0.0077923   0.0004134  -0.0236946
          241         242         243         244         245         246
    1  -0.0012505   0.0149380  -0.0005522  -0.0215948   0.0215088  -0.0011454
    2   0.0025774  -0.0174859  -0.0000285  -0.0075103   0.0189003   0.0066302
    3  -0.0014981   0.0228964   0.0008818   0.0239088   0.0152429  -0.0040031
          247         248         249         250         251         252
    1   0.0007794   0.0258631  -0.0045066  -0.0062863  -0.0121903  -0.0034962
    2  -0.0138604   0.0233535   0.0189139   0.0426425  -0.0109798  -0.0030151
    3   0.0103608   0.0114483  -0.0050327  -0.0232313  -0.0000753   0.0037343
          253         254         255         256         257         258
    1  -0.0072074   0.0073616  -0.0287650   0.0061556  -0.0204157  -0.0056814
    2   0.0346760   0.0044048   0.0013759   0.0092014  -0.0278012   0.0075363
    3  -0.0188060   0.0063812  -0.0212968   0.0026869  -0.0018579  -0.0059509
          259         260         261         262         263         264
    1   0.0068221  -0.0016444  -0.0218206  -0.0963656   0.0164904   0.0398873
    2  -0.0287475   0.0024094  -0.0177167   0.0467318  -0.0451263   0.0099550
    3   0.0202582  -0.0004409  -0.0158813   0.0198755   0.0180520  -0.0087065
  --- DONE ESP SUMMARY ---
 Total job time:  12.35s(wall), 40.68s(cpu) 
 Tue Aug  6 14:42:21 2024

        *************************************************************
        *                                                           *
        *  Thank you very much for using Q-Chem.  Have a nice day.  *
        *                                                           *
        *************************************************************


